 Entering Gaussian System, Link 0=g16
 Initial command:
 /opt/sw/arch/manual/gaussian/G16_A03/g16/l1.exe "/scratch/1380944/Gau-162376.inp" -scrdir="/scratch/1380944/"
 Entering Link 1 = /opt/sw/arch/manual/gaussian/G16_A03/g16/l1.exe PID=    162377.
  
 Copyright (c) 1988,1990,1992,1993,1995,1998,2003,2009,2016,
            Gaussian, Inc.  All Rights Reserved.
  
 This is part of the Gaussian(R) 16 program.  It is based on
 the Gaussian(R) 09 system (copyright 2009, Gaussian, Inc.),
 the Gaussian(R) 03 system (copyright 2003, Gaussian, Inc.),
 the Gaussian(R) 98 system (copyright 1998, Gaussian, Inc.),
 the Gaussian(R) 94 system (copyright 1995, Gaussian, Inc.),
 the Gaussian 92(TM) system (copyright 1992, Gaussian, Inc.),
 the Gaussian 90(TM) system (copyright 1990, Gaussian, Inc.),
 the Gaussian 88(TM) system (copyright 1988, Gaussian, Inc.),
 the Gaussian 86(TM) system (copyright 1986, Carnegie Mellon
 University), and the Gaussian 82(TM) system (copyright 1983,
 Carnegie Mellon University). Gaussian is a federally registered
 trademark of Gaussian, Inc.
  
 This software contains proprietary and confidential information,
 including trade secrets, belonging to Gaussian, Inc.
  
 This software is provided under written license and may be
 used, copied, transmitted, or stored only in accord with that
 written license.
  
 The following legend is applicable only to US Government
 contracts under FAR:
  
                    RESTRICTED RIGHTS LEGEND
  
 Use, reproduction and disclosure by the US Government is
 subject to restrictions as set forth in subparagraphs (a)
 and (c) of the Commercial Computer Software - Restricted
 Rights clause in FAR 52.227-19.
  
 Gaussian, Inc.
 340 Quinnipiac St., Bldg. 40, Wallingford CT 06492
  
  
 ---------------------------------------------------------------
 Warning -- This program may not be used in any manner that
 competes with the business of Gaussian, Inc. or will provide
 assistance to any competitor of Gaussian, Inc.  The licensee
 of this program is prohibited from giving any competitor of
 Gaussian, Inc. access to this program.  By using this program,
 the user acknowledges that Gaussian, Inc. is engaged in the
 business of creating and licensing software in the field of
 computational chemistry and represents and warrants to the
 licensee that it is not a competitor of Gaussian, Inc. and that
 it will not use this program in any manner prohibited above.
 ---------------------------------------------------------------
  

 Cite this work as:
 Gaussian 16, Revision A.03,
 M. J. Frisch, G. W. Trucks, H. B. Schlegel, G. E. Scuseria, 
 M. A. Robb, J. R. Cheeseman, G. Scalmani, V. Barone, 
 G. A. Petersson, H. Nakatsuji, X. Li, M. Caricato, A. V. Marenich, 
 J. Bloino, B. G. Janesko, R. Gomperts, B. Mennucci, H. P. Hratchian, 
 J. V. Ortiz, A. F. Izmaylov, J. L. Sonnenberg, D. Williams-Young, 
 F. Ding, F. Lipparini, F. Egidi, J. Goings, B. Peng, A. Petrone, 
 T. Henderson, D. Ranasinghe, V. G. Zakrzewski, J. Gao, N. Rega, 
 G. Zheng, W. Liang, M. Hada, M. Ehara, K. Toyota, R. Fukuda, 
 J. Hasegawa, M. Ishida, T. Nakajima, Y. Honda, O. Kitao, H. Nakai, 
 T. Vreven, K. Throssell, J. A. Montgomery, Jr., J. E. Peralta, 
 F. Ogliaro, M. J. Bearpark, J. J. Heyd, E. N. Brothers, K. N. Kudin, 
 V. N. Staroverov, T. A. Keith, R. Kobayashi, J. Normand, 
 K. Raghavachari, A. P. Rendell, J. C. Burant, S. S. Iyengar, 
 J. Tomasi, M. Cossi, J. M. Millam, M. Klene, C. Adamo, R. Cammi, 
 J. W. Ochterski, R. L. Martin, K. Morokuma, O. Farkas, 
 J. B. Foresman, and D. J. Fox, Gaussian, Inc., Wallingford CT, 2016.
 
 ******************************************
 Gaussian 16:  ES64L-G16RevA.03 25-Dec-2016
                18-Jul-2024 
 ******************************************
 %nprocshared=4
 Will use up to    4 processors via shared memory.
 %mem=8GB
 %Chk=MQJKPEGWNLWLTK-UHFFFAOYSA-N_conf_2_0.chk
 -------------------------------------------------------
 # opt=CalcFc B3LYP/6-31G** SCRF=(Solvent=water) scf=xqc
 -------------------------------------------------------
 1/10=4,18=20,19=15,26=3,38=1/1,3;
 2/9=110,12=2,17=6,18=5,40=1/2;
 3/5=1,6=6,7=101,11=2,25=1,30=1,70=2201,71=2,72=1,74=-5,140=1/1,2,3;
 4//1;
 5/5=2,8=3,13=1,38=5,53=1/2,8;
 8/6=4,10=90,11=11/1;
 11/6=1,8=1,9=11,15=111,16=1/1,2,10;
 10/6=1,13=1/2;
 6/7=2,8=2,9=2,10=2,28=1/1;
 7/10=1,18=20,25=1/1,2,3,16;
 1/10=4,18=20,19=15,26=3/3(2);
 2/9=110/2;
 99//99;
 2/9=110/2;
 3/5=1,6=6,7=101,11=2,25=1,30=1,70=2205,71=1,72=1,74=-5/1,2,3;
 4/5=5,16=3,69=1/1;
 5/5=2,8=3,13=1,38=5,53=1/2,8;
 7//1,2,3,16;
 1/18=20,19=15,26=3/3(-5);
 2/9=110/2;
 6/7=2,8=2,9=2,10=2,19=2,28=1/1;
 99/9=1/99;
 ----------------------------------
 MQJKPEGWNLWLTK-UHFFFAOYSA-N_conf_2
 ----------------------------------
 Symbolic Z-matrix:
 Charge =  0 Multiplicity = 1
 O                     0.28811   1.27396   2.68356 
 S                     0.29312  -0.00851   2.00305 
 C                    -1.26797  -0.13675   1.16321 
 C                    -2.04531  -1.28725   1.29987 
 C                    -3.26363  -1.37434   0.62134 
 C                    -3.73197  -0.30626  -0.15131 
 N                    -4.89051  -0.45168  -0.9219 
 C                    -2.91628   0.81846  -0.31442 
 C                    -1.69598   0.92047   0.35793 
 C                     1.54716   0.04141   0.74462 
 C                     2.31877   1.19046   0.5688 
 C                     3.29099   1.21479  -0.43444 
 C                     3.53002   0.08825  -1.22871 
 N                     4.41798   0.16469  -2.30707 
 C                     2.71384  -1.0366   -1.06908 
 C                     1.73811  -1.07625  -0.07009 
 O                     0.50633  -1.23789   2.74537 
 H                    -1.71346  -2.11997   1.91574 
 H                    -3.84982  -2.28634   0.70434 
 H                    -5.56417  -1.1053   -0.53444 
 H                    -5.32129   0.42808  -1.18941 
 H                    -3.22989   1.63003  -0.9665 
 H                    -1.09139   1.81675   0.24185 
 H                     2.16814   2.06939   1.19139 
 H                     3.86664   2.12411  -0.58943 
 H                     5.16733   0.83761  -2.17736 
 H                     4.76356  -0.73679  -2.62175 
 H                     2.8364   -1.8969   -1.72259 
 H                     1.13519  -1.9721    0.05741 
 

 GradGradGradGradGradGradGradGradGradGradGradGradGradGradGradGradGradGrad
 Berny optimization.
 Initialization pass.
                           ----------------------------
                           !    Initial Parameters    !
                           ! (Angstroms and Degrees)  !
 --------------------------                            --------------------------
 ! Name  Definition              Value          Derivative Info.                !
 --------------------------------------------------------------------------------
 ! R1    R(1,2)                  1.4519         calculate D2E/DX2 analytically  !
 ! R2    R(2,3)                  1.7773         calculate D2E/DX2 analytically  !
 ! R3    R(2,10)                 1.7773         calculate D2E/DX2 analytically  !
 ! R4    R(2,17)                 1.4519         calculate D2E/DX2 analytically  !
 ! R5    R(3,4)                  1.3952         calculate D2E/DX2 analytically  !
 ! R6    R(3,9)                  1.3962         calculate D2E/DX2 analytically  !
 ! R7    R(4,5)                  1.3972         calculate D2E/DX2 analytically  !
 ! R8    R(4,18)                 1.0876         calculate D2E/DX2 analytically  !
 ! R9    R(5,6)                  1.399          calculate D2E/DX2 analytically  !
 ! R10   R(5,19)                 1.0873         calculate D2E/DX2 analytically  !
 ! R11   R(6,7)                  1.399          calculate D2E/DX2 analytically  !
 ! R12   R(6,8)                  1.3989         calculate D2E/DX2 analytically  !
 ! R13   R(7,20)                 1.0155         calculate D2E/DX2 analytically  !
 ! R14   R(7,21)                 1.0154         calculate D2E/DX2 analytically  !
 ! R15   R(8,9)                  1.397          calculate D2E/DX2 analytically  !
 ! R16   R(8,22)                 1.0873         calculate D2E/DX2 analytically  !
 ! R17   R(9,23)                 1.0873         calculate D2E/DX2 analytically  !
 ! R18   R(10,11)                1.3952         calculate D2E/DX2 analytically  !
 ! R19   R(10,16)                1.3962         calculate D2E/DX2 analytically  !
 ! R20   R(11,12)                1.3972         calculate D2E/DX2 analytically  !
 ! R21   R(11,24)                1.0876         calculate D2E/DX2 analytically  !
 ! R22   R(12,13)                1.399          calculate D2E/DX2 analytically  !
 ! R23   R(12,25)                1.0873         calculate D2E/DX2 analytically  !
 ! R24   R(13,14)                1.399          calculate D2E/DX2 analytically  !
 ! R25   R(13,15)                1.3989         calculate D2E/DX2 analytically  !
 ! R26   R(14,26)                1.0155         calculate D2E/DX2 analytically  !
 ! R27   R(14,27)                1.0154         calculate D2E/DX2 analytically  !
 ! R28   R(15,16)                1.397          calculate D2E/DX2 analytically  !
 ! R29   R(15,28)                1.0873         calculate D2E/DX2 analytically  !
 ! R30   R(16,29)                1.0873         calculate D2E/DX2 analytically  !
 ! A1    A(1,2,3)              106.3911         calculate D2E/DX2 analytically  !
 ! A2    A(1,2,10)             108.0291         calculate D2E/DX2 analytically  !
 ! A3    A(1,2,17)             120.5864         calculate D2E/DX2 analytically  !
 ! A4    A(3,2,10)             106.6902         calculate D2E/DX2 analytically  !
 ! A5    A(3,2,17)             108.0292         calculate D2E/DX2 analytically  !
 ! A6    A(10,2,17)            106.3912         calculate D2E/DX2 analytically  !
 ! A7    A(2,3,4)              120.1713         calculate D2E/DX2 analytically  !
 ! A8    A(2,3,9)              119.1551         calculate D2E/DX2 analytically  !
 ! A9    A(4,3,9)              120.6705         calculate D2E/DX2 analytically  !
 ! A10   A(3,4,5)              119.3166         calculate D2E/DX2 analytically  !
 ! A11   A(3,4,18)             121.1205         calculate D2E/DX2 analytically  !
 ! A12   A(5,4,18)             119.5593         calculate D2E/DX2 analytically  !
 ! A13   A(4,5,6)              120.8321         calculate D2E/DX2 analytically  !
 ! A14   A(4,5,19)             119.0314         calculate D2E/DX2 analytically  !
 ! A15   A(6,5,19)             120.1359         calculate D2E/DX2 analytically  !
 ! A16   A(5,6,7)              120.1383         calculate D2E/DX2 analytically  !
 ! A17   A(5,6,8)              118.8836         calculate D2E/DX2 analytically  !
 ! A18   A(7,6,8)              120.1467         calculate D2E/DX2 analytically  !
 ! A19   A(6,7,20)             113.9617         calculate D2E/DX2 analytically  !
 ! A20   A(6,7,21)             113.977          calculate D2E/DX2 analytically  !
 ! A21   A(20,7,21)            112.1321         calculate D2E/DX2 analytically  !
 ! A22   A(6,8,9)              120.7923         calculate D2E/DX2 analytically  !
 ! A23   A(6,8,22)             120.1239         calculate D2E/DX2 analytically  !
 ! A24   A(9,8,22)             119.0832         calculate D2E/DX2 analytically  !
 ! A25   A(3,9,8)              119.3457         calculate D2E/DX2 analytically  !
 ! A26   A(3,9,23)             121.0154         calculate D2E/DX2 analytically  !
 ! A27   A(8,9,23)             119.6376         calculate D2E/DX2 analytically  !
 ! A28   A(2,10,11)            120.1711         calculate D2E/DX2 analytically  !
 ! A29   A(2,10,16)            119.1552         calculate D2E/DX2 analytically  !
 ! A30   A(11,10,16)           120.6705         calculate D2E/DX2 analytically  !
 ! A31   A(10,11,12)           119.3167         calculate D2E/DX2 analytically  !
 ! A32   A(10,11,24)           121.1204         calculate D2E/DX2 analytically  !
 ! A33   A(12,11,24)           119.5592         calculate D2E/DX2 analytically  !
 ! A34   A(11,12,13)           120.8321         calculate D2E/DX2 analytically  !
 ! A35   A(11,12,25)           119.0316         calculate D2E/DX2 analytically  !
 ! A36   A(13,12,25)           120.1359         calculate D2E/DX2 analytically  !
 ! A37   A(12,13,14)           120.1381         calculate D2E/DX2 analytically  !
 ! A38   A(12,13,15)           118.8836         calculate D2E/DX2 analytically  !
 ! A39   A(14,13,15)           120.1467         calculate D2E/DX2 analytically  !
 ! A40   A(13,14,26)           113.9618         calculate D2E/DX2 analytically  !
 ! A41   A(13,14,27)           113.9775         calculate D2E/DX2 analytically  !
 ! A42   A(26,14,27)           112.1323         calculate D2E/DX2 analytically  !
 ! A43   A(13,15,16)           120.7924         calculate D2E/DX2 analytically  !
 ! A44   A(13,15,28)           120.1237         calculate D2E/DX2 analytically  !
 ! A45   A(16,15,28)           119.0832         calculate D2E/DX2 analytically  !
 ! A46   A(10,16,15)           119.3456         calculate D2E/DX2 analytically  !
 ! A47   A(10,16,29)           121.0154         calculate D2E/DX2 analytically  !
 ! A48   A(15,16,29)           119.6377         calculate D2E/DX2 analytically  !
 ! D1    D(1,2,3,4)           -130.5099         calculate D2E/DX2 analytically  !
 ! D2    D(1,2,3,9)             50.1311         calculate D2E/DX2 analytically  !
 ! D3    D(10,2,3,4)           114.3398         calculate D2E/DX2 analytically  !
 ! D4    D(10,2,3,9)           -65.0193         calculate D2E/DX2 analytically  !
 ! D5    D(17,2,3,4)             0.2978         calculate D2E/DX2 analytically  !
 ! D6    D(17,2,3,9)          -179.0613         calculate D2E/DX2 analytically  !
 ! D7    D(1,2,10,11)            0.298          calculate D2E/DX2 analytically  !
 ! D8    D(1,2,10,16)         -179.0607         calculate D2E/DX2 analytically  !
 ! D9    D(3,2,10,11)          114.3398         calculate D2E/DX2 analytically  !
 ! D10   D(3,2,10,16)          -65.0188         calculate D2E/DX2 analytically  !
 ! D11   D(17,2,10,11)        -130.5097         calculate D2E/DX2 analytically  !
 ! D12   D(17,2,10,16)          50.1317         calculate D2E/DX2 analytically  !
 ! D13   D(2,3,4,5)           -179.3874         calculate D2E/DX2 analytically  !
 ! D14   D(2,3,4,18)            -0.0869         calculate D2E/DX2 analytically  !
 ! D15   D(9,3,4,5)             -0.0382         calculate D2E/DX2 analytically  !
 ! D16   D(9,3,4,18)           179.2624         calculate D2E/DX2 analytically  !
 ! D17   D(2,3,9,8)            179.3787         calculate D2E/DX2 analytically  !
 ! D18   D(2,3,9,23)            -0.2088         calculate D2E/DX2 analytically  !
 ! D19   D(4,3,9,8)              0.0229         calculate D2E/DX2 analytically  !
 ! D20   D(4,3,9,23)          -179.5646         calculate D2E/DX2 analytically  !
 ! D21   D(3,4,5,6)             -2.2921         calculate D2E/DX2 analytically  !
 ! D22   D(3,4,5,19)           177.9579         calculate D2E/DX2 analytically  !
 ! D23   D(18,4,5,6)           178.3962         calculate D2E/DX2 analytically  !
 ! D24   D(18,4,5,19)           -1.3538         calculate D2E/DX2 analytically  !
 ! D25   D(4,5,6,7)            174.1416         calculate D2E/DX2 analytically  !
 ! D26   D(4,5,6,8)              4.5645         calculate D2E/DX2 analytically  !
 ! D27   D(19,5,6,7)            -6.1111         calculate D2E/DX2 analytically  !
 ! D28   D(19,5,6,8)          -175.6883         calculate D2E/DX2 analytically  !
 ! D29   D(5,6,7,20)            30.0622         calculate D2E/DX2 analytically  !
 ! D30   D(5,6,7,21)           160.5185         calculate D2E/DX2 analytically  !
 ! D31   D(8,6,7,20)          -160.493          calculate D2E/DX2 analytically  !
 ! D32   D(8,6,7,21)           -30.0367         calculate D2E/DX2 analytically  !
 ! D33   D(5,6,8,9)             -4.5783         calculate D2E/DX2 analytically  !
 ! D34   D(5,6,8,22)           175.7227         calculate D2E/DX2 analytically  !
 ! D35   D(7,6,8,9)           -174.1545         calculate D2E/DX2 analytically  !
 ! D36   D(7,6,8,22)             6.1464         calculate D2E/DX2 analytically  !
 ! D37   D(6,8,9,3)              2.3223         calculate D2E/DX2 analytically  !
 ! D38   D(6,8,9,23)          -178.0845         calculate D2E/DX2 analytically  !
 ! D39   D(22,8,9,3)          -177.9755         calculate D2E/DX2 analytically  !
 ! D40   D(22,8,9,23)            1.6177         calculate D2E/DX2 analytically  !
 ! D41   D(2,10,11,12)        -179.387          calculate D2E/DX2 analytically  !
 ! D42   D(2,10,11,24)          -0.0869         calculate D2E/DX2 analytically  !
 ! D43   D(16,10,11,12)         -0.0382         calculate D2E/DX2 analytically  !
 ! D44   D(16,10,11,24)        179.2619         calculate D2E/DX2 analytically  !
 ! D45   D(2,10,16,15)         179.3783         calculate D2E/DX2 analytically  !
 ! D46   D(2,10,16,29)          -0.2091         calculate D2E/DX2 analytically  !
 ! D47   D(11,10,16,15)          0.0229         calculate D2E/DX2 analytically  !
 ! D48   D(11,10,16,29)       -179.5644         calculate D2E/DX2 analytically  !
 ! D49   D(10,11,12,13)         -2.292          calculate D2E/DX2 analytically  !
 ! D50   D(10,11,12,25)        177.9578         calculate D2E/DX2 analytically  !
 ! D51   D(24,11,12,13)        178.3968         calculate D2E/DX2 analytically  !
 ! D52   D(24,11,12,25)         -1.3534         calculate D2E/DX2 analytically  !
 ! D53   D(11,12,13,14)        174.1406         calculate D2E/DX2 analytically  !
 ! D54   D(11,12,13,15)          4.5641         calculate D2E/DX2 analytically  !
 ! D55   D(25,12,13,14)         -6.1119         calculate D2E/DX2 analytically  !
 ! D56   D(25,12,13,15)       -175.6884         calculate D2E/DX2 analytically  !
 ! D57   D(12,13,14,26)         30.0627         calculate D2E/DX2 analytically  !
 ! D58   D(12,13,14,27)        160.5199         calculate D2E/DX2 analytically  !
 ! D59   D(15,13,14,26)       -160.4932         calculate D2E/DX2 analytically  !
 ! D60   D(15,13,14,27)        -30.036          calculate D2E/DX2 analytically  !
 ! D61   D(12,13,15,16)         -4.5779         calculate D2E/DX2 analytically  !
 ! D62   D(12,13,15,28)        175.7232         calculate D2E/DX2 analytically  !
 ! D63   D(14,13,15,16)       -174.1535         calculate D2E/DX2 analytically  !
 ! D64   D(14,13,15,28)          6.1476         calculate D2E/DX2 analytically  !
 ! D65   D(13,15,16,10)          2.3221         calculate D2E/DX2 analytically  !
 ! D66   D(13,15,16,29)       -178.0848         calculate D2E/DX2 analytically  !
 ! D67   D(28,15,16,10)       -177.9759         calculate D2E/DX2 analytically  !
 ! D68   D(28,15,16,29)          1.6172         calculate D2E/DX2 analytically  !
 --------------------------------------------------------------------------------
 Trust Radius=3.00D-01 FncErr=1.00D-07 GrdErr=1.00D-06 EigMax=2.50D+02 EigMin=1.00D-04
 Number of steps in this run=    156 maximum allowed number of steps=    174.
 GradGradGradGradGradGradGradGradGradGradGradGradGradGradGradGradGradGrad

                          Input orientation:                          
 ---------------------------------------------------------------------
 Center     Atomic      Atomic             Coordinates (Angstroms)
 Number     Number       Type             X           Y           Z
 ---------------------------------------------------------------------
      1          8           0        0.288111    1.273964    2.683559
      2         16           0        0.293117   -0.008515    2.003049
      3          6           0       -1.267969   -0.136747    1.163211
      4          6           0       -2.045311   -1.287251    1.299874
      5          6           0       -3.263633   -1.374337    0.621344
      6          6           0       -3.731967   -0.306260   -0.151305
      7          7           0       -4.890506   -0.451681   -0.921895
      8          6           0       -2.916285    0.818457   -0.314422
      9          6           0       -1.695983    0.920468    0.357929
     10          6           0        1.547156    0.041413    0.744616
     11          6           0        2.318768    1.190458    0.568803
     12          6           0        3.290986    1.214793   -0.434438
     13          6           0        3.530024    0.088248   -1.228712
     14          7           0        4.417982    0.164688   -2.307070
     15          6           0        2.713836   -1.036603   -1.069081
     16          6           0        1.738109   -1.076251   -0.070087
     17          8           0        0.506330   -1.237894    2.745368
     18          1           0       -1.713461   -2.119969    1.915737
     19          1           0       -3.849823   -2.286341    0.704340
     20          1           0       -5.564173   -1.105300   -0.534442
     21          1           0       -5.321286    0.428077   -1.189408
     22          1           0       -3.229891    1.630035   -0.966495
     23          1           0       -1.091388    1.816746    0.241853
     24          1           0        2.168141    2.069392    1.191394
     25          1           0        3.866639    2.124113   -0.589427
     26          1           0        5.167328    0.837607   -2.177362
     27          1           0        4.763564   -0.736789   -2.621753
     28          1           0        2.836396   -1.896900   -1.722592
     29          1           0        1.135187   -1.972102    0.057412
 ---------------------------------------------------------------------
                    Distance matrix (angstroms):
                    1          2          3          4          5
     1  O    0.000000
     2  S    1.451851   0.000000
     3  C    2.592864   1.777290   0.000000
     4  C    3.730853   2.756423   1.395205   0.000000
     5  C    4.886830   4.052783   2.409963   1.397245   0.000000
     6  C    5.166680   4.575062   2.797852   2.431681   1.398968
     7  N    6.541806   5.968387   4.191615   3.705344   2.424789
     8  C    4.411748   4.044108   2.410967   2.792589   2.409285
     9  C    3.077359   2.743346   1.396202   2.425555   2.791602
    10  C    2.619900   1.777290   2.851647   3.870333   5.016297
    11  C    2.933042   2.756421   3.870333   5.071360   6.143625
    12  C    4.329281   4.052782   5.016295   6.143625   7.126100
    13  C    5.217450   4.575064   5.365879   6.274560   7.191358
    14  N    6.572116   5.968386   6.668115   7.542700   8.363696
    15  C    5.030424   4.044110   4.652702   5.322053   6.221072
    16  C    3.899817   2.743348   3.382336   4.029340   5.058098
    17  O    2.522076   1.451851   2.619901   2.933047   4.329286
    18  H    4.014302   2.914141   2.167470   1.087580   2.152777
    19  H    5.806511   4.902967   3.390765   2.146883   1.087317
    20  H    7.089827   6.476854   4.719904   3.972431   2.588572
    21  H    6.868823   6.473324   4.720511   4.457678   3.280466
    22  H    5.081931   4.890258   3.392095   3.879461   3.398326
    23  H    2.856494   2.889679   2.167076   3.415286   3.878875
    24  H    2.528592   2.914137   4.083466   5.388135   6.456655
    25  H    4.923520   4.902967   5.877706   7.082232   8.034046
    26  H    6.901139   6.476858   7.315862   8.284223   9.154592
    27  H    7.226282   6.473335   7.146006   7.876735   8.681016
    28  H    5.996858   4.890262   5.317124   5.773910   6.555720
    29  H    4.260415   2.889682   3.219702   3.482571   4.474925
                    6          7          8          9         10
     6  C    0.000000
     7  N    1.398989   0.000000
     8  C    1.398904   2.424835   0.000000
     9  C    2.430928   3.704825   1.396996   0.000000
    10  C    5.365882   6.668126   4.652705   3.382339   0.000000
    11  C    6.274561   7.542708   5.322053   4.029340   1.395206
    12  C    7.191358   8.363706   6.221069   5.058096   2.409965
    13  C    7.352071   8.443399   6.551643   5.524596   2.797853
    14  N    8.443386   9.431149   7.628206   6.712227   4.191614
    15  C    6.551647   7.628225   5.975702   5.031201   2.410966
    16  C    5.524601   6.712243   5.031203   3.995381   1.396201
    17  O    5.217453   6.572123   5.030426   3.899817   2.592866
    18  H    3.411241   4.574818   3.880044   3.416333   4.083469
    19  H    2.160264   2.663389   3.398403   3.878486   5.877707
    20  H    2.035249   1.015463   3.280330   4.456788   7.315869
    21  H    2.035398   1.015435   2.588828   3.972345   7.146010
    22  H    2.160058   2.663301   1.087294   2.147198   5.317124
    23  H    3.410921   4.575300   2.153200   1.087346   3.219704
    24  H    6.500603   7.787574   5.448276   4.116570   2.167471
    25  H    7.989835   9.134158   6.912917   5.769662   3.390768
    26  H    9.198412  10.217558   8.295523   7.317076   4.719907
    27  H    8.857907   9.806726   8.168393   7.304160   4.720521
    28  H    6.938477   7.901569   6.515324   5.727878   3.392096
    29  H    5.148570   6.291240   4.933549   4.058669   2.167075
                   11         12         13         14         15
    11  C    0.000000
    12  C    1.397245   0.000000
    13  C    2.431681   1.398969   0.000000
    14  N    3.705341   2.424787   1.398988   0.000000
    15  C    2.792588   2.409286   1.398905   2.424836   0.000000
    16  C    2.425555   2.791606   2.430932   3.704827   1.396998
    17  O    3.730852   4.886835   5.166690   6.541818   4.411759
    18  H    5.388138   6.456660   6.500609   7.787576   5.448282
    19  H    7.082232   8.034047   7.989837   9.134152   6.912921
    20  H    8.284227   9.154599   9.198423  10.217558   8.295540
    21  H    7.876735   8.681022   8.857919   9.806727   8.168412
    22  H    5.773906   6.555712   6.938467   7.901541   6.515319
    23  H    3.482571   4.474922   5.148564   6.291221   4.933546
    24  H    1.087581   2.152778   3.411242   4.574815   3.880043
    25  H    2.146884   1.087318   2.160264   2.663386   3.398404
    26  H    3.972433   2.588573   2.035249   1.015462   3.280331
    27  H    4.457686   3.280473   2.035404   1.015437   2.588835
    28  H    3.879460   3.398327   2.160058   2.663301   1.087294
    29  H    3.415285   3.878877   3.410924   4.575302   2.153202
                   16         17         18         19         20
    16  C    0.000000
    17  O    3.077368   0.000000
    18  H    4.116574   2.528600   0.000000
    19  H    5.769665   4.923526   2.461545   0.000000
    20  H    7.317089   6.901141   4.675565   2.422485   0.000000
    21  H    7.304174   7.226274   5.399154   3.622092   1.684999
    22  H    5.727876   5.996857   4.966825   4.302791   3.621822
    23  H    4.058669   4.260413   4.322799   4.965700   5.398777
    24  H    3.416334   4.014298   5.756931   7.444832   8.534979
    25  H    3.878490   5.806515   7.444837   8.981632   9.968568
    26  H    4.456793   7.089843   8.534985   9.968564  11.029016
    27  H    3.972356   6.868853   8.028316   9.362395  10.542999
    28  H    2.147201   5.081945   5.829957   7.123706   8.521027
    29  H    1.087346   2.856507   3.404413   5.036624   6.781081
                   21         22         23         24         25
    21  H    0.000000
    22  H    2.422463   0.000000
    23  H    4.676425   2.463364   0.000000
    24  H    8.028304   5.829947   3.404408   0.000000
    25  H    9.362398   7.123695   5.036619   2.461547   0.000000
    26  H   10.542998   8.520999   6.781065   4.675568   2.422484
    27  H   10.252451   8.499239   7.000089   5.399163   3.622097
    28  H    8.499270   7.057676   5.751322   4.966825   4.302791
    29  H    7.000105   5.751320   4.398525   4.322799   4.965703
                   26         27         28         29
    26  H    0.000000
    27  H    1.685002   0.000000
    28  H    3.621821   2.422462   0.000000
    29  H    5.398782   4.676435   2.463368   0.000000
 Stoichiometry    C12H12N2O2S
 Framework group  C1[X(C12H12N2O2S)]
 Deg. of freedom    81
 Full point group                 C1      NOp   1
 Largest Abelian subgroup         C1      NOp   1
 Largest concise Abelian subgroup C1      NOp   1
                         Standard orientation:                         
 ---------------------------------------------------------------------
 Center     Atomic      Atomic             Coordinates (Angstroms)
 Number     Number       Type             X           Y           Z
 ---------------------------------------------------------------------
      1          8           0        0.005365    2.308700   -1.261035
      2         16           0       -0.000001    1.589228   -0.000003
      3          6           0       -1.425416    0.528194   -0.034004
      4          6           0       -2.310710    0.508399    1.044171
      5          6           0       -3.418626   -0.342022    1.004150
      6          6           0       -3.674070   -1.134368   -0.120148
      7          7           0       -4.714543   -2.069319   -0.098865
      8          6           0       -2.749325   -1.136134   -1.169804
      9          6           0       -1.637259   -0.290986   -1.144610
     10          6           0        1.425420    0.528200    0.034010
     11          6           0        2.310712    0.508401   -1.044167
     12          6           0        3.418628   -0.342019   -1.004147
     13          6           0        3.674073   -1.134364    0.120153
     14          7           0        4.714533   -2.069328    0.098860
     15          6           0        2.749331   -1.136122    1.169812
     16          6           0        1.637264   -0.290975    1.144619
     17          8           0       -0.005370    2.308718    1.261019
     18          1           0       -2.146335    1.134650    1.918024
     19          1           0       -4.087095   -0.378424    1.860937
     20          1           0       -5.491797   -1.807801    0.500008
     21          1           0       -5.023686   -2.363706   -1.020210
     22          1           0       -2.892210   -1.796332   -2.021819
     23          1           0       -0.947136   -0.285211   -1.984860
     24          1           0        2.146330    1.134644   -1.918026
     25          1           0        4.087095   -0.378427   -1.860936
     26          1           0        5.491788   -1.807820   -0.500016
     27          1           0        5.023675   -2.363738    1.020200
     28          1           0        2.892224   -1.796313    2.021832
     29          1           0        0.947141   -0.285197    1.984868
 ---------------------------------------------------------------------
 Rotational constants (GHZ):           0.7464356           0.2499106           0.2196717
 Standard basis: 6-31G(d,p) (6D, 7F)
 There are   319 symmetry adapted cartesian basis functions of A   symmetry.
 There are   319 symmetry adapted basis functions of A   symmetry.
   319 basis functions,   584 primitive gaussians,   319 cartesian basis functions
    65 alpha electrons       65 beta electrons
       nuclear repulsion energy      1298.7025075516 Hartrees.
 NAtoms=   29 NActive=   29 NUniq=   29 SFac= 1.00D+00 NAtFMM=   60 NAOKFM=F Big=F
 Integral buffers will be    131072 words long.
 Raffenetti 2 integral format.
 Two-electron integral symmetry is turned on.
 Force inversion solution in PCM.
 ------------------------------------------------------------------------------
 Polarizable Continuum Model (PCM)
 =================================
 Model                : PCM.
 Atomic radii         : UFF (Universal Force Field).
 Polarization charges : Total charges.
 Charge compensation  : None.
 Solution method      : Matrix inversion.
 Cavity type          : Scaled VdW (van der Waals Surface) (Alpha=1.100).
 Cavity algorithm     : GePol (No added spheres)
                        Default sphere list used, NSphG=   29.
                        Lebedev-Laikov grids with approx.  5.0 points / Ang**2.
                        Smoothing algorithm: York/Karplus (Gamma=1.0000).
                        Polarization charges: spherical gaussians, with
                                              point-specific exponents (IZeta= 3).
                        Self-potential: point-specific (ISelfS= 7).
                        Self-field    : sphere-specific E.n sum rule (ISelfD= 2).
 1st derivatives      : Analytical E(r).r(x)/FMM algorithm (CHGder, D1EAlg=3).
                        Cavity 1st derivative terms included.
 2nd derivatives      : Analytical E(r).r(xy)/FMM algorithm (CHGder, D2EAlg=3).
                        Cavity 2nd derivative terms included.
 Solvent              : Water, Eps=  78.355300 Eps(inf)=   1.777849
 ------------------------------------------------------------------------------
 One-electron integrals computed using PRISM.
 NBasis=   319 RedAO= T EigKep=  4.63D-04  NBF=   319
 NBsUse=   319 1.00D-06 EigRej= -1.00D+00 NBFU=   319
 ExpMin= 1.17D-01 ExpMax= 2.19D+04 ExpMxC= 3.30D+03 IAcc=3 IRadAn=         5 AccDes= 0.00D+00
 Harris functional with IExCor=  402 and IRadAn=       5 diagonalized for initial guess.
 HarFok:  IExCor=  402 AccDes= 0.00D+00 IRadAn=         5 IDoV= 1 UseB2=F ITyADJ=14
 ICtDFT=  3500011 ScaDFX=  1.000000  1.000000  1.000000  1.000000
 FoFCou: FMM=F IPFlag=           0 FMFlag=      100000 FMFlg1=           0
         NFxFlg=           0 DoJE=T BraDBF=F KetDBF=T FulRan=T
         wScrn=  0.000000 ICntrl=       500 IOpCl=  0 I1Cent=   200000004 NGrid=           0
         NMat0=    1 NMatS0=      1 NMatT0=    0 NMatD0=    1 NMtDS0=    0 NMtDT0=    0
 Petite list used in FoFCou.
 Requested convergence on RMS density matrix=1.00D-08 within  32 cycles.
 Requested convergence on MAX density matrix=1.00D-06.
 Requested convergence on             energy=1.00D-06.
 No special actions if energy rises.
 Inv3:  Mode=1 IEnd=    16161123.
 Iteration    1 A*A^-1 deviation from unit magnitude is 3.33D-15 for   1870.
 Iteration    1 A*A^-1 deviation from orthogonality  is 2.66D-15 for   2144   2006.
 Iteration    1 A^-1*A deviation from unit magnitude is 3.11D-15 for   1815.
 Iteration    1 A^-1*A deviation from orthogonality  is 2.80D-15 for   1801   1596.
 Error on total polarization charges =  0.00831
 SCF Done:  E(RB3LYP) =  -1122.62357668     A.U. after   12 cycles
            NFock= 12  Conv=0.74D-08     -V/T= 2.0074
 QCSCF skips out because SCF is already converged.
 DoSCS=F DFT=T ScalE2(SS,OS)=  1.000000  1.000000
 Range of M.O.s used for correlation:     1   319
 NBasis=   319 NAE=    65 NBE=    65 NFC=     0 NFV=     0
 NROrb=    319 NOA=    65 NOB=    65 NVA=   254 NVB=   254
 Symmetrizing basis deriv contribution to polar:
 IMax=3 JMax=2 DiffMx= 0.00D+00
 G2DrvN: will do    30 centers at a time, making    1 passes.
 Calling FoFCou, ICntrl=  3107 FMM=F I1Cent=   0 AccDes= 0.00D+00.
 NEqPCM:  Using equilibrium solvation (IEInf=0, Eps=  78.3553, EpsInf=   1.7778)
 G2PCM: DoFxE=T DoFxN=T DoGrad=T DoDP/DQ/DG/TGxP=FFFF NFrqRd=   0 IEInf=0 SqF1=F DoCFld=F IF1Alg=4.
 End of G2Drv F.D. properties file   721 does not exist.
 End of G2Drv F.D. properties file   722 does not exist.
 End of G2Drv F.D. properties file   788 does not exist.
          IDoAtm=11111111111111111111111111111
 NEqPCM:  Using equilibrium solvation (IEInf=0, Eps=  78.3553, EpsInf=   1.7778)
          Differentiating once with respect to nuclear coordinates.
 CalDSu exits because no D1Ps are significant.
          There are    90 degrees of freedom in the 1st order CPHF.  IDoFFX=6 NUNeed=     0.
     84 vectors produced by pass  0 Test12= 1.83D-14 1.11D-09 XBig12= 1.65D-01 1.30D-01.
 AX will form    84 AO Fock derivatives at one time.
     84 vectors produced by pass  1 Test12= 1.83D-14 1.11D-09 XBig12= 3.07D-02 4.21D-02.
     84 vectors produced by pass  2 Test12= 1.83D-14 1.11D-09 XBig12= 3.98D-04 3.52D-03.
     84 vectors produced by pass  3 Test12= 1.83D-14 1.11D-09 XBig12= 2.44D-06 2.29D-04.
     84 vectors produced by pass  4 Test12= 1.83D-14 1.11D-09 XBig12= 6.56D-09 9.25D-06.
     68 vectors produced by pass  5 Test12= 1.83D-14 1.11D-09 XBig12= 8.72D-12 3.02D-07.
     17 vectors produced by pass  6 Test12= 1.83D-14 1.11D-09 XBig12= 8.05D-15 1.02D-08.
      1 vectors produced by pass  7 Test12= 1.83D-14 1.11D-09 XBig12= 1.46D-16 1.31D-09.
 InvSVY:  IOpt=1 It=  1 EMax= 3.33D-16
 Solved reduced A of dimension   506 with    90 vectors.
 End of Minotr F.D. properties file   721 does not exist.
 End of Minotr F.D. properties file   722 does not exist.
 End of Minotr F.D. properties file   788 does not exist.

 **********************************************************************

            Population analysis using the SCF density.

 **********************************************************************

 Orbital symmetries:
       Occupied  (A) (A) (A) (A) (A) (A) (A) (A) (A) (A) (A) (A)
                 (A) (A) (A) (A) (A) (A) (A) (A) (A) (A) (A) (A)
                 (A) (A) (A) (A) (A) (A) (A) (A) (A) (A) (A) (A)
                 (A) (A) (A) (A) (A) (A) (A) (A) (A) (A) (A) (A)
                 (A) (A) (A) (A) (A) (A) (A) (A) (A) (A) (A) (A)
                 (A) (A) (A) (A) (A)
       Virtual   (A) (A) (A) (A) (A) (A) (A) (A) (A) (A) (A) (A)
                 (A) (A) (A) (A) (A) (A) (A) (A) (A) (A) (A) (A)
                 (A) (A) (A) (A) (A) (A) (A) (A) (A) (A) (A) (A)
                 (A) (A) (A) (A) (A) (A) (A) (A) (A) (A) (A) (A)
                 (A) (A) (A) (A) (A) (A) (A) (A) (A) (A) (A) (A)
                 (A) (A) (A) (A) (A) (A) (A) (A) (A) (A) (A) (A)
                 (A) (A) (A) (A) (A) (A) (A) (A) (A) (A) (A) (A)
                 (A) (A) (A) (A) (A) (A) (A) (A) (A) (A) (A) (A)
                 (A) (A) (A) (A) (A) (A) (A) (A) (A) (A) (A) (A)
                 (A) (A) (A) (A) (A) (A) (A) (A) (A) (A) (A) (A)
                 (A) (A) (A) (A) (A) (A) (A) (A) (A) (A) (A) (A)
                 (A) (A) (A) (A) (A) (A) (A) (A) (A) (A) (A) (A)
                 (A) (A) (A) (A) (A) (A) (A) (A) (A) (A) (A) (A)
                 (A) (A) (A) (A) (A) (A) (A) (A) (A) (A) (A) (A)
                 (A) (A) (A) (A) (A) (A) (A) (A) (A) (A) (A) (A)
                 (A) (A) (A) (A) (A) (A) (A) (A) (A) (A) (A) (A)
                 (A) (A) (A) (A) (A) (A) (A) (A) (A) (A) (A) (A)
                 (A) (A) (A) (A) (A) (A) (A) (A) (A) (A) (A) (A)
                 (A) (A) (A) (A) (A) (A) (A) (A) (A) (A) (A) (A)
                 (A) (A) (A) (A) (A) (A) (A) (A) (A) (A) (A) (A)
                 (A) (A) (A) (A) (A) (A) (A) (A) (A) (A) (A) (A)
                 (A) (A)
 The electronic state is 1-A.
 Alpha  occ. eigenvalues --  -89.09366 -19.14033 -19.14032 -14.34743 -14.34743
 Alpha  occ. eigenvalues --  -10.24284 -10.24284 -10.21413 -10.21413 -10.21066
 Alpha  occ. eigenvalues --  -10.21066 -10.20915 -10.20915 -10.19723 -10.19723
 Alpha  occ. eigenvalues --  -10.19597 -10.19597  -8.12262  -6.08733  -6.08637
 Alpha  occ. eigenvalues --   -6.08544  -1.11193  -1.00702  -0.92543  -0.92535
 Alpha  occ. eigenvalues --   -0.85964  -0.85355  -0.77070  -0.75882  -0.75811
 Alpha  occ. eigenvalues --   -0.74484  -0.67013  -0.62982  -0.62714  -0.61624
 Alpha  occ. eigenvalues --   -0.57947  -0.54617  -0.52793  -0.51744  -0.51472
 Alpha  occ. eigenvalues --   -0.50660  -0.48667  -0.46035  -0.45317  -0.45220
 Alpha  occ. eigenvalues --   -0.44276  -0.43524  -0.42782  -0.42772  -0.40927
 Alpha  occ. eigenvalues --   -0.40244  -0.39222  -0.39213  -0.35785  -0.35717
 Alpha  occ. eigenvalues --   -0.34162  -0.33397  -0.32489  -0.31821  -0.30443
 Alpha  occ. eigenvalues --   -0.29109  -0.26425  -0.26337  -0.22838  -0.21522
 Alpha virt. eigenvalues --   -0.02911  -0.01949  -0.01512  -0.00311   0.07132
 Alpha virt. eigenvalues --    0.08591   0.09243   0.09968   0.10055   0.10892
 Alpha virt. eigenvalues --    0.12453   0.12774   0.13443   0.14339   0.15929
 Alpha virt. eigenvalues --    0.16445   0.17233   0.17632   0.17823   0.18553
 Alpha virt. eigenvalues --    0.20594   0.20668   0.23478   0.24733   0.28401
 Alpha virt. eigenvalues --    0.30207   0.30575   0.30817   0.32523   0.33216
 Alpha virt. eigenvalues --    0.33991   0.34410   0.35164   0.36534   0.42204
 Alpha virt. eigenvalues --    0.42687   0.46636   0.50948   0.51838   0.52520
 Alpha virt. eigenvalues --    0.52649   0.54074   0.54557   0.54659   0.55172
 Alpha virt. eigenvalues --    0.56985   0.57933   0.57981   0.58629   0.58730
 Alpha virt. eigenvalues --    0.58731   0.59321   0.60290   0.60588   0.61765
 Alpha virt. eigenvalues --    0.61886   0.62903   0.63691   0.65033   0.65731
 Alpha virt. eigenvalues --    0.68792   0.68860   0.70105   0.71362   0.73628
 Alpha virt. eigenvalues --    0.75088   0.76286   0.76405   0.76822   0.80134
 Alpha virt. eigenvalues --    0.80551   0.80716   0.81662   0.82867   0.83454
 Alpha virt. eigenvalues --    0.83777   0.84154   0.85134   0.85316   0.86304
 Alpha virt. eigenvalues --    0.87373   0.87664   0.88610   0.89061   0.89632
 Alpha virt. eigenvalues --    0.91066   0.93010   0.93699   0.93948   0.98551
 Alpha virt. eigenvalues --    0.99230   0.99616   0.99901   1.01071   1.02755
 Alpha virt. eigenvalues --    1.03394   1.05081   1.06042   1.09152   1.10453
 Alpha virt. eigenvalues --    1.13679   1.13973   1.14830   1.15370   1.16282
 Alpha virt. eigenvalues --    1.17658   1.19623   1.20954   1.23197   1.25865
 Alpha virt. eigenvalues --    1.26491   1.27701   1.27937   1.29534   1.31217
 Alpha virt. eigenvalues --    1.35693   1.35932   1.37720   1.38590   1.39261
 Alpha virt. eigenvalues --    1.39863   1.40689   1.41633   1.43380   1.46259
 Alpha virt. eigenvalues --    1.49458   1.49631   1.51236   1.57850   1.62663
 Alpha virt. eigenvalues --    1.71250   1.73295   1.73449   1.75359   1.75700
 Alpha virt. eigenvalues --    1.76504   1.77914   1.79425   1.80159   1.81038
 Alpha virt. eigenvalues --    1.81874   1.82635   1.85002   1.85418   1.86348
 Alpha virt. eigenvalues --    1.87790   1.88986   1.91211   1.91747   1.92706
 Alpha virt. eigenvalues --    1.94488   1.94650   1.96124   1.96320   1.96891
 Alpha virt. eigenvalues --    1.97865   1.98982   2.02325   2.04096   2.04503
 Alpha virt. eigenvalues --    2.05404   2.07302   2.07774   2.11065   2.11690
 Alpha virt. eigenvalues --    2.12230   2.13632   2.16160   2.16319   2.18738
 Alpha virt. eigenvalues --    2.22991   2.23490   2.25611   2.25910   2.29043
 Alpha virt. eigenvalues --    2.29594   2.29805   2.32514   2.32646   2.34354
 Alpha virt. eigenvalues --    2.34358   2.40162   2.40293   2.41031   2.41121
 Alpha virt. eigenvalues --    2.45031   2.45564   2.45648   2.46647   2.46939
 Alpha virt. eigenvalues --    2.47516   2.48426   2.48465   2.52098   2.52607
 Alpha virt. eigenvalues --    2.54591   2.56636   2.57928   2.58529   2.58529
 Alpha virt. eigenvalues --    2.59930   2.64308   2.64937   2.68127   2.68319
 Alpha virt. eigenvalues --    2.72562   2.73094   2.74569   2.75345   2.77356
 Alpha virt. eigenvalues --    2.78926   2.79104   2.84456   2.85290   2.88650
 Alpha virt. eigenvalues --    2.97434   2.97543   2.98991   2.99533   3.04863
 Alpha virt. eigenvalues --    3.04991   3.17457   3.17701   3.23937   3.24157
 Alpha virt. eigenvalues --    3.27253   3.27394   3.27424   3.27616   3.35292
 Alpha virt. eigenvalues --    3.35750   3.47538   3.47691   3.52437   3.52543
 Alpha virt. eigenvalues --    3.76519   3.79614   3.88261   4.02624   4.03254
 Alpha virt. eigenvalues --    4.07293   4.10211   4.12518   4.12942   4.14539
 Alpha virt. eigenvalues --    4.15397   4.20731   4.21027   4.40179   4.42150
 Alpha virt. eigenvalues --    4.43931   4.44729   4.78431   4.78856
          Condensed to atoms (all electrons):
               1          2          3          4          5          6
     1  O    8.286746   0.445103  -0.068374  -0.000439  -0.000043  -0.000016
     2  S    0.445103  13.765058   0.181246  -0.025714   0.002442  -0.000392
     3  C   -0.068374   0.181246   5.451576   0.502989  -0.045659  -0.036266
     4  C   -0.000439  -0.025714   0.502989   4.845367   0.505040  -0.016192
     5  C   -0.000043   0.002442  -0.045659   0.505040   4.954838   0.526406
     6  C   -0.000016  -0.000392  -0.036266  -0.016192   0.526406   4.568267
     7  N   -0.000000   0.000003   0.000454   0.004469  -0.069975   0.308529
     8  C    0.000394   0.001612  -0.043046  -0.039518  -0.051456   0.525158
     9  C    0.003634  -0.020896   0.468378  -0.026642  -0.038291  -0.015809
    10  C   -0.064628   0.181246  -0.070091  -0.000399  -0.000158   0.000022
    11  C    0.003501  -0.025714  -0.000399  -0.000069   0.000002   0.000001
    12  C    0.000521   0.002442  -0.000158   0.000002  -0.000000   0.000000
    13  C   -0.000006  -0.000392   0.000022   0.000001   0.000000  -0.000000
    14  N    0.000000   0.000003   0.000000  -0.000000   0.000000   0.000000
    15  C   -0.000042   0.001612  -0.000203   0.000016   0.000001   0.000000
    16  C    0.001615  -0.020896  -0.003444   0.000078  -0.000018   0.000007
    17  O   -0.042970   0.445104  -0.064628   0.003501   0.000521  -0.000006
    18  H    0.000041  -0.004523  -0.046444   0.372542  -0.031478   0.003770
    19  H    0.000000  -0.000039   0.005039  -0.035110   0.370518  -0.042910
    20  H   -0.000000  -0.000000   0.000003  -0.000071  -0.009037  -0.023833
    21  H    0.000000  -0.000000  -0.000000  -0.000183   0.005389  -0.023880
    22  H    0.000002  -0.000040   0.005090   0.000509   0.004985  -0.042340
    23  H    0.002685  -0.000065  -0.050434   0.004199   0.000591   0.003568
    24  H    0.010097  -0.004523   0.000248  -0.000004   0.000000   0.000000
    25  H    0.000002  -0.000039   0.000001  -0.000000   0.000000  -0.000000
    26  H    0.000000  -0.000000   0.000000   0.000000   0.000000  -0.000000
    27  H    0.000000  -0.000000   0.000000   0.000000   0.000000  -0.000000
    28  H    0.000000  -0.000040   0.000001  -0.000001  -0.000000   0.000000
    29  H    0.000050  -0.000065   0.001035   0.000801   0.000071  -0.000004
               7          8          9         10         11         12
     1  O   -0.000000   0.000394   0.003634  -0.064628   0.003501   0.000521
     2  S    0.000003   0.001612  -0.020896   0.181246  -0.025714   0.002442
     3  C    0.000454  -0.043046   0.468378  -0.070091  -0.000399  -0.000158
     4  C    0.004469  -0.039518  -0.026642  -0.000399  -0.000069   0.000002
     5  C   -0.069975  -0.051456  -0.038291  -0.000158   0.000002  -0.000000
     6  C    0.308529   0.525158  -0.015809   0.000022   0.000001   0.000000
     7  N    6.806484  -0.069780   0.004694   0.000000  -0.000000   0.000000
     8  C   -0.069780   4.940492   0.517324  -0.000203   0.000016   0.000001
     9  C    0.004694   0.517324   4.860262  -0.003444   0.000078  -0.000018
    10  C    0.000000  -0.000203  -0.003444   5.451576   0.502989  -0.045659
    11  C   -0.000000   0.000016   0.000078   0.502989   4.845367   0.505041
    12  C    0.000000   0.000001  -0.000018  -0.045659   0.505041   4.954838
    13  C    0.000000   0.000000   0.000007  -0.036266  -0.016192   0.526404
    14  N   -0.000000  -0.000000  -0.000000   0.000454   0.004469  -0.069975
    15  C   -0.000000  -0.000002  -0.000033  -0.043046  -0.039518  -0.051457
    16  C   -0.000000  -0.000033  -0.000047   0.468378  -0.026642  -0.038291
    17  O    0.000000  -0.000042   0.001615  -0.068374  -0.000439  -0.000043
    18  H   -0.000100   0.000492   0.004427   0.000248  -0.000004   0.000000
    19  H   -0.007252   0.005012   0.000497   0.000001  -0.000000   0.000000
    20  H    0.343829   0.005385  -0.000179   0.000000   0.000000   0.000000
    21  H    0.343735  -0.009015  -0.000038   0.000000   0.000000   0.000000
    22  H   -0.007204   0.369797  -0.034726   0.000001  -0.000001  -0.000000
    23  H   -0.000103  -0.028322   0.371789   0.001035   0.000801   0.000071
    24  H    0.000000   0.000004  -0.000062  -0.046444   0.372542  -0.031478
    25  H    0.000000   0.000000   0.000000   0.005039  -0.035110   0.370518
    26  H    0.000000   0.000000   0.000000   0.000003  -0.000071  -0.009037
    27  H    0.000000   0.000000   0.000000  -0.000000  -0.000183   0.005389
    28  H    0.000000   0.000000   0.000000   0.005090   0.000509   0.004985
    29  H   -0.000000  -0.000011   0.000033  -0.050434   0.004199   0.000591
              13         14         15         16         17         18
     1  O   -0.000006   0.000000  -0.000042   0.001615  -0.042970   0.000041
     2  S   -0.000392   0.000003   0.001612  -0.020896   0.445104  -0.004523
     3  C    0.000022   0.000000  -0.000203  -0.003444  -0.064628  -0.046444
     4  C    0.000001  -0.000000   0.000016   0.000078   0.003501   0.372542
     5  C    0.000000   0.000000   0.000001  -0.000018   0.000521  -0.031478
     6  C   -0.000000   0.000000   0.000000   0.000007  -0.000006   0.003770
     7  N    0.000000  -0.000000  -0.000000  -0.000000   0.000000  -0.000100
     8  C    0.000000  -0.000000  -0.000002  -0.000033  -0.000042   0.000492
     9  C    0.000007  -0.000000  -0.000033  -0.000047   0.001615   0.004427
    10  C   -0.036266   0.000454  -0.043046   0.468378  -0.068374   0.000248
    11  C   -0.016192   0.004469  -0.039518  -0.026642  -0.000439  -0.000004
    12  C    0.526404  -0.069975  -0.051457  -0.038291  -0.000043   0.000000
    13  C    4.568267   0.308530   0.525159  -0.015809  -0.000016   0.000000
    14  N    0.308530   6.806484  -0.069780   0.004694  -0.000000   0.000000
    15  C    0.525159  -0.069780   4.940492   0.517324   0.000394   0.000004
    16  C   -0.015809   0.004694   0.517324   4.860262   0.003634  -0.000062
    17  O   -0.000016  -0.000000   0.000394   0.003634   8.286744   0.010096
    18  H    0.000000   0.000000   0.000004  -0.000062   0.010096   0.568131
    19  H   -0.000000   0.000000   0.000000   0.000000   0.000002  -0.006032
    20  H   -0.000000   0.000000   0.000000   0.000000   0.000000  -0.000004
    21  H   -0.000000   0.000000   0.000000   0.000000   0.000000   0.000003
    22  H    0.000000   0.000000   0.000000   0.000000   0.000000   0.000013
    23  H   -0.000004  -0.000000  -0.000011   0.000033   0.000050  -0.000154
    24  H    0.003770  -0.000100   0.000492   0.004427   0.000041  -0.000000
    25  H   -0.042910  -0.007252   0.005012   0.000497   0.000000  -0.000000
    26  H   -0.023833   0.343829   0.005385  -0.000179  -0.000000  -0.000000
    27  H   -0.023880   0.343735  -0.009015  -0.000038   0.000000   0.000000
    28  H   -0.042340  -0.007204   0.369797  -0.034726   0.000002  -0.000000
    29  H    0.003568  -0.000103  -0.028322   0.371790   0.002685   0.000111
              19         20         21         22         23         24
     1  O    0.000000  -0.000000   0.000000   0.000002   0.002685   0.010097
     2  S   -0.000039  -0.000000  -0.000000  -0.000040  -0.000065  -0.004523
     3  C    0.005039   0.000003  -0.000000   0.005090  -0.050434   0.000248
     4  C   -0.035110  -0.000071  -0.000183   0.000509   0.004199  -0.000004
     5  C    0.370518  -0.009037   0.005389   0.004985   0.000591   0.000000
     6  C   -0.042910  -0.023833  -0.023880  -0.042340   0.003568   0.000000
     7  N   -0.007252   0.343829   0.343735  -0.007204  -0.000103   0.000000
     8  C    0.005012   0.005385  -0.009015   0.369797  -0.028322   0.000004
     9  C    0.000497  -0.000179  -0.000038  -0.034726   0.371789  -0.000062
    10  C    0.000001   0.000000   0.000000   0.000001   0.001035  -0.046444
    11  C   -0.000000   0.000000   0.000000  -0.000001   0.000801   0.372542
    12  C    0.000000   0.000000   0.000000  -0.000000   0.000071  -0.031478
    13  C   -0.000000  -0.000000  -0.000000   0.000000  -0.000004   0.003770
    14  N    0.000000   0.000000   0.000000   0.000000  -0.000000  -0.000100
    15  C    0.000000   0.000000   0.000000   0.000000  -0.000011   0.000492
    16  C    0.000000   0.000000   0.000000   0.000000   0.000033   0.004427
    17  O    0.000002   0.000000   0.000000   0.000000   0.000050   0.000041
    18  H   -0.006032  -0.000004   0.000003   0.000013  -0.000154  -0.000000
    19  H    0.594399   0.004323  -0.000041  -0.000167   0.000014  -0.000000
    20  H    0.004323   0.421041  -0.027610  -0.000041   0.000003  -0.000000
    21  H   -0.000041  -0.027610   0.421337   0.004310  -0.000005   0.000000
    22  H   -0.000167  -0.000041   0.004310   0.592797  -0.006022  -0.000000
    23  H    0.000014   0.000003  -0.000005  -0.006022   0.571480   0.000111
    24  H   -0.000000  -0.000000   0.000000  -0.000000   0.000111   0.568131
    25  H   -0.000000  -0.000000  -0.000000  -0.000000  -0.000001  -0.006032
    26  H   -0.000000  -0.000000  -0.000000  -0.000000  -0.000000  -0.000004
    27  H   -0.000000  -0.000000  -0.000000  -0.000000   0.000000   0.000003
    28  H   -0.000000  -0.000000  -0.000000  -0.000000   0.000000   0.000013
    29  H   -0.000001  -0.000000   0.000000   0.000000  -0.000019  -0.000154
              25         26         27         28         29
     1  O    0.000002   0.000000   0.000000   0.000000   0.000050
     2  S   -0.000039  -0.000000  -0.000000  -0.000040  -0.000065
     3  C    0.000001   0.000000   0.000000   0.000001   0.001035
     4  C   -0.000000   0.000000   0.000000  -0.000001   0.000801
     5  C    0.000000   0.000000   0.000000  -0.000000   0.000071
     6  C   -0.000000  -0.000000  -0.000000   0.000000  -0.000004
     7  N    0.000000   0.000000   0.000000   0.000000  -0.000000
     8  C    0.000000   0.000000   0.000000   0.000000  -0.000011
     9  C    0.000000   0.000000   0.000000   0.000000   0.000033
    10  C    0.005039   0.000003  -0.000000   0.005090  -0.050434
    11  C   -0.035110  -0.000071  -0.000183   0.000509   0.004199
    12  C    0.370518  -0.009037   0.005389   0.004985   0.000591
    13  C   -0.042910  -0.023833  -0.023880  -0.042340   0.003568
    14  N   -0.007252   0.343829   0.343735  -0.007204  -0.000103
    15  C    0.005012   0.005385  -0.009015   0.369797  -0.028322
    16  C    0.000497  -0.000179  -0.000038  -0.034726   0.371790
    17  O    0.000000  -0.000000   0.000000   0.000002   0.002685
    18  H   -0.000000  -0.000000   0.000000  -0.000000   0.000111
    19  H   -0.000000  -0.000000  -0.000000  -0.000000  -0.000001
    20  H   -0.000000  -0.000000  -0.000000  -0.000000  -0.000000
    21  H   -0.000000  -0.000000  -0.000000  -0.000000   0.000000
    22  H   -0.000000  -0.000000  -0.000000  -0.000000   0.000000
    23  H   -0.000001  -0.000000   0.000000   0.000000  -0.000019
    24  H   -0.006032  -0.000004   0.000003   0.000013  -0.000154
    25  H    0.594399   0.004323  -0.000041  -0.000167   0.000014
    26  H    0.004323   0.421040  -0.027610  -0.000041   0.000003
    27  H   -0.000041  -0.027610   0.421337   0.004310  -0.000005
    28  H   -0.000167  -0.000041   0.004310   0.592798  -0.006022
    29  H    0.000014   0.000003  -0.000005  -0.006022   0.571479
 Mulliken charges:
               1
     1  O   -0.577872
     2  S    1.077472
     3  C   -0.186935
     4  C   -0.095171
     5  C   -0.124688
     6  C    0.265920
     7  N   -0.657784
     8  C   -0.124256
     9  C   -0.092554
    10  C   -0.186935
    11  C   -0.095171
    12  C   -0.124688
    13  C    0.265921
    14  N   -0.657783
    15  C   -0.124258
    16  C   -0.092554
    17  O   -0.577871
    18  H    0.128920
    19  H    0.111746
    20  H    0.286192
    21  H    0.285998
    22  H    0.113037
    23  H    0.128710
    24  H    0.128920
    25  H    0.111746
    26  H    0.286192
    27  H    0.285998
    28  H    0.113037
    29  H    0.128710
 Sum of Mulliken charges =  -0.00000
 Mulliken charges with hydrogens summed into heavy atoms:
               1
     1  O   -0.577872
     2  S    1.077472
     3  C   -0.186935
     4  C    0.033749
     5  C   -0.012942
     6  C    0.265920
     7  N   -0.085594
     8  C   -0.011219
     9  C    0.036156
    10  C   -0.186935
    11  C    0.033749
    12  C   -0.012942
    13  C    0.265921
    14  N   -0.085593
    15  C   -0.011221
    16  C    0.036156
    17  O   -0.577871
 APT charges:
               1
     1  O   -0.172655
     2  S    0.023357
     3  C   -0.398352
     4  C   -0.579811
     5  C   -0.422148
     6  C    0.251594
     7  N   -1.562619
     8  C   -0.404903
     9  C   -0.662315
    10  C   -0.398350
    11  C   -0.579813
    12  C   -0.422143
    13  C    0.251595
    14  N   -1.562632
    15  C   -0.404913
    16  C   -0.662313
    17  O   -0.172651
    18  H    0.451175
    19  H    0.740213
    20  H    1.015261
    21  H    0.851464
    22  H    0.590867
    23  H    0.290547
    24  H    0.451172
    25  H    0.740213
    26  H    1.015265
    27  H    0.851474
    28  H    0.590871
    29  H    0.290547
 Sum of APT charges =  -0.00000
 APT charges with hydrogens summed into heavy atoms:
               1
     1  O   -0.172655
     2  S    0.023357
     3  C   -0.398352
     4  C   -0.128635
     5  C    0.318064
     6  C    0.251594
     7  N    0.304106
     8  C    0.185964
     9  C   -0.371768
    10  C   -0.398350
    11  C   -0.128641
    12  C    0.318070
    13  C    0.251595
    14  N    0.304107
    15  C    0.185959
    16  C   -0.371766
    17  O   -0.172651
 Electronic spatial extent (au):  <R**2>=           5072.2561
 Charge=             -0.0000 electrons
 Dipole moment (field-independent basis, Debye):
    X=              0.0000    Y=             -7.7474    Z=              0.0000  Tot=              7.7474
 Quadrupole moment (field-independent basis, Debye-Ang):
   XX=            -45.5488   YY=           -120.7199   ZZ=            -98.1857
   XY=             -0.0004   XZ=              1.3782   YZ=              0.0000
 Traceless Quadrupole moment (field-independent basis, Debye-Ang):
   XX=             42.6027   YY=            -32.5684   ZZ=            -10.0342
   XY=             -0.0004   XZ=              1.3782   YZ=              0.0000
 Octapole moment (field-independent basis, Debye-Ang**2):
  XXX=              0.0002  YYY=            -24.1126  ZZZ=              0.0001  XYY=              0.0015
  XXY=            -97.4273  XXZ=             -0.0005  XZZ=             -0.0001  YZZ=            -23.9229
  YYZ=              0.0000  XYZ=            -32.7344
 Hexadecapole moment (field-independent basis, Debye-Ang**3):
 XXXX=          -2809.5847 YYYY=          -1381.7518 ZZZZ=           -602.1488 XXXY=             -0.0112
 XXXZ=              4.8161 YYYX=             -0.0053 YYYZ=             -0.0009 ZZZX=             -0.8880
 ZZZY=              0.0004 XXYY=           -881.6509 XXZZ=           -753.5226 YYZZ=           -317.5947
 XXYZ=              0.0003 YYXZ=             75.7187 ZZXY=             -0.0002
 N-N= 1.298702507552D+03 E-N=-5.229067696651D+03  KE= 1.114414021594D+03
  Exact polarizability:   0.000   0.000   0.000   0.000   0.000   0.000
 Approx polarizability: 297.929  -0.000 225.241 -39.508   0.000 257.751
 D2PCM: PCM CHGder 2nd derivatives, FixD1E=F FixD2E=F DoIter=F DoCFld=F I1PDM=0
 Calling FoFJK, ICntrl=    100147 FMM=F ISym2X=0 I1Cent= 0 IOpClX= 0 NMat=1 NMatS=1 NMatT=0.
 ***** Axes restored to original set *****
 -------------------------------------------------------------------
 Center     Atomic                   Forces (Hartrees/Bohr)
 Number     Number              X              Y              Z
 -------------------------------------------------------------------
      1        8           0.004190036    0.027959010    0.018845432
      2       16          -0.004317943   -0.001101115   -0.029507216
      3        6           0.002629894   -0.002760913    0.000021200
      4        6          -0.007283114   -0.003740547   -0.004635720
      5        6           0.005789878   -0.005637105    0.012758386
      6        6          -0.006316238   -0.008979617   -0.019448975
      7        7           0.002473798    0.003685282    0.009082894
      8        6           0.010977162    0.012888320    0.005515936
      9        6          -0.009531871    0.001151056   -0.005912277
     10        6          -0.002543189    0.002783789    0.000571314
     11        6           0.005611609    0.003315147   -0.006785702
     12        6          -0.001956912    0.006613990    0.013434878
     13        6           0.000389374    0.007468753   -0.021044410
     14        7           0.000268964   -0.002987473    0.009654026
     15        6          -0.008801575   -0.012334137    0.009351759
     16        6           0.007454905   -0.001680395   -0.008293020
     17        8           0.001676442   -0.026463031    0.021244140
     18        1           0.001301929    0.002768135   -0.001452342
     19        1          -0.000879561    0.001549630    0.000226215
     20        1           0.000234579    0.002523653   -0.002255260
     21        1          -0.000828103   -0.003376468    0.000182202
     22        1          -0.001007915   -0.000558608    0.001054150
     23        1          -0.000445520   -0.001831751   -0.000039541
     24        1          -0.001633120   -0.002853447   -0.000813248
     25        1           0.000923652   -0.001538423    0.000077608
     26        1          -0.000842849   -0.002678707   -0.001903422
     27        1           0.000808915    0.003372845   -0.000308219
     28        1           0.001260886    0.000623615    0.000678105
     29        1           0.000395886    0.001818514   -0.000298893
 -------------------------------------------------------------------
 Cartesian Forces:  Max     0.029507216 RMS     0.008332645
 FormGI is forming the generalized inverse of G from B-inverse, IUseBI=4.

 GradGradGradGradGradGradGradGradGradGradGradGradGradGradGradGradGradGrad
 Berny optimization.
 Internal  Forces:  Max     0.033516167 RMS     0.004762695
 Search for a local minimum.
 Step number   1 out of a maximum of  156
 All quantities printed in internal units (Hartrees-Bohrs-Radians)
 Mixed Optimization -- RFO/linear search
 Second derivative matrix not updated -- analytic derivatives used.
 ITU=  0
     Eigenvalues ---    0.00038   0.00041   0.00653   0.00654   0.01158
     Eigenvalues ---    0.01179   0.01519   0.01533   0.01739   0.01743
     Eigenvalues ---    0.01853   0.01876   0.01948   0.01948   0.02118
     Eigenvalues ---    0.02125   0.02240   0.02245   0.02767   0.02781
     Eigenvalues ---    0.02820   0.02847   0.02966   0.02972   0.10993
     Eigenvalues ---    0.11129   0.11350   0.11458   0.11487   0.11814
     Eigenvalues ---    0.11827   0.12061   0.12638   0.12641   0.13477
     Eigenvalues ---    0.13509   0.15312   0.15331   0.16687   0.16855
     Eigenvalues ---    0.17346   0.17638   0.18237   0.18365   0.18651
     Eigenvalues ---    0.18652   0.19434   0.19596   0.21237   0.21685
     Eigenvalues ---    0.21739   0.24915   0.26575   0.31693   0.31704
     Eigenvalues ---    0.35579   0.35583   0.35758   0.35772   0.35925
     Eigenvalues ---    0.35926   0.36068   0.36072   0.37796   0.37926
     Eigenvalues ---    0.41259   0.41285   0.43970   0.44195   0.45501
     Eigenvalues ---    0.45506   0.45929   0.45930   0.47040   0.47096
     Eigenvalues ---    0.47557   0.47609   0.51358   0.51373   0.66511
     Eigenvalues ---    0.66973
 RFO step:  Lambda=-9.85704651D-03 EMin= 3.82676027D-04
 Linear search not attempted -- first point.
 Iteration  1 RMS(Cart)=  0.04318109 RMS(Int)=  0.00104998
 Iteration  2 RMS(Cart)=  0.00130812 RMS(Int)=  0.00044924
 Iteration  3 RMS(Cart)=  0.00000147 RMS(Int)=  0.00044924
 Iteration  4 RMS(Cart)=  0.00000000 RMS(Int)=  0.00044924
 Variable       Old X    -DE/DX   Delta X   Delta X   Delta X     New X
                                 (Linear)    (Quad)   (Total)
    R1        2.74360   0.03352   0.00000   0.04971   0.04971   2.79331
    R2        3.35859   0.00502   0.00000   0.01026   0.01026   3.36886
    R3        3.35859   0.00502   0.00000   0.01026   0.01026   3.36886
    R4        2.74360   0.03352   0.00000   0.04971   0.04971   2.79331
    R5        2.63656   0.00203   0.00000   0.00510   0.00502   2.64157
    R6        2.63844   0.00418   0.00000   0.00940   0.00932   2.64776
    R7        2.64041  -0.00547   0.00000  -0.01580  -0.01580   2.62461
    R8        2.05523  -0.00255   0.00000  -0.00643  -0.00643   2.04879
    R9        2.64367   0.00801   0.00000   0.02033   0.02040   2.66407
   R10        2.05473  -0.00081   0.00000  -0.00240  -0.00240   2.05233
   R11        2.64371  -0.00571   0.00000  -0.03390  -0.03390   2.60981
   R12        2.64355   0.00955   0.00000   0.02512   0.02520   2.66874
   R13        1.91895  -0.00264   0.00000  -0.00772  -0.00772   1.91122
   R14        1.91889  -0.00262   0.00000  -0.00775  -0.00775   1.91114
   R15        2.63994  -0.00725   0.00000  -0.02033  -0.02033   2.61961
   R16        2.05469  -0.00076   0.00000  -0.00236  -0.00236   2.05232
   R17        2.05479  -0.00175   0.00000  -0.00380  -0.00380   2.05099
   R18        2.63656   0.00203   0.00000   0.00509   0.00501   2.64157
   R19        2.63844   0.00418   0.00000   0.00940   0.00932   2.64776
   R20        2.64041  -0.00547   0.00000  -0.01580  -0.01580   2.62461
   R21        2.05523  -0.00255   0.00000  -0.00644  -0.00644   2.04879
   R22        2.64367   0.00801   0.00000   0.02033   0.02040   2.66407
   R23        2.05473  -0.00081   0.00000  -0.00240  -0.00240   2.05233
   R24        2.64371  -0.00571   0.00000  -0.03390  -0.03390   2.60981
   R25        2.64355   0.00955   0.00000   0.02512   0.02520   2.66875
   R26        1.91895  -0.00264   0.00000  -0.00772  -0.00772   1.91122
   R27        1.91890  -0.00262   0.00000  -0.00776  -0.00776   1.91114
   R28        2.63994  -0.00725   0.00000  -0.02034  -0.02033   2.61961
   R29        2.05469  -0.00076   0.00000  -0.00236  -0.00236   2.05232
   R30        2.05479  -0.00175   0.00000  -0.00380  -0.00380   2.05099
    A1        1.85687   0.00630   0.00000   0.03137   0.03141   1.88829
    A2        1.88546  -0.00176   0.00000  -0.01145  -0.01138   1.87408
    A3        2.10463  -0.00455   0.00000  -0.03072  -0.03060   2.07403
    A4        1.86210  -0.00507   0.00000  -0.00824  -0.00822   1.85388
    A5        1.88547  -0.00176   0.00000  -0.01145  -0.01139   1.87408
    A6        1.85688   0.00630   0.00000   0.03137   0.03141   1.88829
    A7        2.09738  -0.00122   0.00000  -0.00453  -0.00450   2.09288
    A8        2.07965   0.00228   0.00000   0.01208   0.01210   2.09175
    A9        2.10610  -0.00106   0.00000  -0.00738  -0.00756   2.09853
   A10        2.08247   0.00221   0.00000   0.00967   0.00958   2.09204
   A11        2.11395  -0.00330   0.00000  -0.02394  -0.02394   2.09001
   A12        2.08670   0.00109   0.00000   0.01442   0.01442   2.10113
   A13        2.10892  -0.00085   0.00000  -0.00223  -0.00214   2.10678
   A14        2.07749   0.00155   0.00000   0.01308   0.01303   2.09052
   A15        2.09677  -0.00070   0.00000  -0.01084  -0.01089   2.08588
   A16        2.09681   0.00106   0.00000   0.01030   0.00885   2.10565
   A17        2.07491  -0.00150   0.00000  -0.00351  -0.00474   2.07018
   A18        2.09695   0.00100   0.00000   0.00867   0.00721   2.10417
   A19        1.98901   0.00217   0.00000   0.03431   0.03296   2.02197
   A20        1.98927   0.00247   0.00000   0.03589   0.03454   2.02382
   A21        1.95707  -0.00262   0.00000   0.00300   0.00114   1.95821
   A22        2.10822  -0.00093   0.00000  -0.00217  -0.00207   2.10615
   A23        2.09656  -0.00046   0.00000  -0.00987  -0.00992   2.08664
   A24        2.07839   0.00138   0.00000   0.01204   0.01199   2.09038
   A25        2.08298   0.00225   0.00000   0.00953   0.00946   2.09244
   A26        2.11212  -0.00151   0.00000  -0.00967  -0.00966   2.10246
   A27        2.08807  -0.00074   0.00000   0.00020   0.00021   2.08828
   A28        2.09738  -0.00122   0.00000  -0.00452  -0.00450   2.09288
   A29        2.07965   0.00228   0.00000   0.01208   0.01210   2.09175
   A30        2.10610  -0.00106   0.00000  -0.00738  -0.00756   2.09853
   A31        2.08247   0.00221   0.00000   0.00967   0.00958   2.09205
   A32        2.11395  -0.00330   0.00000  -0.02394  -0.02394   2.09001
   A33        2.08670   0.00109   0.00000   0.01442   0.01442   2.10113
   A34        2.10892  -0.00085   0.00000  -0.00223  -0.00214   2.10678
   A35        2.07749   0.00155   0.00000   0.01308   0.01303   2.09052
   A36        2.09677  -0.00070   0.00000  -0.01084  -0.01089   2.08588
   A37        2.09681   0.00106   0.00000   0.01030   0.00885   2.10565
   A38        2.07491  -0.00150   0.00000  -0.00351  -0.00473   2.07018
   A39        2.09696   0.00100   0.00000   0.00867   0.00721   2.10417
   A40        1.98901   0.00217   0.00000   0.03431   0.03296   2.02197
   A41        1.98928   0.00247   0.00000   0.03588   0.03453   2.02382
   A42        1.95708  -0.00262   0.00000   0.00300   0.00114   1.95822
   A43        2.10822  -0.00093   0.00000  -0.00217  -0.00207   2.10615
   A44        2.09655  -0.00046   0.00000  -0.00987  -0.00992   2.08664
   A45        2.07839   0.00138   0.00000   0.01204   0.01199   2.09038
   A46        2.08297   0.00225   0.00000   0.00954   0.00947   2.09244
   A47        2.11212  -0.00151   0.00000  -0.00967  -0.00966   2.10246
   A48        2.08807  -0.00074   0.00000   0.00020   0.00021   2.08828
    D1       -2.27783   0.00009   0.00000  -0.02182  -0.02177  -2.29960
    D2        0.87495  -0.00043   0.00000  -0.04001  -0.04003   0.83492
    D3        1.99561   0.00150   0.00000  -0.01961  -0.01956   1.97605
    D4       -1.13480   0.00099   0.00000  -0.03781  -0.03782  -1.17262
    D5        0.00520  -0.00245   0.00000  -0.04633  -0.04632  -0.04113
    D6       -3.12521  -0.00297   0.00000  -0.06452  -0.06459   3.09339
    D7        0.00520  -0.00245   0.00000  -0.04633  -0.04632  -0.04112
    D8       -3.12520  -0.00297   0.00000  -0.06453  -0.06459   3.09340
    D9        1.99561   0.00150   0.00000  -0.01961  -0.01956   1.97605
   D10       -1.13479   0.00099   0.00000  -0.03781  -0.03782  -1.17261
   D11       -2.27782   0.00009   0.00000  -0.02181  -0.02177  -2.29960
   D12        0.87496  -0.00043   0.00000  -0.04001  -0.04004   0.83492
   D13       -3.13090  -0.00087   0.00000  -0.02029  -0.02014   3.13214
   D14       -0.00152  -0.00024   0.00000  -0.00576  -0.00578  -0.00729
   D15       -0.00067  -0.00032   0.00000  -0.00168  -0.00168  -0.00235
   D16        3.12872   0.00031   0.00000   0.01284   0.01268   3.14140
   D17        3.13075   0.00067   0.00000   0.01761   0.01760  -3.13483
   D18       -0.00364   0.00025   0.00000   0.00686   0.00690   0.00325
   D19        0.00040   0.00015   0.00000  -0.00070  -0.00074  -0.00034
   D20       -3.13399  -0.00027   0.00000  -0.01145  -0.01145   3.13775
   D21       -0.04001   0.00122   0.00000   0.03118   0.03127  -0.00874
   D22        3.10595   0.00116   0.00000   0.02935   0.02944   3.13539
   D23        3.11360   0.00063   0.00000   0.01716   0.01708   3.13068
   D24       -0.02363   0.00057   0.00000   0.01534   0.01525  -0.00838
   D25        3.03935   0.00153   0.00000   0.03910   0.03904   3.07839
   D26        0.07967  -0.00205   0.00000  -0.05776  -0.05765   0.02201
   D27       -0.10666   0.00160   0.00000   0.04101   0.04093  -0.06573
   D28       -3.06634  -0.00198   0.00000  -0.05585  -0.05577  -3.12211
   D29        0.52468  -0.00202   0.00000  -0.08582  -0.08666   0.43803
   D30        2.80158  -0.00137   0.00000  -0.01382  -0.01350   2.78808
   D31       -2.80113   0.00134   0.00000   0.01100   0.01069  -2.79045
   D32       -0.52424   0.00200   0.00000   0.08300   0.08384  -0.44040
   D33       -0.07991   0.00188   0.00000   0.05530   0.05519  -0.02471
   D34        3.06694   0.00195   0.00000   0.05494   0.05482   3.12176
   D35       -3.03957  -0.00171   0.00000  -0.04174  -0.04160  -3.08117
   D36        0.10728  -0.00164   0.00000  -0.04211  -0.04197   0.06531
   D37        0.04053  -0.00091   0.00000  -0.02642  -0.02643   0.01411
   D38       -3.10816  -0.00049   0.00000  -0.01586  -0.01585  -3.12401
   D39       -3.10626  -0.00098   0.00000  -0.02613  -0.02612  -3.13238
   D40        0.02823  -0.00056   0.00000  -0.01557  -0.01554   0.01269
   D41       -3.13089  -0.00087   0.00000  -0.02029  -0.02015   3.13214
   D42       -0.00152  -0.00024   0.00000  -0.00576  -0.00578  -0.00729
   D43       -0.00067  -0.00032   0.00000  -0.00168  -0.00168  -0.00235
   D44        3.12871   0.00031   0.00000   0.01284   0.01269   3.14140
   D45        3.13074   0.00067   0.00000   0.01761   0.01761  -3.13484
   D46       -0.00365   0.00025   0.00000   0.00686   0.00690   0.00325
   D47        0.00040   0.00015   0.00000  -0.00070  -0.00074  -0.00034
   D48       -3.13399  -0.00027   0.00000  -0.01145  -0.01145   3.13775
   D49       -0.04000   0.00122   0.00000   0.03118   0.03126  -0.00874
   D50        3.10595   0.00116   0.00000   0.02936   0.02944   3.13539
   D51        3.11361   0.00063   0.00000   0.01715   0.01707   3.13068
   D52       -0.02362   0.00057   0.00000   0.01533   0.01525  -0.00837
   D53        3.03933   0.00153   0.00000   0.03911   0.03906   3.07838
   D54        0.07966  -0.00205   0.00000  -0.05776  -0.05765   0.02201
   D55       -0.10667   0.00160   0.00000   0.04102   0.04093  -0.06574
   D56       -3.06634  -0.00198   0.00000  -0.05585  -0.05577  -3.12211
   D57        0.52469  -0.00202   0.00000  -0.08582  -0.08666   0.43803
   D58        2.80160  -0.00137   0.00000  -0.01383  -0.01351   2.78809
   D59       -2.80113   0.00134   0.00000   0.01101   0.01069  -2.79045
   D60       -0.52423   0.00200   0.00000   0.08300   0.08384  -0.44039
   D61       -0.07990   0.00188   0.00000   0.05530   0.05519  -0.02471
   D62        3.06695   0.00195   0.00000   0.05493   0.05482   3.12177
   D63       -3.03955  -0.00171   0.00000  -0.04175  -0.04161  -3.08116
   D64        0.10730  -0.00164   0.00000  -0.04212  -0.04198   0.06532
   D65        0.04053  -0.00091   0.00000  -0.02642  -0.02642   0.01410
   D66       -3.10817  -0.00049   0.00000  -0.01586  -0.01584  -3.12401
   D67       -3.10627  -0.00098   0.00000  -0.02612  -0.02612  -3.13238
   D68        0.02823  -0.00056   0.00000  -0.01556  -0.01554   0.01269
         Item               Value     Threshold  Converged?
 Maximum Force            0.033516     0.000450     NO 
 RMS     Force            0.004763     0.000300     NO 
 Maximum Displacement     0.157676     0.001800     NO 
 RMS     Displacement     0.042735     0.001200     NO 
 Predicted change in Energy=-5.531276D-03
 GradGradGradGradGradGradGradGradGradGradGradGradGradGradGradGradGradGrad

                          Input orientation:                          
 ---------------------------------------------------------------------
 Center     Atomic      Atomic             Coordinates (Angstroms)
 Number     Number       Type             X           Y           Z
 ---------------------------------------------------------------------
      1          8           0        0.330888    1.288738    2.692526
      2         16           0        0.290659   -0.009140    1.986247
      3          6           0       -1.272059   -0.132536    1.137257
      4          6           0       -2.040166   -1.294377    1.256196
      5          6           0       -3.262738   -1.385051    0.603437
      6          6           0       -3.745963   -0.311770   -0.172449
      7          7           0       -4.925518   -0.430341   -0.880894
      8          6           0       -2.948624    0.847466   -0.294274
      9          6           0       -1.729832    0.939425    0.359748
     10          6           0        1.543691    0.035284    0.718953
     11          6           0        2.301266    1.194437    0.528023
     12          6           0        3.284891    1.224181   -0.452077
     13          6           0        3.537321    0.092051   -1.253323
     14          7           0        4.463494    0.146015   -2.276357
     15          6           0        2.750887   -1.064404   -1.056976
     16          6           0        1.771258   -1.095378   -0.076659
     17          8           0        0.468071   -1.251519    2.767245
     18          1           0       -1.678244   -2.119114    1.859733
     19          1           0       -3.855679   -2.290621    0.692122
     20          1           0       -5.587300   -1.107479   -0.525352
     21          1           0       -5.371969    0.437612   -1.145717
     22          1           0       -3.297628    1.676133   -0.903370
     23          1           0       -1.138089    1.844594    0.267755
     24          1           0        2.118392    2.064830    1.148030
     25          1           0        3.868713    2.127424   -0.603088
     26          1           0        5.192074    0.840183   -2.175448
     27          1           0        4.824733   -0.743663   -2.593802
     28          1           0        2.919835   -1.938984   -1.678310
     29          1           0        1.187633   -1.998475    0.070821
 ---------------------------------------------------------------------
                    Distance matrix (angstroms):
                    1          2          3          4          5
     1  O    0.000000
     2  S    1.478154   0.000000
     3  C    2.647323   1.782722   0.000000
     4  C    3.789120   2.759992   1.397859   0.000000
     5  C    4.942428   4.053632   2.411755   1.388884   0.000000
     6  C    5.233586   4.587578   2.804934   2.432341   1.409765
     7  N    6.584404   5.967111   4.184422   3.693097   2.424778
     8  C    4.457678   4.053086   2.412583   2.795844   2.426662
     9  C    3.132163   2.761822   1.401135   2.426891   2.795063
    10  C    2.633825   1.782722   2.851594   3.860138   5.013229
    11  C    2.928542   2.759992   3.860139   5.056923   6.133318
    12  C    4.314954   4.053632   5.013228   6.133317   7.126967
    13  C    5.223314   4.587578   5.375449   6.271223   7.202097
    14  N    6.563082   5.967111   6.680338   7.539977   8.386420
    15  C    5.045041   4.053086   4.676231   5.325209   6.246877
    16  C    3.927730   2.761822   3.415030   4.042655   5.087981
    17  O    2.545056   1.478154   2.633825   2.928542   4.314955
    18  H    4.042724   2.888697   2.152545   1.084175   2.151221
    19  H    5.860100   4.906326   3.395669   2.146338   1.086048
    20  H    7.149934   6.485745   4.726108   3.973790   2.599000
    21  H    6.926696   6.486459   4.727188   4.457565   3.290972
    22  H    5.123150   4.905694   3.396818   3.881863   3.412115
    23  H    2.889011   2.903596   2.164030   3.412315   3.880390
    24  H    2.486556   2.888697   4.040259   5.346923   6.415203
    25  H    4.907206   4.906326   5.879095   7.076759   8.040571
    26  H    6.894164   6.485747   7.328384   8.284795   9.173752
    27  H    7.229838   6.486462   7.173921   7.890032   8.720143
    28  H    6.018725   4.905694   5.363082   5.799005   6.613427
    29  H    4.291051   2.903596   3.266359   3.509923   4.523911
                    6          7          8          9         10
     6  C    0.000000
     7  N    1.381052   0.000000
     8  C    1.412239   2.425908   0.000000
     9  C    2.431770   3.691594   1.386238   0.000000
    10  C    5.375452   6.680343   4.676234   3.415033   0.000000
    11  C    6.271228   7.539985   5.325215   4.042660   1.397859
    12  C    7.202100   8.386427   6.246882   5.087985   2.411756
    13  C    7.374116   8.487123   6.599842   5.573414   2.804934
    14  N    8.487118   9.509629   7.704556   6.777597   4.184422
    15  C    6.599841   7.704560   6.059818   5.108745   2.412583
    16  C    5.573414   6.777601   5.108746   4.072898   1.401135
    17  O    5.223314   6.563083   5.045041   3.927729   2.647324
    18  H    3.416389   4.572502   3.879975   3.406946   4.040257
    19  H    2.162261   2.660747   3.412230   3.881095   5.879094
    20  H    2.036718   1.011376   3.292085   4.455703   7.328386
    21  H    2.037823   1.011332   2.601065   3.972834   7.173927
    22  H    2.164949   2.662286   1.086043   2.143872   5.363086
[...]
    38    C    3  S      Ryd( 4S)     0.00007
    39    C    3  px     Val( 2p)     1.08670
    40    C    3  px     Ryd( 3p)     0.00689
    41    C    3  py     Val( 2p)     1.16800
    42    C    3  py     Ryd( 3p)     0.00698
    43    C    3  pz     Val( 2p)     1.10779
    44    C    3  pz     Ryd( 3p)     0.01021
    45    C    3  dxy    Ryd( 3d)     0.00058
    46    C    3  dxz    Ryd( 3d)     0.00057
    47    C    3  dyz    Ryd( 3d)     0.00065
    48    C    3  dx2y2  Ryd( 3d)     0.00073
    49    C    3  dz2    Ryd( 3d)     0.00069

    50    C    4  S      Cor( 1S)     1.99901
    51    C    4  S      Val( 2S)     0.95342
    52    C    4  S      Ryd( 3S)     0.00094
    53    C    4  S      Ryd( 4S)     0.00005
    54    C    4  px     Val( 2p)     1.06718
    55    C    4  px     Ryd( 3p)     0.00453
    56    C    4  py     Val( 2p)     1.03993
    57    C    4  py     Ryd( 3p)     0.00379
    58    C    4  pz     Val( 2p)     1.17403
    59    C    4  pz     Ryd( 3p)     0.00554
    60    C    4  dxy    Ryd( 3d)     0.00041
    61    C    4  dxz    Ryd( 3d)     0.00059
    62    C    4  dyz    Ryd( 3d)     0.00052
    63    C    4  dx2y2  Ryd( 3d)     0.00060
    64    C    4  dz2    Ryd( 3d)     0.00056

    65    C    5  S      Cor( 1S)     1.99906
    66    C    5  S      Val( 2S)     0.96139
    67    C    5  S      Ryd( 3S)     0.00070
    68    C    5  S      Ryd( 4S)     0.00004
    69    C    5  px     Val( 2p)     1.07384
    70    C    5  px     Ryd( 3p)     0.00329
    71    C    5  py     Val( 2p)     1.04323
    72    C    5  py     Ryd( 3p)     0.00210
    73    C    5  pz     Val( 2p)     1.15519
    74    C    5  pz     Ryd( 3p)     0.00453
    75    C    5  dxy    Ryd( 3d)     0.00038
    76    C    5  dxz    Ryd( 3d)     0.00064
    77    C    5  dyz    Ryd( 3d)     0.00052
    78    C    5  dx2y2  Ryd( 3d)     0.00060
    79    C    5  dz2    Ryd( 3d)     0.00054

    80    C    6  S      Cor( 1S)     1.99902
    81    C    6  S      Val( 2S)     0.84601
    82    C    6  S      Ryd( 3S)     0.00132
    83    C    6  S      Ryd( 4S)     0.00010
    84    C    6  px     Val( 2p)     0.94393
    85    C    6  px     Ryd( 3p)     0.00425
    86    C    6  py     Val( 2p)     0.95392
    87    C    6  py     Ryd( 3p)     0.00387
    88    C    6  pz     Val( 2p)     1.09209
    89    C    6  pz     Ryd( 3p)     0.00453
    90    C    6  dxy    Ryd( 3d)     0.00083
    91    C    6  dxz    Ryd( 3d)     0.00080
    92    C    6  dyz    Ryd( 3d)     0.00067
    93    C    6  dx2y2  Ryd( 3d)     0.00150
    94    C    6  dz2    Ryd( 3d)     0.00079

    95    N    7  S      Cor( 1S)     1.99948
    96    N    7  S      Val( 2S)     1.34605
    97    N    7  S      Ryd( 3S)     0.00016
    98    N    7  S      Ryd( 4S)     0.00001
    99    N    7  px     Val( 2p)     1.39275
   100    N    7  px     Ryd( 3p)     0.00258
   101    N    7  py     Val( 2p)     1.58089
   102    N    7  py     Ryd( 3p)     0.00432
   103    N    7  pz     Val( 2p)     1.43073
   104    N    7  pz     Ryd( 3p)     0.00195
   105    N    7  dxy    Ryd( 3d)     0.00062
   106    N    7  dxz    Ryd( 3d)     0.00074
   107    N    7  dyz    Ryd( 3d)     0.00024
   108    N    7  dx2y2  Ryd( 3d)     0.00083
   109    N    7  dz2    Ryd( 3d)     0.00042

   110    C    8  S      Cor( 1S)     1.99906
   111    C    8  S      Val( 2S)     0.96139
   112    C    8  S      Ryd( 3S)     0.00070
   113    C    8  S      Ryd( 4S)     0.00004
   114    C    8  px     Val( 2p)     1.07384
   115    C    8  px     Ryd( 3p)     0.00329
   116    C    8  py     Val( 2p)     1.04323
   117    C    8  py     Ryd( 3p)     0.00210
   118    C    8  pz     Val( 2p)     1.15519
   119    C    8  pz     Ryd( 3p)     0.00453
   120    C    8  dxy    Ryd( 3d)     0.00038
   121    C    8  dxz    Ryd( 3d)     0.00064
   122    C    8  dyz    Ryd( 3d)     0.00052
   123    C    8  dx2y2  Ryd( 3d)     0.00060
   124    C    8  dz2    Ryd( 3d)     0.00054

   125    C    9  S      Cor( 1S)     1.99901
   126    C    9  S      Val( 2S)     0.95342
   127    C    9  S      Ryd( 3S)     0.00094
   128    C    9  S      Ryd( 4S)     0.00005
   129    C    9  px     Val( 2p)     1.06718
   130    C    9  px     Ryd( 3p)     0.00453
   131    C    9  py     Val( 2p)     1.03993
   132    C    9  py     Ryd( 3p)     0.00379
   133    C    9  pz     Val( 2p)     1.17403
   134    C    9  pz     Ryd( 3p)     0.00554
   135    C    9  dxy    Ryd( 3d)     0.00041
   136    C    9  dxz    Ryd( 3d)     0.00059
   137    C    9  dyz    Ryd( 3d)     0.00052
   138    C    9  dx2y2  Ryd( 3d)     0.00060
   139    C    9  dz2    Ryd( 3d)     0.00056

   140    C   10  S      Cor( 1S)     1.99872
   141    C   10  S      Val( 2S)     0.97516
   142    C   10  S      Ryd( 3S)     0.00325
   143    C   10  S      Ryd( 4S)     0.00007
   144    C   10  px     Val( 2p)     1.08670
   145    C   10  px     Ryd( 3p)     0.00689
   146    C   10  py     Val( 2p)     1.16801
   147    C   10  py     Ryd( 3p)     0.00698
   148    C   10  pz     Val( 2p)     1.10779
   149    C   10  pz     Ryd( 3p)     0.01021
   150    C   10  dxy    Ryd( 3d)     0.00058
   151    C   10  dxz    Ryd( 3d)     0.00057
   152    C   10  dyz    Ryd( 3d)     0.00065
   153    C   10  dx2y2  Ryd( 3d)     0.00073
   154    C   10  dz2    Ryd( 3d)     0.00069

   155    C   11  S      Cor( 1S)     1.99901
   156    C   11  S      Val( 2S)     0.95342
   157    C   11  S      Ryd( 3S)     0.00094
   158    C   11  S      Ryd( 4S)     0.00005
   159    C   11  px     Val( 2p)     1.06718
   160    C   11  px     Ryd( 3p)     0.00453
   161    C   11  py     Val( 2p)     1.03993
   162    C   11  py     Ryd( 3p)     0.00379
   163    C   11  pz     Val( 2p)     1.17403
   164    C   11  pz     Ryd( 3p)     0.00554
   165    C   11  dxy    Ryd( 3d)     0.00041
   166    C   11  dxz    Ryd( 3d)     0.00059
   167    C   11  dyz    Ryd( 3d)     0.00052
   168    C   11  dx2y2  Ryd( 3d)     0.00060
   169    C   11  dz2    Ryd( 3d)     0.00056

   170    C   12  S      Cor( 1S)     1.99906
   171    C   12  S      Val( 2S)     0.96139
   172    C   12  S      Ryd( 3S)     0.00070
   173    C   12  S      Ryd( 4S)     0.00004
   174    C   12  px     Val( 2p)     1.07384
   175    C   12  px     Ryd( 3p)     0.00329
   176    C   12  py     Val( 2p)     1.04324
   177    C   12  py     Ryd( 3p)     0.00210
   178    C   12  pz     Val( 2p)     1.15519
   179    C   12  pz     Ryd( 3p)     0.00453
   180    C   12  dxy    Ryd( 3d)     0.00038
   181    C   12  dxz    Ryd( 3d)     0.00064
   182    C   12  dyz    Ryd( 3d)     0.00052
   183    C   12  dx2y2  Ryd( 3d)     0.00060
   184    C   12  dz2    Ryd( 3d)     0.00054

   185    C   13  S      Cor( 1S)     1.99902
   186    C   13  S      Val( 2S)     0.84601
   187    C   13  S      Ryd( 3S)     0.00132
   188    C   13  S      Ryd( 4S)     0.00010
   189    C   13  px     Val( 2p)     0.94393
   190    C   13  px     Ryd( 3p)     0.00425
   191    C   13  py     Val( 2p)     0.95392
   192    C   13  py     Ryd( 3p)     0.00387
   193    C   13  pz     Val( 2p)     1.09209
   194    C   13  pz     Ryd( 3p)     0.00453
   195    C   13  dxy    Ryd( 3d)     0.00083
   196    C   13  dxz    Ryd( 3d)     0.00080
   197    C   13  dyz    Ryd( 3d)     0.00067
   198    C   13  dx2y2  Ryd( 3d)     0.00150
   199    C   13  dz2    Ryd( 3d)     0.00079

   200    N   14  S      Cor( 1S)     1.99948
   201    N   14  S      Val( 2S)     1.34605
   202    N   14  S      Ryd( 3S)     0.00016
   203    N   14  S      Ryd( 4S)     0.00001
   204    N   14  px     Val( 2p)     1.39275
   205    N   14  px     Ryd( 3p)     0.00258
   206    N   14  py     Val( 2p)     1.58089
   207    N   14  py     Ryd( 3p)     0.00432
   208    N   14  pz     Val( 2p)     1.43073
   209    N   14  pz     Ryd( 3p)     0.00195
   210    N   14  dxy    Ryd( 3d)     0.00062
   211    N   14  dxz    Ryd( 3d)     0.00074
   212    N   14  dyz    Ryd( 3d)     0.00024
   213    N   14  dx2y2  Ryd( 3d)     0.00083
   214    N   14  dz2    Ryd( 3d)     0.00042

   215    C   15  S      Cor( 1S)     1.99906
   216    C   15  S      Val( 2S)     0.96139
   217    C   15  S      Ryd( 3S)     0.00070
   218    C   15  S      Ryd( 4S)     0.00004
   219    C   15  px     Val( 2p)     1.07385
   220    C   15  px     Ryd( 3p)     0.00329
   221    C   15  py     Val( 2p)     1.04323
   222    C   15  py     Ryd( 3p)     0.00210
   223    C   15  pz     Val( 2p)     1.15519
   224    C   15  pz     Ryd( 3p)     0.00453
   225    C   15  dxy    Ryd( 3d)     0.00038
   226    C   15  dxz    Ryd( 3d)     0.00064
   227    C   15  dyz    Ryd( 3d)     0.00052
   228    C   15  dx2y2  Ryd( 3d)     0.00060
   229    C   15  dz2    Ryd( 3d)     0.00054

   230    C   16  S      Cor( 1S)     1.99901
   231    C   16  S      Val( 2S)     0.95342
   232    C   16  S      Ryd( 3S)     0.00094
   233    C   16  S      Ryd( 4S)     0.00005
   234    C   16  px     Val( 2p)     1.06718
   235    C   16  px     Ryd( 3p)     0.00453
   236    C   16  py     Val( 2p)     1.03994
   237    C   16  py     Ryd( 3p)     0.00379
   238    C   16  pz     Val( 2p)     1.17403
   239    C   16  pz     Ryd( 3p)     0.00554
   240    C   16  dxy    Ryd( 3d)     0.00041
   241    C   16  dxz    Ryd( 3d)     0.00059
   242    C   16  dyz    Ryd( 3d)     0.00052
   243    C   16  dx2y2  Ryd( 3d)     0.00060
   244    C   16  dz2    Ryd( 3d)     0.00056

   245    O   17  S      Cor( 1S)     1.99989
   246    O   17  S      Val( 2S)     1.82659
   247    O   17  S      Ryd( 3S)     0.00119
   248    O   17  S      Ryd( 4S)     0.00005
   249    O   17  px     Val( 2p)     1.83008
   250    O   17  px     Ryd( 3p)     0.00075
   251    O   17  py     Val( 2p)     1.72927
   252    O   17  py     Ryd( 3p)     0.00071
   253    O   17  pz     Val( 2p)     1.60178
   254    O   17  pz     Ryd( 3p)     0.00067
   255    O   17  dxy    Ryd( 3d)     0.00119
   256    O   17  dxz    Ryd( 3d)     0.00328
   257    O   17  dyz    Ryd( 3d)     0.00438
   258    O   17  dx2y2  Ryd( 3d)     0.00145
   259    O   17  dz2    Ryd( 3d)     0.00470

   260    H   18  S      Val( 1S)     0.73612
   261    H   18  S      Ryd( 2S)     0.00134
   262    H   18  px     Ryd( 2p)     0.00014
   263    H   18  py     Ryd( 2p)     0.00015
   264    H   18  pz     Ryd( 2p)     0.00032

   265    H   19  S      Val( 1S)     0.74535
   266    H   19  S      Ryd( 2S)     0.00090
   267    H   19  px     Ryd( 2p)     0.00013
   268    H   19  py     Ryd( 2p)     0.00012
   269    H   19  pz     Ryd( 2p)     0.00034

   270    H   20  S      Val( 1S)     0.56773
   271    H   20  S      Ryd( 2S)     0.00146
   272    H   20  px     Ryd( 2p)     0.00036
   273    H   20  py     Ryd( 2p)     0.00038
   274    H   20  pz     Ryd( 2p)     0.00046

   275    H   21  S      Val( 1S)     0.56773
   276    H   21  S      Ryd( 2S)     0.00146
   277    H   21  px     Ryd( 2p)     0.00036
   278    H   21  py     Ryd( 2p)     0.00038
   279    H   21  pz     Ryd( 2p)     0.00046

   280    H   22  S      Val( 1S)     0.74535
   281    H   22  S      Ryd( 2S)     0.00090
   282    H   22  px     Ryd( 2p)     0.00013
   283    H   22  py     Ryd( 2p)     0.00012
   284    H   22  pz     Ryd( 2p)     0.00034

   285    H   23  S      Val( 1S)     0.73612
   286    H   23  S      Ryd( 2S)     0.00134
   287    H   23  px     Ryd( 2p)     0.00014
   288    H   23  py     Ryd( 2p)     0.00015
   289    H   23  pz     Ryd( 2p)     0.00032

   290    H   24  S      Val( 1S)     0.73613
   291    H   24  S      Ryd( 2S)     0.00134
   292    H   24  px     Ryd( 2p)     0.00014
   293    H   24  py     Ryd( 2p)     0.00015
   294    H   24  pz     Ryd( 2p)     0.00032

   295    H   25  S      Val( 1S)     0.74535
   296    H   25  S      Ryd( 2S)     0.00090
   297    H   25  px     Ryd( 2p)     0.00013
   298    H   25  py     Ryd( 2p)     0.00012
   299    H   25  pz     Ryd( 2p)     0.00034

   300    H   26  S      Val( 1S)     0.56773
   301    H   26  S      Ryd( 2S)     0.00146
   302    H   26  px     Ryd( 2p)     0.00036
   303    H   26  py     Ryd( 2p)     0.00038
   304    H   26  pz     Ryd( 2p)     0.00046

   305    H   27  S      Val( 1S)     0.56773
   306    H   27  S      Ryd( 2S)     0.00146
   307    H   27  px     Ryd( 2p)     0.00036
   308    H   27  py     Ryd( 2p)     0.00038
   309    H   27  pz     Ryd( 2p)     0.00046

   310    H   28  S      Val( 1S)     0.74535
   311    H   28  S      Ryd( 2S)     0.00090
   312    H   28  px     Ryd( 2p)     0.00013
   313    H   28  py     Ryd( 2p)     0.00012
   314    H   28  pz     Ryd( 2p)     0.00034

   315    H   29  S      Val( 1S)     0.73612
   316    H   29  S      Ryd( 2S)     0.00134
   317    H   29  px     Ryd( 2p)     0.00014
   318    H   29  py     Ryd( 2p)     0.00015
   319    H   29  pz     Ryd( 2p)     0.00032

 WARNING:  1 low occupancy (<1.9990e) core orbital  found on  S    2
           1 low occupancy (<1.9990e) core orbital  found on  C    3
           1 low occupancy (<1.9990e) core orbital  found on  C   10


 Summary of Natural Population Analysis:                  
                                                          
                                       Natural Population 
                Natural  -----------------------------------------------
    Atom  No    Charge         Core      Valence    Rydberg      Total
 -----------------------------------------------------------------------
      O    1   -1.00598      1.99989     6.98772    0.01838     9.00598
      S    2    2.18671      9.99833     3.61045    0.20451    13.81329
      C    3   -0.36700      1.99872     4.33767    0.03061     6.36700
      C    4   -0.25112      1.99901     4.23456    0.01755     6.25112
      C    5   -0.24605      1.99906     4.23365    0.01334     6.24605
      C    6    0.14638      1.99902     3.83595    0.01865     5.85362
      N    7   -0.76178      1.99948     5.75042    0.01188     7.76178
      C    8   -0.24605      1.99906     4.23365    0.01334     6.24605
      C    9   -0.25113      1.99901     4.23457    0.01755     6.25113
      C   10   -0.36700      1.99872     4.33767    0.03061     6.36700
      C   11   -0.25113      1.99901     4.23456    0.01755     6.25113
      C   12   -0.24605      1.99906     4.23365    0.01334     6.24605
      C   13    0.14638      1.99902     3.83595    0.01865     5.85362
      N   14   -0.76178      1.99948     5.75042    0.01188     7.76178
      C   15   -0.24605      1.99906     4.23365    0.01334     6.24605
      C   16   -0.25113      1.99901     4.23456    0.01755     6.25113
      O   17   -1.00598      1.99989     6.98772    0.01838     9.00598
      H   18    0.26192      0.00000     0.73612    0.00195     0.73808
      H   19    0.25316      0.00000     0.74535    0.00149     0.74684
      H   20    0.42960      0.00000     0.56773    0.00266     0.57040
      H   21    0.42960      0.00000     0.56773    0.00266     0.57040
      H   22    0.25316      0.00000     0.74535    0.00149     0.74684
      H   23    0.26192      0.00000     0.73612    0.00195     0.73808
      H   24    0.26192      0.00000     0.73613    0.00195     0.73808
      H   25    0.25316      0.00000     0.74535    0.00149     0.74684
      H   26    0.42960      0.00000     0.56773    0.00266     0.57040
      H   27    0.42960      0.00000     0.56773    0.00266     0.57040
      H   28    0.25316      0.00000     0.74535    0.00149     0.74684
      H   29    0.26192      0.00000     0.73612    0.00195     0.73808
 =======================================================================
   * Total *    0.00000     41.98482    87.50366    0.51151   130.00000

                                 Natural Population      
 --------------------------------------------------------
   Core                      41.98482 ( 99.9639% of  42)
   Valence                   87.50366 ( 99.4360% of  88)
   Natural Minimal Basis    129.48849 ( 99.6065% of 130)
   Natural Rydberg Basis      0.51151 (  0.3935% of 130)
 --------------------------------------------------------

    Atom  No          Natural Electron Configuration
 ----------------------------------------------------------------------------
      O    1      [core]2S( 1.83)2p( 5.16)3d( 0.01)
      S    2      [core]3S( 1.06)3p( 2.55)4S( 0.01)3d( 0.15)4p( 0.04)
      C    3      [core]2S( 0.98)2p( 3.36)3p( 0.02)
      C    4      [core]2S( 0.95)2p( 3.28)3p( 0.01)
      C    5      [core]2S( 0.96)2p( 3.27)3p( 0.01)
      C    6      [core]2S( 0.85)2p( 2.99)3p( 0.01)
      N    7      [core]2S( 1.35)2p( 4.40)3p( 0.01)
      C    8      [core]2S( 0.96)2p( 3.27)3p( 0.01)
      C    9      [core]2S( 0.95)2p( 3.28)3p( 0.01)
      C   10      [core]2S( 0.98)2p( 3.36)3p( 0.02)
      C   11      [core]2S( 0.95)2p( 3.28)3p( 0.01)
      C   12      [core]2S( 0.96)2p( 3.27)3p( 0.01)
      C   13      [core]2S( 0.85)2p( 2.99)3p( 0.01)
      N   14      [core]2S( 1.35)2p( 4.40)3p( 0.01)
      C   15      [core]2S( 0.96)2p( 3.27)3p( 0.01)
      C   16      [core]2S( 0.95)2p( 3.28)3p( 0.01)
      O   17      [core]2S( 1.83)2p( 5.16)3d( 0.01)
      H   18            1S( 0.74)
      H   19            1S( 0.75)
      H   20            1S( 0.57)
      H   21            1S( 0.57)
      H   22            1S( 0.75)
      H   23            1S( 0.74)
      H   24            1S( 0.74)
      H   25            1S( 0.75)
      H   26            1S( 0.57)
      H   27            1S( 0.57)
      H   28            1S( 0.75)
      H   29            1S( 0.74)


 NBO analysis skipped by request.
 1\1\GINC-DRG2-W002\SP\RB3LYP TD-FC\6-31G(d,p)\C12H12N2O2S1\QDUEZ\18-Ju
 l-2024\0\\# TD(NStates=10, Root=1) B3LYP/6-31G** SCRF=(Solvent=water) 
 volume pop=NPA density=current Geom=AllCheck Guess=Read\\MQJKPEGWNLWLT
 K-UHFFFAOYSA-N_conf_2\\0,1\O,0,0.3721870231,1.2952208156,2.6795833389\
 S,0,0.2901761249,-0.009277551,1.9829334749\C,0,-1.2829586734,-0.070389
 9538,1.1472619495\C,0,-1.8710597305,-1.307087093,0.8548406315\C,0,-3.0
 896308547,-1.3556843653,0.1939065996\C,0,-3.7467798357,-0.1672341271,-
 0.1947150454\N,0,-4.9294465423,-0.2157595549,-0.8984384643\C,0,-3.1397
 091737,1.0710946773,0.1107209347\C,0,-1.9211047753,1.1181052235,0.7717
 076252\C,0,1.5576620188,-0.0260905928,0.7299249929\C,0,2.0242343177,1.
 1796273204,0.1920144181\C,0,3.0021339646,1.1668651733,-0.791682719\C,0
 ,3.5332729175,-0.0537163326,-1.2642901709\N,0,4.4645285834,-0.06929004
 1,-2.2785889024\C,0,3.0522672649,-1.2599094282,-0.7083980262\C,0,2.074
 3335061,-1.2455607325,0.2752431377\O,0,0.4248690405,-1.258527051,2.767
 150452\H,0,-1.3827707645,-2.225526408,1.1616760319\H,0,-3.5480448233,-
 2.3157017767,-0.0244466088\H,0,-5.4654726771,-1.0700840239,-0.8399412\
 H,0,-5.5002969052,0.6177545071,-0.8977951248\H,0,-3.6369831262,1.99420
 81771,-0.1721833744\H,0,-1.4715098299,2.0747306666,1.0142698969\H,0,1.
 6343698375,2.1231640159,0.5578682789\H,0,3.3686033567,2.1034449659,-1.
 2015281675\H,0,4.9857113387,0.7812608152,-2.4384263866\H,0,5.020572789
 9,-0.9065745591,-2.3804991808\H,0,3.4576394193,-2.2064569815,-1.053616
 7148\H,0,1.7232062083,-2.1770849279,0.7054483234\\Version=ES64L-G16Rev
 A.03\State=1-A\HF=-1122.6304655\RMSD=8.269e-09\Dipole=-0.6326243,-0.16
 12858,-4.3230716\Quadrupole=39.2361137,-11.0847126,-28.1514011,0.69116
 68,-10.107862,-0.7944104\PG=C01 [X(C12H12N2O2S1)]\\@


 THE MOST BEAUTIFUL EXPERIENCE WE CAN HAVE IS THE MYSTERIOUS.
 IT IS THE FUNDAMENTAL EMOTION WHICH STANDS AT AT THE CRADLE 
 OF TRUE ART AND TRUE SCIENCE.

                                    -- ALBERT EINSTEIN
 Job cpu time:       0 days  0 hours 52 minutes 39.2 seconds.
 Elapsed time:       0 days  0 hours 17 minutes 36.3 seconds.
 File lengths (MBytes):  RWF=    867 Int=      0 D2E=      0 Chk=     53 Scr=      1
 Normal termination of Gaussian 16 at Thu Jul 18 15:21:09 2024.
