 Entering Gaussian System, Link 0=g16
 Initial command:
 /opt/sw/arch/manual/gaussian/G16_A03/g16/l1.exe "/scratch/1380942/Gau-213747.inp" -scrdir="/scratch/1380942/"
 Entering Link 1 = /opt/sw/arch/manual/gaussian/G16_A03/g16/l1.exe PID=    213748.
  
 Copyright (c) 1988,1990,1992,1993,1995,1998,2003,2009,2016,
            Gaussian, Inc.  All Rights Reserved.
  
 This is part of the Gaussian(R) 16 program.  It is based on
 the Gaussian(R) 09 system (copyright 2009, Gaussian, Inc.),
 the Gaussian(R) 03 system (copyright 2003, Gaussian, Inc.),
 the Gaussian(R) 98 system (copyright 1998, Gaussian, Inc.),
 the Gaussian(R) 94 system (copyright 1995, Gaussian, Inc.),
 the Gaussian 92(TM) system (copyright 1992, Gaussian, Inc.),
 the Gaussian 90(TM) system (copyright 1990, Gaussian, Inc.),
 the Gaussian 88(TM) system (copyright 1988, Gaussian, Inc.),
 the Gaussian 86(TM) system (copyright 1986, Carnegie Mellon
 University), and the Gaussian 82(TM) system (copyright 1983,
 Carnegie Mellon University). Gaussian is a federally registered
 trademark of Gaussian, Inc.
  
 This software contains proprietary and confidential information,
 including trade secrets, belonging to Gaussian, Inc.
  
 This software is provided under written license and may be
 used, copied, transmitted, or stored only in accord with that
 written license.
  
 The following legend is applicable only to US Government
 contracts under FAR:
  
                    RESTRICTED RIGHTS LEGEND
  
 Use, reproduction and disclosure by the US Government is
 subject to restrictions as set forth in subparagraphs (a)
 and (c) of the Commercial Computer Software - Restricted
 Rights clause in FAR 52.227-19.
  
 Gaussian, Inc.
 340 Quinnipiac St., Bldg. 40, Wallingford CT 06492
  
  
 ---------------------------------------------------------------
 Warning -- This program may not be used in any manner that
 competes with the business of Gaussian, Inc. or will provide
 assistance to any competitor of Gaussian, Inc.  The licensee
 of this program is prohibited from giving any competitor of
 Gaussian, Inc. access to this program.  By using this program,
 the user acknowledges that Gaussian, Inc. is engaged in the
 business of creating and licensing software in the field of
 computational chemistry and represents and warrants to the
 licensee that it is not a competitor of Gaussian, Inc. and that
 it will not use this program in any manner prohibited above.
 ---------------------------------------------------------------
  

 Cite this work as:
 Gaussian 16, Revision A.03,
 M. J. Frisch, G. W. Trucks, H. B. Schlegel, G. E. Scuseria, 
 M. A. Robb, J. R. Cheeseman, G. Scalmani, V. Barone, 
 G. A. Petersson, H. Nakatsuji, X. Li, M. Caricato, A. V. Marenich, 
 J. Bloino, B. G. Janesko, R. Gomperts, B. Mennucci, H. P. Hratchian, 
 J. V. Ortiz, A. F. Izmaylov, J. L. Sonnenberg, D. Williams-Young, 
 F. Ding, F. Lipparini, F. Egidi, J. Goings, B. Peng, A. Petrone, 
 T. Henderson, D. Ranasinghe, V. G. Zakrzewski, J. Gao, N. Rega, 
 G. Zheng, W. Liang, M. Hada, M. Ehara, K. Toyota, R. Fukuda, 
 J. Hasegawa, M. Ishida, T. Nakajima, Y. Honda, O. Kitao, H. Nakai, 
 T. Vreven, K. Throssell, J. A. Montgomery, Jr., J. E. Peralta, 
 F. Ogliaro, M. J. Bearpark, J. J. Heyd, E. N. Brothers, K. N. Kudin, 
 V. N. Staroverov, T. A. Keith, R. Kobayashi, J. Normand, 
 K. Raghavachari, A. P. Rendell, J. C. Burant, S. S. Iyengar, 
 J. Tomasi, M. Cossi, J. M. Millam, M. Klene, C. Adamo, R. Cammi, 
 J. W. Ochterski, R. L. Martin, K. Morokuma, O. Farkas, 
 J. B. Foresman, and D. J. Fox, Gaussian, Inc., Wallingford CT, 2016.
 
 ******************************************
 Gaussian 16:  ES64L-G16RevA.03 25-Dec-2016
                18-Jul-2024 
 ******************************************
 %nprocshared=4
 Will use up to    4 processors via shared memory.
 %mem=8GB
 %Chk=MQJKPEGWNLWLTK-UHFFFAOYSA-N_conf_0_0.chk
 -------------------------------------------------------
 # opt=CalcFc B3LYP/6-31G** SCRF=(Solvent=water) scf=xqc
 -------------------------------------------------------
 1/10=4,18=20,19=15,26=3,38=1/1,3;
 2/9=110,12=2,17=6,18=5,40=1/2;
 3/5=1,6=6,7=101,11=2,25=1,30=1,70=2201,71=2,72=1,74=-5,140=1/1,2,3;
 4//1;
 5/5=2,8=3,13=1,38=5,53=1/2,8;
 8/6=4,10=90,11=11/1;
 11/6=1,8=1,9=11,15=111,16=1/1,2,10;
 10/6=1,13=1/2;
 6/7=2,8=2,9=2,10=2,28=1/1;
 7/10=1,18=20,25=1/1,2,3,16;
 1/10=4,18=20,19=15,26=3/3(2);
 2/9=110/2;
 99//99;
 2/9=110/2;
 3/5=1,6=6,7=101,11=2,25=1,30=1,70=2205,71=1,72=1,74=-5/1,2,3;
 4/5=5,16=3,69=1/1;
 5/5=2,8=3,13=1,38=5,53=1/2,8;
 7//1,2,3,16;
 1/18=20,19=15,26=3/3(-5);
 2/9=110/2;
 6/7=2,8=2,9=2,10=2,19=2,28=1/1;
 99/9=1/99;
 ----------------------------------
 MQJKPEGWNLWLTK-UHFFFAOYSA-N_conf_0
 ----------------------------------
 Symbolic Z-matrix:
 Charge =  0 Multiplicity = 1
 O                     0.17648   2.58445  -1.51869 
 S                     0.15537   2.01738  -0.18213 
 C                    -1.34633   1.08299  -0.00569 
 C                    -2.19938   0.91433  -1.09684 
 C                    -3.37736   0.1795   -0.93786 
 C                    -3.69156  -0.41581   0.28846 
 N                    -4.9274   -1.04531   0.46756 
 C                    -2.85929  -0.1765    1.38698 
 C                    -1.67816   0.55596   1.24381 
 C                     1.48503   0.8398   -0.10768 
 C                     2.29767   0.77121   1.02448 
 C                     3.33466  -0.16432   1.06686 
 C                     3.59696  -0.99401  -0.02854 
 N                     4.55653  -2.00722   0.07143 
 C                     2.74378  -0.94127  -1.13585 
 C                     1.70288  -0.01126  -1.19282 
 O                     0.25431   2.87714   0.98365 
 H                    -1.97159   1.35978  -2.06248 
 H                    -4.05434   0.07867  -1.78275 
 H                    -4.95467  -1.6943    1.24772 
 H                    -5.3182   -1.44398  -0.38032 
 H                    -3.12932  -0.55676   2.36918 
 H                    -1.04223   0.72536   2.10947 
 H                     2.13048   1.4256    1.87688 
 H                     3.94336  -0.23706   1.96489 
 H                     5.31218  -1.79672   0.71641 
 H                     4.90046  -2.33919  -0.82449 
 H                     2.88868  -1.62418  -1.96937 
 H                     1.07099   0.03572  -2.07652 
 

 GradGradGradGradGradGradGradGradGradGradGradGradGradGradGradGradGradGrad
 Berny optimization.
 Initialization pass.
                           ----------------------------
                           !    Initial Parameters    !
                           ! (Angstroms and Degrees)  !
 --------------------------                            --------------------------
 ! Name  Definition              Value          Derivative Info.                !
 --------------------------------------------------------------------------------
 ! R1    R(1,2)                  1.452          calculate D2E/DX2 analytically  !
 ! R2    R(2,3)                  1.7774         calculate D2E/DX2 analytically  !
 ! R3    R(2,10)                 1.7777         calculate D2E/DX2 analytically  !
 ! R4    R(2,17)                 1.4519         calculate D2E/DX2 analytically  !
 ! R5    R(3,4)                  1.3953         calculate D2E/DX2 analytically  !
 ! R6    R(3,9)                  1.3961         calculate D2E/DX2 analytically  !
 ! R7    R(4,5)                  1.3975         calculate D2E/DX2 analytically  !
 ! R8    R(4,18)                 1.0875         calculate D2E/DX2 analytically  !
 ! R9    R(5,6)                  1.3989         calculate D2E/DX2 analytically  !
 ! R10   R(5,19)                 1.0873         calculate D2E/DX2 analytically  !
 ! R11   R(6,7)                  1.3984         calculate D2E/DX2 analytically  !
 ! R12   R(6,8)                  1.3988         calculate D2E/DX2 analytically  !
 ! R13   R(7,20)                 1.0152         calculate D2E/DX2 analytically  !
 ! R14   R(7,21)                 1.0152         calculate D2E/DX2 analytically  !
 ! R15   R(8,9)                  1.3972         calculate D2E/DX2 analytically  !
 ! R16   R(8,22)                 1.0873         calculate D2E/DX2 analytically  !
 ! R17   R(9,23)                 1.0874         calculate D2E/DX2 analytically  !
 ! R18   R(10,11)                1.3953         calculate D2E/DX2 analytically  !
 ! R19   R(10,16)                1.3962         calculate D2E/DX2 analytically  !
 ! R20   R(11,12)                1.3973         calculate D2E/DX2 analytically  !
 ! R21   R(11,24)                1.0876         calculate D2E/DX2 analytically  !
 ! R22   R(12,13)                1.399          calculate D2E/DX2 analytically  !
 ! R23   R(12,25)                1.0873         calculate D2E/DX2 analytically  !
 ! R24   R(13,14)                1.3991         calculate D2E/DX2 analytically  !
 ! R25   R(13,15)                1.3989         calculate D2E/DX2 analytically  !
 ! R26   R(14,26)                1.0155         calculate D2E/DX2 analytically  !
 ! R27   R(14,27)                1.0155         calculate D2E/DX2 analytically  !
 ! R28   R(15,16)                1.397          calculate D2E/DX2 analytically  !
 ! R29   R(15,28)                1.0873         calculate D2E/DX2 analytically  !
 ! R30   R(16,29)                1.0874         calculate D2E/DX2 analytically  !
 ! A1    A(1,2,3)              107.9969         calculate D2E/DX2 analytically  !
 ! A2    A(1,2,10)             106.6408         calculate D2E/DX2 analytically  !
 ! A3    A(1,2,17)             120.4531         calculate D2E/DX2 analytically  !
 ! A4    A(3,2,10)             106.2328         calculate D2E/DX2 analytically  !
 ! A5    A(3,2,17)             106.808          calculate D2E/DX2 analytically  !
 ! A6    A(10,2,17)            107.9175         calculate D2E/DX2 analytically  !
 ! A7    A(2,3,4)              120.1624         calculate D2E/DX2 analytically  !
 ! A8    A(2,3,9)              119.2161         calculate D2E/DX2 analytically  !
 ! A9    A(4,3,9)              120.595          calculate D2E/DX2 analytically  !
 ! A10   A(3,4,5)              119.3383         calculate D2E/DX2 analytically  !
 ! A11   A(3,4,18)             121.1188         calculate D2E/DX2 analytically  !
 ! A12   A(5,4,18)             119.5337         calculate D2E/DX2 analytically  !
 ! A13   A(4,5,6)              120.852          calculate D2E/DX2 analytically  !
 ! A14   A(4,5,19)             119.0246         calculate D2E/DX2 analytically  !
 ! A15   A(6,5,19)             120.1228         calculate D2E/DX2 analytically  !
 ! A16   A(5,6,7)              120.153          calculate D2E/DX2 analytically  !
 ! A17   A(5,6,8)              118.8151         calculate D2E/DX2 analytically  !
 ! A18   A(7,6,8)              120.1484         calculate D2E/DX2 analytically  !
 ! A19   A(6,7,20)             114.1998         calculate D2E/DX2 analytically  !
 ! A20   A(6,7,21)             114.2054         calculate D2E/DX2 analytically  !
 ! A21   A(20,7,21)            112.3628         calculate D2E/DX2 analytically  !
 ! A22   A(6,8,9)              120.8105         calculate D2E/DX2 analytically  !
 ! A23   A(6,8,22)             120.12           calculate D2E/DX2 analytically  !
 ! A24   A(9,8,22)             119.0687         calculate D2E/DX2 analytically  !
 ! A25   A(3,9,8)              119.3768         calculate D2E/DX2 analytically  !
 ! A26   A(3,9,23)             120.9752         calculate D2E/DX2 analytically  !
 ! A27   A(8,9,23)             119.635          calculate D2E/DX2 analytically  !
 ! A28   A(2,10,11)            120.1439         calculate D2E/DX2 analytically  !
 ! A29   A(2,10,16)            119.2055         calculate D2E/DX2 analytically  !
 ! A30   A(11,10,16)           120.6506         calculate D2E/DX2 analytically  !
 ! A31   A(10,11,12)           119.3253         calculate D2E/DX2 analytically  !
 ! A32   A(10,11,24)           121.1211         calculate D2E/DX2 analytically  !
 ! A33   A(12,11,24)           119.5502         calculate D2E/DX2 analytically  !
 ! A34   A(11,12,13)           120.83           calculate D2E/DX2 analytically  !
 ! A35   A(11,12,25)           119.0332         calculate D2E/DX2 analytically  !
 ! A36   A(13,12,25)           120.136          calculate D2E/DX2 analytically  !
 ! A37   A(12,13,14)           120.1431         calculate D2E/DX2 analytically  !
 ! A38   A(12,13,15)           118.8874         calculate D2E/DX2 analytically  !
 ! A39   A(14,13,15)           120.1449         calculate D2E/DX2 analytically  !
 ! A40   A(13,14,26)           113.9302         calculate D2E/DX2 analytically  !
 ! A41   A(13,14,27)           113.9546         calculate D2E/DX2 analytically  !
 ! A42   A(26,14,27)           112.0918         calculate D2E/DX2 analytically  !
 ! A43   A(13,15,16)           120.7853         calculate D2E/DX2 analytically  !
 ! A44   A(13,15,28)           120.1242         calculate D2E/DX2 analytically  !
 ! A45   A(16,15,28)           119.0895         calculate D2E/DX2 analytically  !
 ! A46   A(10,16,15)           119.3644         calculate D2E/DX2 analytically  !
 ! A47   A(10,16,29)           120.9722         calculate D2E/DX2 analytically  !
 ! A48   A(15,16,29)           119.6622         calculate D2E/DX2 analytically  !
 ! D1    D(1,2,3,4)              5.1449         calculate D2E/DX2 analytically  !
 ! D2    D(1,2,3,9)           -172.9951         calculate D2E/DX2 analytically  !
 ! D3    D(10,2,3,4)          -108.9461         calculate D2E/DX2 analytically  !
 ! D4    D(10,2,3,9)            72.9139         calculate D2E/DX2 analytically  !
 ! D5    D(17,2,3,4)           136.0508         calculate D2E/DX2 analytically  !
 ! D6    D(17,2,3,9)           -42.0892         calculate D2E/DX2 analytically  !
 ! D7    D(1,2,10,11)          137.8003         calculate D2E/DX2 analytically  !
 ! D8    D(1,2,10,16)          -42.2194         calculate D2E/DX2 analytically  !
 ! D9    D(3,2,10,11)         -107.1831         calculate D2E/DX2 analytically  !
 ! D10   D(3,2,10,16)           72.7972         calculate D2E/DX2 analytically  !
 ! D11   D(17,2,10,11)           7.0632         calculate D2E/DX2 analytically  !
 ! D12   D(17,2,10,16)        -172.9565         calculate D2E/DX2 analytically  !
 ! D13   D(2,3,4,5)           -179.8276         calculate D2E/DX2 analytically  !
 ! D14   D(2,3,4,18)            -0.9412         calculate D2E/DX2 analytically  !
 ! D15   D(9,3,4,5)             -1.7136         calculate D2E/DX2 analytically  !
 ! D16   D(9,3,4,18)           177.1728         calculate D2E/DX2 analytically  !
 ! D17   D(2,3,9,8)            179.8566         calculate D2E/DX2 analytically  !
 ! D18   D(2,3,9,23)             1.1719         calculate D2E/DX2 analytically  !
 ! D19   D(4,3,9,8)              1.7249         calculate D2E/DX2 analytically  !
 ! D20   D(4,3,9,23)          -176.9598         calculate D2E/DX2 analytically  !
 ! D21   D(3,4,5,6)             -1.6981         calculate D2E/DX2 analytically  !
 ! D22   D(3,4,5,19)           178.0169         calculate D2E/DX2 analytically  !
 ! D23   D(18,4,5,6)           179.3977         calculate D2E/DX2 analytically  !
 ! D24   D(18,4,5,19)           -0.8873         calculate D2E/DX2 analytically  !
 ! D25   D(4,5,6,7)            174.2585         calculate D2E/DX2 analytically  !
 ! D26   D(4,5,6,8)              4.9995         calculate D2E/DX2 analytically  !
 ! D27   D(19,5,6,7)            -5.4533         calculate D2E/DX2 analytically  !
 ! D28   D(19,5,6,8)          -174.7124         calculate D2E/DX2 analytically  !
 ! D29   D(5,6,7,20)           161.0279         calculate D2E/DX2 analytically  !
 ! D30   D(5,6,7,21)            29.7768         calculate D2E/DX2 analytically  !
 ! D31   D(8,6,7,20)           -29.857          calculate D2E/DX2 analytically  !
 ! D32   D(8,6,7,21)          -161.1081         calculate D2E/DX2 analytically  !
 ! D33   D(5,6,8,9)             -4.9864         calculate D2E/DX2 analytically  !
 ! D34   D(5,6,8,22)           174.689          calculate D2E/DX2 analytically  !
 ! D35   D(7,6,8,9)           -174.246          calculate D2E/DX2 analytically  !
 ! D36   D(7,6,8,22)             5.4294         calculate D2E/DX2 analytically  !
 ! D37   D(6,8,9,3)              1.6758         calculate D2E/DX2 analytically  !
 ! D38   D(6,8,9,23)          -179.6217         calculate D2E/DX2 analytically  !
 ! D39   D(22,8,9,3)          -178.003          calculate D2E/DX2 analytically  !
 ! D40   D(22,8,9,23)            0.6995         calculate D2E/DX2 analytically  !
 ! D41   D(2,10,11,12)         179.7545         calculate D2E/DX2 analytically  !
 ! D42   D(2,10,11,24)           0.4162         calculate D2E/DX2 analytically  !
 ! D43   D(16,10,11,12)         -0.2255         calculate D2E/DX2 analytically  !
 ! D44   D(16,10,11,24)       -179.5638         calculate D2E/DX2 analytically  !
 ! D45   D(2,10,16,15)        -179.7664         calculate D2E/DX2 analytically  !
 ! D46   D(2,10,16,29)          -0.1597         calculate D2E/DX2 analytically  !
 ! D47   D(11,10,16,15)          0.2139         calculate D2E/DX2 analytically  !
 ! D48   D(11,10,16,29)        179.8205         calculate D2E/DX2 analytically  !
 ! D49   D(10,11,12,13)          2.4252         calculate D2E/DX2 analytically  !
 ! D50   D(10,11,12,25)       -177.9144         calculate D2E/DX2 analytically  !
 ! D51   D(24,11,12,13)       -178.226          calculate D2E/DX2 analytically  !
 ! D52   D(24,11,12,25)          1.4344         calculate D2E/DX2 analytically  !
 ! D53   D(11,12,13,14)       -174.1618         calculate D2E/DX2 analytically  !
 ! D54   D(11,12,13,15)         -4.5426         calculate D2E/DX2 analytically  !
 ! D55   D(25,12,13,14)          6.1816         calculate D2E/DX2 analytically  !
 ! D56   D(25,12,13,15)        175.8008         calculate D2E/DX2 analytically  !
 ! D57   D(12,13,14,26)        -30.0199         calculate D2E/DX2 analytically  !
 ! D58   D(12,13,14,27)       -160.3657         calculate D2E/DX2 analytically  !
 ! D59   D(15,13,14,26)        160.4922         calculate D2E/DX2 analytically  !
 ! D60   D(15,13,14,27)         30.1464         calculate D2E/DX2 analytically  !
 ! D61   D(12,13,15,16)          4.5285         calculate D2E/DX2 analytically  !
 ! D62   D(12,13,15,28)       -175.851          calculate D2E/DX2 analytically  !
 ! D63   D(14,13,15,16)        174.1475         calculate D2E/DX2 analytically  !
 ! D64   D(14,13,15,28)         -6.232          calculate D2E/DX2 analytically  !
 ! D65   D(13,15,16,10)         -2.4005         calculate D2E/DX2 analytically  !
 ! D66   D(13,15,16,29)        177.9877         calculate D2E/DX2 analytically  !
 ! D67   D(28,15,16,10)        177.9752         calculate D2E/DX2 analytically  !
 ! D68   D(28,15,16,29)         -1.6367         calculate D2E/DX2 analytically  !
 --------------------------------------------------------------------------------
 Trust Radius=3.00D-01 FncErr=1.00D-07 GrdErr=1.00D-06 EigMax=2.50D+02 EigMin=1.00D-04
 Number of steps in this run=    156 maximum allowed number of steps=    174.
 GradGradGradGradGradGradGradGradGradGradGradGradGradGradGradGradGradGrad

                          Input orientation:                          
 ---------------------------------------------------------------------
 Center     Atomic      Atomic             Coordinates (Angstroms)
 Number     Number       Type             X           Y           Z
 ---------------------------------------------------------------------
      1          8           0        0.176484    2.584455   -1.518692
      2         16           0        0.155365    2.017384   -0.182134
      3          6           0       -1.346329    1.082988   -0.005688
      4          6           0       -2.199377    0.914333   -1.096838
      5          6           0       -3.377361    0.179501   -0.937860
      6          6           0       -3.691563   -0.415815    0.288464
      7          7           0       -4.927405   -1.045314    0.467556
      8          6           0       -2.859293   -0.176499    1.386980
      9          6           0       -1.678164    0.555964    1.243806
     10          6           0        1.485028    0.839805   -0.107677
     11          6           0        2.297669    0.771213    1.024475
     12          6           0        3.334662   -0.164317    1.066859
     13          6           0        3.596962   -0.994015   -0.028540
     14          7           0        4.556535   -2.007218    0.071430
     15          6           0        2.743780   -0.941266   -1.135851
     16          6           0        1.702881   -0.011261   -1.192822
     17          8           0        0.254315    2.877137    0.983653
     18          1           0       -1.971595    1.359777   -2.062476
     19          1           0       -4.054341    0.078671   -1.782752
     20          1           0       -4.954667   -1.694301    1.247722
     21          1           0       -5.318195   -1.443983   -0.380324
     22          1           0       -3.129316   -0.556764    2.369177
     23          1           0       -1.042231    0.725360    2.109471
     24          1           0        2.130475    1.425601    1.876882
     25          1           0        3.943363   -0.237061    1.964894
     26          1           0        5.312182   -1.796725    0.716408
     27          1           0        4.900462   -2.339193   -0.824489
     28          1           0        2.888682   -1.624180   -1.969373
     29          1           0        1.070991    0.035722   -2.076517
 ---------------------------------------------------------------------
                    Distance matrix (angstroms):
                    1          2          3          4          5
     1  O    0.000000
     2  S    1.452034   0.000000
     3  C    2.619645   1.777446   0.000000
     4  C    2.934619   2.756486   1.395258   0.000000
     5  C    4.330241   4.053282   2.410462   1.397461   0.000000
     6  C    5.218163   4.576109   2.798761   2.432071   1.398926
     7  N    6.570394   5.969653   4.192581   3.705357   2.424459
     8  C    5.028095   4.045171   2.411409   2.791908   2.408321
     9  C    3.896908   2.744246   1.396104   2.424604   2.790818
    10  C    2.597509   1.777706   2.843611   3.815605   4.976750
    11  C    3.775576   2.756504   3.799627   4.974322   6.033809
    12  C    4.920864   4.053113   4.961633   6.039094   7.013441
    13  C    5.169687   4.575664   5.361958   6.195208   7.130581
    14  N    6.541925   5.969255   6.663266   7.452694   8.291388
    15  C    4.378160   4.045130   4.701475   5.280111   6.226050
    16  C    3.028831   2.744394   3.450268   4.011677   5.090212
    17  O    2.520605   1.451904   2.599966   3.768507   4.915132
    18  H    2.531754   2.914119   2.167474   1.087549   2.152671
    19  H    4.924283   4.903286   3.391156   2.147021   1.087341
    20  H    7.231149   6.475610   4.722762   4.460219   3.282651
    21  H    6.907655   6.479213   4.722463   3.975182   2.591020
    22  H    5.992587   4.891274   3.392318   3.878424   3.397074
    23  H    4.255005   2.890505   2.166627   3.413959   3.877760
    24  H    4.085455   2.913900   3.968579   5.277502   6.309660
    25  H    5.855399   4.903180   5.797117   6.959394   7.886223
    26  H    7.110963   6.476694   7.290400   8.189091   9.063677
    27  H    6.858585   6.473664   7.169669   7.814558   8.653267
    28  H    5.027100   4.891445   5.396307   5.752713   6.601559
    29  H    2.758143   2.890336   3.350900   3.525200   4.594023
                    6          7          8          9         10
     6  C    0.000000
     7  N    1.398444   0.000000
     8  C    1.398815   2.424307   0.000000
     9  C    2.431216   3.704621   1.397164   0.000000
    10  C    5.341405   6.708492   4.705316   3.451501   0.000000
    11  C    6.149931   7.470718   5.255838   3.987692   1.395299
    12  C    7.073683   8.330490   6.202233   5.067399   2.410174
    13  C    7.318293   8.538945   6.659975   5.643426   2.798111
    14  N    8.403023   9.540822   7.750916   6.842210   4.191869
    15  C    6.611991   7.837654   6.192251   5.240044   2.411184
    16  C    5.608734   6.912800   5.243673   4.205992   1.396178
    17  O    5.186210   6.519370   4.379717   3.031501   2.618469
    18  H    3.411442   4.574094   3.879033   3.415219   4.004978
    19  H    2.160106   2.662605   3.397124   3.877381   5.836935
    20  H    2.037188   1.015178   2.591082   3.974818   7.051842
    21  H    2.037238   1.015162   3.282693   4.459531   7.181495
    22  H    2.159944   2.662324   1.087302   2.147200   5.420091
    23  H    3.411350   4.574466   2.153383   1.087420   3.363910
    24  H    6.309518   7.609552   5.263508   3.957624   2.167541
    25  H    7.818854   9.032487   6.827429   5.722799   3.390958
    26  H    9.119072  10.270135   8.357500   7.394473   4.719906
    27  H    8.874737   9.996523   8.353540   7.479178   4.720703
    28  H    7.060992   8.207613   6.811762   5.994467   3.392252
    29  H    5.336567   6.604672   5.242898   4.342010   2.166634
                   11         12         13         14         15
    11  C    0.000000
    12  C    1.397271   0.000000
    13  C    2.431673   1.398964   0.000000
    14  N    3.705461   2.424899   1.399054   0.000000
    15  C    2.792599   2.409299   1.398871   2.424842   0.000000
    16  C    2.425376   2.791468   2.430823   3.704796   1.397006
    17  O    2.934601   4.329654   5.213794   6.572532   5.026921
    18  H    5.301159   6.346019   6.378563   7.648966   5.328057
    19  H    6.979124   7.923174   7.922775   9.051856   6.904579
    20  H    7.663223   8.431283   8.674653   9.588771   8.094107
    21  H    8.054933   8.865879   8.933435   9.901091   8.112891
    22  H    5.746644   6.605532   7.154233   8.152040   6.850279
    23  H    3.512016   4.586476   5.389755   6.554905   5.257722
    24  H    1.087554   2.152682   3.411122   4.574895   3.880046
    25  H    2.146930   1.087325   2.160266   2.663577   3.398458
    26  H    3.971964   2.588080   2.035011   1.015533   3.280146
    27  H    4.457334   3.280094   2.035228   1.015463   2.588904
    28  H    3.879476   3.398354   2.160001   2.663330   1.087257
    29  H    3.414943   3.878793   3.411026   4.575619   2.153505
                   16         17         18         19         20
    16  C    0.000000
    17  O    3.895925   0.000000
    18  H    4.017190   4.066442   0.000000
    19  H    5.788066   5.835146   2.461161   0.000000
    20  H    7.287786   6.935508   5.402178   3.624609   0.000000
    21  H    7.211682   7.182296   4.678722   2.425409   1.686815
    22  H    6.027897   5.016005   4.965179   4.300926   2.425605
    23  H    4.356994   2.752933   4.321035   4.963911   4.680227
    24  H    3.416210   2.534718   5.687693   7.311573   7.767167
    25  H    3.878391   4.926473   7.331870   8.837862   9.045044
    26  H    4.456467   6.891910   8.410654   9.873939  10.281098
    27  H    3.972337   7.215689   7.901908   9.324850  10.091259
    28  H    2.147245   5.993506   5.703942   7.151230   8.477779
    29  H    1.087386   4.255025   3.318230   5.133924   7.095921
                   21         22         23         24         25
    21  H    0.000000
    22  H    3.624653   0.000000
    23  H    5.402684   2.463171   0.000000
    24  H    8.295311   5.642476   3.257377   0.000000
    25  H    9.629806   7.091435   5.079696   2.461453   0.000000
    26  H   10.692622   8.690687   6.977113   4.674756   2.421762
    27  H   10.267407   8.823485   7.301727   5.398510   3.621554
    28  H    8.361243   7.495245   6.132650   4.966862   4.302895
    29  H    6.774090   6.144739   4.739600   4.322457   4.965675
                   26         27         28         29
    26  H    0.000000
    27  H    1.684681   0.000000
    28  H    3.621678   2.422656   0.000000
    29  H    5.398703   4.676820   2.463890   0.000000
 Stoichiometry    C12H12N2O2S
 Framework group  C1[X(C12H12N2O2S)]
 Deg. of freedom    81
 Full point group                 C1      NOp   1
 Largest Abelian subgroup         C1      NOp   1
 Largest concise Abelian subgroup C1      NOp   1
                         Standard orientation:                         
 ---------------------------------------------------------------------
 Center     Atomic      Atomic             Coordinates (Angstroms)
 Number     Number       Type             X           Y           Z
 ---------------------------------------------------------------------
      1          8           0        0.000839    2.310891   -1.252158
      2         16           0        0.000166    1.584984    0.005404
      3          6           0       -1.419375    0.515423    0.021352
      4          6           0       -2.231632    0.411582   -1.108338
      5          6           0       -3.345447   -0.431771   -1.075642
      6          6           0       -3.633316   -1.196311    0.059966
      7          7           0       -4.814208   -1.942710    0.123444
      8          6           0       -2.847963   -1.025195    1.204790
      9          6           0       -1.731146   -0.185856    1.187591
     10          6           0        1.423926    0.520800   -0.020309
     11          6           0        2.215386    0.381644    1.120342
     12          6           0        3.327563   -0.463347    1.082669
     13          6           0        3.683010   -1.128532   -0.095586
     14          7           0        4.723505   -2.063766   -0.087861
     15          6           0        2.851999   -1.011423   -1.214758
     16          6           0        1.736712   -0.170437   -1.192345
     17          8           0        0.000502    2.301082    1.268428
     18          1           0       -2.022511    0.988914   -2.005955
     19          1           0       -3.993326   -0.484096   -1.947321
     20          1           0       -4.802245   -2.682170    0.818887
     21          1           0       -5.151443   -2.265660   -0.777961
     22          1           0       -3.105091   -1.543566    2.125335
     23          1           0       -1.130464   -0.071636    2.086822
     24          1           0        1.974816    0.910961    2.039431
     25          1           0        3.921174   -0.594822    1.984121
     26          1           0        5.444572   -1.872067    0.601067
     27          1           0        5.113426   -2.254304   -1.005914
     28          1           0        3.072409   -1.573100   -2.119229
     29          1           0        1.121907   -0.068105   -2.083385
 ---------------------------------------------------------------------
 Rotational constants (GHZ):           0.7446950           0.2475010           0.2205771
 Standard basis: 6-31G(d,p) (6D, 7F)
 There are   319 symmetry adapted cartesian basis functions of A   symmetry.
 There are   319 symmetry adapted basis functions of A   symmetry.
   319 basis functions,   584 primitive gaussians,   319 cartesian basis functions
    65 alpha electrons       65 beta electrons
       nuclear repulsion energy      1297.9862821030 Hartrees.
 NAtoms=   29 NActive=   29 NUniq=   29 SFac= 1.00D+00 NAtFMM=   60 NAOKFM=F Big=F
 Integral buffers will be    131072 words long.
 Raffenetti 2 integral format.
 Two-electron integral symmetry is turned on.
 Force inversion solution in PCM.
 ------------------------------------------------------------------------------
 Polarizable Continuum Model (PCM)
 =================================
 Model                : PCM.
 Atomic radii         : UFF (Universal Force Field).
 Polarization charges : Total charges.
 Charge compensation  : None.
 Solution method      : Matrix inversion.
 Cavity type          : Scaled VdW (van der Waals Surface) (Alpha=1.100).
 Cavity algorithm     : GePol (No added spheres)
                        Default sphere list used, NSphG=   29.
                        Lebedev-Laikov grids with approx.  5.0 points / Ang**2.
                        Smoothing algorithm: York/Karplus (Gamma=1.0000).
                        Polarization charges: spherical gaussians, with
                                              point-specific exponents (IZeta= 3).
                        Self-potential: point-specific (ISelfS= 7).
                        Self-field    : sphere-specific E.n sum rule (ISelfD= 2).
 1st derivatives      : Analytical E(r).r(x)/FMM algorithm (CHGder, D1EAlg=3).
                        Cavity 1st derivative terms included.
 2nd derivatives      : Analytical E(r).r(xy)/FMM algorithm (CHGder, D2EAlg=3).
                        Cavity 2nd derivative terms included.
 Solvent              : Water, Eps=  78.355300 Eps(inf)=   1.777849
 ------------------------------------------------------------------------------
 One-electron integrals computed using PRISM.
 NBasis=   319 RedAO= T EigKep=  4.67D-04  NBF=   319
 NBsUse=   319 1.00D-06 EigRej= -1.00D+00 NBFU=   319
 ExpMin= 1.17D-01 ExpMax= 2.19D+04 ExpMxC= 3.30D+03 IAcc=3 IRadAn=         5 AccDes= 0.00D+00
 Harris functional with IExCor=  402 and IRadAn=       5 diagonalized for initial guess.
 HarFok:  IExCor=  402 AccDes= 0.00D+00 IRadAn=         5 IDoV= 1 UseB2=F ITyADJ=14
 ICtDFT=  3500011 ScaDFX=  1.000000  1.000000  1.000000  1.000000
 FoFCou: FMM=F IPFlag=           0 FMFlag=      100000 FMFlg1=           0
         NFxFlg=           0 DoJE=T BraDBF=F KetDBF=T FulRan=T
         wScrn=  0.000000 ICntrl=       500 IOpCl=  0 I1Cent=   200000004 NGrid=           0
         NMat0=    1 NMatS0=      1 NMatT0=    0 NMatD0=    1 NMtDS0=    0 NMtDT0=    0
 Petite list used in FoFCou.
 Requested convergence on RMS density matrix=1.00D-08 within  32 cycles.
 Requested convergence on MAX density matrix=1.00D-06.
 Requested convergence on             energy=1.00D-06.
 No special actions if energy rises.
 Inv3:  Mode=1 IEnd=    15966747.
 Iteration    1 A*A^-1 deviation from unit magnitude is 3.11D-15 for    200.
 Iteration    1 A*A^-1 deviation from orthogonality  is 2.11D-15 for   2043   1468.
 Iteration    1 A^-1*A deviation from unit magnitude is 3.11D-15 for    200.
 Iteration    1 A^-1*A deviation from orthogonality  is 8.27D-15 for   1328   1293.
 Error on total polarization charges =  0.00837
 SCF Done:  E(RB3LYP) =  -1122.62439799     A.U. after   13 cycles
            NFock= 13  Conv=0.29D-08     -V/T= 2.0074
 QCSCF skips out because SCF is already converged.
 DoSCS=F DFT=T ScalE2(SS,OS)=  1.000000  1.000000
 Range of M.O.s used for correlation:     1   319
 NBasis=   319 NAE=    65 NBE=    65 NFC=     0 NFV=     0
 NROrb=    319 NOA=    65 NOB=    65 NVA=   254 NVB=   254
 Symmetrizing basis deriv contribution to polar:
 IMax=3 JMax=2 DiffMx= 0.00D+00
 G2DrvN: will do    30 centers at a time, making    1 passes.
 Calling FoFCou, ICntrl=  3107 FMM=F I1Cent=   0 AccDes= 0.00D+00.
 NEqPCM:  Using equilibrium solvation (IEInf=0, Eps=  78.3553, EpsInf=   1.7778)
 G2PCM: DoFxE=T DoFxN=T DoGrad=T DoDP/DQ/DG/TGxP=FFFF NFrqRd=   0 IEInf=0 SqF1=F DoCFld=F IF1Alg=4.
 End of G2Drv F.D. properties file   721 does not exist.
 End of G2Drv F.D. properties file   722 does not exist.
 End of G2Drv F.D. properties file   788 does not exist.
          IDoAtm=11111111111111111111111111111
 NEqPCM:  Using equilibrium solvation (IEInf=0, Eps=  78.3553, EpsInf=   1.7778)
          Differentiating once with respect to nuclear coordinates.
 CalDSu exits because no D1Ps are significant.
          There are    90 degrees of freedom in the 1st order CPHF.  IDoFFX=6 NUNeed=     0.
     84 vectors produced by pass  0 Test12= 1.83D-14 1.11D-09 XBig12= 1.66D-01 1.31D-01.
 AX will form    84 AO Fock derivatives at one time.
     84 vectors produced by pass  1 Test12= 1.83D-14 1.11D-09 XBig12= 3.05D-02 4.49D-02.
     84 vectors produced by pass  2 Test12= 1.83D-14 1.11D-09 XBig12= 3.85D-04 3.66D-03.
     84 vectors produced by pass  3 Test12= 1.83D-14 1.11D-09 XBig12= 2.96D-06 2.52D-04.
     84 vectors produced by pass  4 Test12= 1.83D-14 1.11D-09 XBig12= 6.81D-09 1.09D-05.
     71 vectors produced by pass  5 Test12= 1.83D-14 1.11D-09 XBig12= 8.59D-12 3.14D-07.
     15 vectors produced by pass  6 Test12= 1.83D-14 1.11D-09 XBig12= 7.85D-15 1.03D-08.
      1 vectors produced by pass  7 Test12= 1.83D-14 1.11D-09 XBig12= 1.37D-16 1.30D-09.
 InvSVY:  IOpt=1 It=  1 EMax= 5.55D-16
 Solved reduced A of dimension   507 with    90 vectors.
 End of Minotr F.D. properties file   721 does not exist.
 End of Minotr F.D. properties file   722 does not exist.
 End of Minotr F.D. properties file   788 does not exist.

 **********************************************************************

            Population analysis using the SCF density.

 **********************************************************************

 Orbital symmetries:
       Occupied  (A) (A) (A) (A) (A) (A) (A) (A) (A) (A) (A) (A)
                 (A) (A) (A) (A) (A) (A) (A) (A) (A) (A) (A) (A)
                 (A) (A) (A) (A) (A) (A) (A) (A) (A) (A) (A) (A)
                 (A) (A) (A) (A) (A) (A) (A) (A) (A) (A) (A) (A)
                 (A) (A) (A) (A) (A) (A) (A) (A) (A) (A) (A) (A)
                 (A) (A) (A) (A) (A)
       Virtual   (A) (A) (A) (A) (A) (A) (A) (A) (A) (A) (A) (A)
                 (A) (A) (A) (A) (A) (A) (A) (A) (A) (A) (A) (A)
                 (A) (A) (A) (A) (A) (A) (A) (A) (A) (A) (A) (A)
                 (A) (A) (A) (A) (A) (A) (A) (A) (A) (A) (A) (A)
                 (A) (A) (A) (A) (A) (A) (A) (A) (A) (A) (A) (A)
                 (A) (A) (A) (A) (A) (A) (A) (A) (A) (A) (A) (A)
                 (A) (A) (A) (A) (A) (A) (A) (A) (A) (A) (A) (A)
                 (A) (A) (A) (A) (A) (A) (A) (A) (A) (A) (A) (A)
                 (A) (A) (A) (A) (A) (A) (A) (A) (A) (A) (A) (A)
                 (A) (A) (A) (A) (A) (A) (A) (A) (A) (A) (A) (A)
                 (A) (A) (A) (A) (A) (A) (A) (A) (A) (A) (A) (A)
                 (A) (A) (A) (A) (A) (A) (A) (A) (A) (A) (A) (A)
                 (A) (A) (A) (A) (A) (A) (A) (A) (A) (A) (A) (A)
                 (A) (A) (A) (A) (A) (A) (A) (A) (A) (A) (A) (A)
                 (A) (A) (A) (A) (A) (A) (A) (A) (A) (A) (A) (A)
                 (A) (A) (A) (A) (A) (A) (A) (A) (A) (A) (A) (A)
                 (A) (A) (A) (A) (A) (A) (A) (A) (A) (A) (A) (A)
                 (A) (A) (A) (A) (A) (A) (A) (A) (A) (A) (A) (A)
                 (A) (A) (A) (A) (A) (A) (A) (A) (A) (A) (A) (A)
                 (A) (A) (A) (A) (A) (A) (A) (A) (A) (A) (A) (A)
                 (A) (A) (A) (A) (A) (A) (A) (A) (A) (A) (A) (A)
                 (A) (A)
 The electronic state is 1-A.
 Alpha  occ. eigenvalues --  -89.09362 -19.14082 -19.14070 -14.34742 -14.34738
 Alpha  occ. eigenvalues --  -10.24278 -10.24269 -10.21380 -10.21375 -10.21019
 Alpha  occ. eigenvalues --  -10.21013 -10.20896 -10.20890 -10.19693 -10.19684
 Alpha  occ. eigenvalues --  -10.19590 -10.19579  -8.12256  -6.08731  -6.08631
 Alpha  occ. eigenvalues --   -6.08533  -1.11207  -1.00725  -0.92533  -0.92524
 Alpha  occ. eigenvalues --   -0.85924  -0.85335  -0.77035  -0.75853  -0.75782
 Alpha  occ. eigenvalues --   -0.74473  -0.67026  -0.62941  -0.62664  -0.61619
 Alpha  occ. eigenvalues --   -0.57929  -0.54584  -0.52819  -0.51741  -0.51432
 Alpha  occ. eigenvalues --   -0.50664  -0.48727  -0.46045  -0.45350  -0.45156
 Alpha  occ. eigenvalues --   -0.44250  -0.43480  -0.42769  -0.42741  -0.40687
 Alpha  occ. eigenvalues --   -0.40566  -0.39333  -0.38886  -0.35730  -0.35704
 Alpha  occ. eigenvalues --   -0.34228  -0.33271  -0.32327  -0.31988  -0.30571
 Alpha  occ. eigenvalues --   -0.29068  -0.26457  -0.26249  -0.22934  -0.21442
 Alpha virt. eigenvalues --   -0.03044  -0.02015  -0.01289  -0.00122   0.06959
 Alpha virt. eigenvalues --    0.08602   0.09174   0.09888   0.10551   0.10887
 Alpha virt. eigenvalues --    0.12331   0.12894   0.13250   0.14396   0.15868
 Alpha virt. eigenvalues --    0.16368   0.17320   0.17496   0.17764   0.19156
 Alpha virt. eigenvalues --    0.20369   0.20958   0.23324   0.24914   0.28726
 Alpha virt. eigenvalues --    0.30274   0.30521   0.30554   0.32700   0.33237
 Alpha virt. eigenvalues --    0.34440   0.34580   0.35106   0.36337   0.42064
 Alpha virt. eigenvalues --    0.42868   0.46339   0.51240   0.52087   0.52640
 Alpha virt. eigenvalues --    0.52894   0.54105   0.54342   0.54528   0.55210
 Alpha virt. eigenvalues --    0.57074   0.57542   0.58085   0.58614   0.58671
 Alpha virt. eigenvalues --    0.58777   0.59306   0.60204   0.60805   0.61471
 Alpha virt. eigenvalues --    0.62389   0.62752   0.63363   0.64028   0.67268
 Alpha virt. eigenvalues --    0.68942   0.69041   0.70316   0.71305   0.73162
 Alpha virt. eigenvalues --    0.75143   0.75756   0.76462   0.78139   0.79757
 Alpha virt. eigenvalues --    0.80231   0.80989   0.81627   0.82189   0.83037
 Alpha virt. eigenvalues --    0.83455   0.84126   0.85001   0.85728   0.86208
 Alpha virt. eigenvalues --    0.87444   0.87676   0.88325   0.89035   0.90437
 Alpha virt. eigenvalues --    0.91895   0.92018   0.93030   0.94371   0.98685
 Alpha virt. eigenvalues --    0.99299   0.99689   1.00149   1.00910   1.02425
 Alpha virt. eigenvalues --    1.04142   1.04858   1.05890   1.10007   1.10588
 Alpha virt. eigenvalues --    1.13433   1.14573   1.14713   1.15482   1.16926
 Alpha virt. eigenvalues --    1.17485   1.19268   1.19457   1.25028   1.25598
 Alpha virt. eigenvalues --    1.26769   1.27231   1.28546   1.31285   1.31390
 Alpha virt. eigenvalues --    1.34353   1.37288   1.38003   1.38772   1.39444
 Alpha virt. eigenvalues --    1.39783   1.40226   1.41836   1.43629   1.46430
 Alpha virt. eigenvalues --    1.49504   1.49709   1.52380   1.58840   1.61662
 Alpha virt. eigenvalues --    1.71841   1.73280   1.73540   1.75393   1.75483
 Alpha virt. eigenvalues --    1.76370   1.77879   1.79554   1.80101   1.80571
 Alpha virt. eigenvalues --    1.81694   1.82559   1.85058   1.85353   1.86269
 Alpha virt. eigenvalues --    1.88210   1.88398   1.91412   1.91981   1.92571
 Alpha virt. eigenvalues --    1.94378   1.94734   1.96038   1.96342   1.97411
 Alpha virt. eigenvalues --    1.97458   1.98357   2.02011   2.03556   2.05002
 Alpha virt. eigenvalues --    2.05562   2.07168   2.08133   2.10685   2.10991
 Alpha virt. eigenvalues --    2.12925   2.13739   2.16072   2.16295   2.18267
 Alpha virt. eigenvalues --    2.23037   2.23477   2.25635   2.25846   2.28641
 Alpha virt. eigenvalues --    2.29493   2.30142   2.32406   2.33107   2.34323
 Alpha virt. eigenvalues --    2.34443   2.40135   2.40252   2.40747   2.41414
 Alpha virt. eigenvalues --    2.45017   2.45468   2.45861   2.46594   2.47006
 Alpha virt. eigenvalues --    2.47467   2.48626   2.49003   2.51589   2.52663
 Alpha virt. eigenvalues --    2.54321   2.57196   2.57460   2.58480   2.58536
 Alpha virt. eigenvalues --    2.60645   2.64076   2.64843   2.68039   2.68533
 Alpha virt. eigenvalues --    2.71852   2.72536   2.74809   2.75477   2.77800
 Alpha virt. eigenvalues --    2.78890   2.79305   2.84459   2.85189   2.88028
 Alpha virt. eigenvalues --    2.97470   2.97599   2.99040   2.99651   3.04881
 Alpha virt. eigenvalues --    3.05221   3.17425   3.17605   3.23817   3.24357
 Alpha virt. eigenvalues --    3.27271   3.27304   3.27535   3.27648   3.35257
 Alpha virt. eigenvalues --    3.35902   3.47605   3.47659   3.52469   3.52792
 Alpha virt. eigenvalues --    3.76311   3.79730   3.87274   4.02801   4.03035
 Alpha virt. eigenvalues --    4.07748   4.08682   4.12517   4.12979   4.14973
 Alpha virt. eigenvalues --    4.15287   4.20865   4.21083   4.39939   4.42175
 Alpha virt. eigenvalues --    4.43772   4.45060   4.78227   4.79427
          Condensed to atoms (all electrons):
               1          2          3          4          5          6
     1  O    8.288625   0.439998  -0.062046   0.002881   0.000513  -0.000007
     2  S    0.439998  13.762507   0.185592  -0.025631   0.002189  -0.000231
     3  C   -0.062046   0.185592   5.443695   0.500570  -0.045438  -0.035320
     4  C    0.002881  -0.025631   0.500570   4.848393   0.504934  -0.016150
     5  C    0.000513   0.002189  -0.045438   0.504934   4.955322   0.526451
     6  C   -0.000007  -0.000231  -0.035320  -0.016150   0.526451   4.565790
     7  N    0.000000   0.000005   0.000498   0.004489  -0.069961   0.309355
     8  C   -0.000043   0.001546  -0.043836  -0.038900  -0.052384   0.525849
     9  C    0.001670  -0.022206   0.472523  -0.027855  -0.037395  -0.017300
    10  C   -0.066469   0.185482  -0.072938  -0.001245  -0.000129  -0.000010
    11  C    0.000285  -0.025388  -0.001237  -0.000054   0.000002   0.000000
    12  C   -0.000039   0.002247  -0.000176   0.000002  -0.000000   0.000000
    13  C   -0.000016  -0.000377   0.000025   0.000001  -0.000000  -0.000000
    14  N   -0.000000   0.000003   0.000000  -0.000000   0.000000   0.000000
    15  C    0.000475   0.001663  -0.000227   0.000015   0.000001   0.000000
    16  C    0.003825  -0.022238  -0.003122   0.000193   0.000003   0.000001
    17  O   -0.042597   0.439938  -0.066221   0.000314  -0.000055  -0.000003
    18  H    0.009903  -0.004630  -0.046189   0.372531  -0.031381   0.003710
    19  H    0.000002  -0.000048   0.004995  -0.035086   0.370577  -0.042852
    20  H    0.000000   0.000000   0.000011  -0.000177   0.005389  -0.023841
    21  H    0.000000   0.000000   0.000012  -0.000057  -0.008885  -0.023827
    22  H    0.000000  -0.000044   0.004993   0.000509   0.004973  -0.042554
    23  H    0.000057  -0.000515  -0.049748   0.004224   0.000582   0.003607
    24  H    0.000055  -0.004583   0.000193  -0.000005   0.000000   0.000000
    25  H    0.000000  -0.000036   0.000001  -0.000000   0.000000  -0.000000
    26  H   -0.000000  -0.000000   0.000000   0.000000  -0.000000  -0.000000
    27  H    0.000000  -0.000000   0.000000   0.000000  -0.000000  -0.000000
    28  H    0.000002  -0.000039   0.000001  -0.000000   0.000000   0.000000
    29  H    0.004099  -0.000525   0.000389   0.000657   0.000049   0.000000
               7          8          9         10         11         12
     1  O    0.000000  -0.000043   0.001670  -0.066469   0.000285  -0.000039
     2  S    0.000005   0.001546  -0.022206   0.185482  -0.025388   0.002247
     3  C    0.000498  -0.043836   0.472523  -0.072938  -0.001237  -0.000176
     4  C    0.004489  -0.038900  -0.027855  -0.001245  -0.000054   0.000002
     5  C   -0.069961  -0.052384  -0.037395  -0.000129   0.000002  -0.000000
     6  C    0.309355   0.525849  -0.017300  -0.000010   0.000000   0.000000
     7  N    6.805524  -0.069743   0.004546  -0.000000  -0.000000   0.000000
     8  C   -0.069743   4.942436   0.516319  -0.000117   0.000016   0.000001
     9  C    0.004546   0.516319   4.860846  -0.003332   0.000229  -0.000005
    10  C   -0.000000  -0.000117  -0.003332   5.443969   0.501009  -0.045506
    11  C   -0.000000   0.000016   0.000229   0.501009   4.847849   0.505162
    12  C    0.000000   0.000001  -0.000005  -0.045506   0.505162   4.954535
    13  C    0.000000   0.000000   0.000004  -0.035810  -0.016229   0.526489
    14  N   -0.000000  -0.000000  -0.000000   0.000463   0.004479  -0.069913
    15  C   -0.000000  -0.000001  -0.000021  -0.043657  -0.038878  -0.051785
    16  C   -0.000000  -0.000015  -0.000059   0.472491  -0.027894  -0.037804
    17  O    0.000000   0.000387   0.003646  -0.062343   0.002946   0.000525
    18  H   -0.000101   0.000507   0.004410   0.000195  -0.000005   0.000000
    19  H   -0.007220   0.004976   0.000524   0.000001   0.000000   0.000000
    20  H    0.344041  -0.008906  -0.000073  -0.000000  -0.000000   0.000000
    21  H    0.344081   0.005413  -0.000186  -0.000000  -0.000000  -0.000000
    22  H   -0.007197   0.369955  -0.034541   0.000003  -0.000000  -0.000000
    23  H   -0.000103  -0.028572   0.371786   0.000223   0.000622   0.000053
    24  H   -0.000000   0.000007  -0.000072  -0.045949   0.372242  -0.031298
    25  H    0.000000   0.000000   0.000001   0.005008  -0.035099   0.370433
    26  H    0.000000   0.000000   0.000000   0.000004  -0.000067  -0.009039
    27  H    0.000000  -0.000000   0.000000   0.000001  -0.000183   0.005400
    28  H    0.000000   0.000000   0.000000   0.005029   0.000501   0.005005
    29  H   -0.000000  -0.000003   0.000017  -0.049580   0.004215   0.000585
              13         14         15         16         17         18
     1  O   -0.000016  -0.000000   0.000475   0.003825  -0.042597   0.009903
     2  S   -0.000377   0.000003   0.001663  -0.022238   0.439938  -0.004630
     3  C    0.000025   0.000000  -0.000227  -0.003122  -0.066221  -0.046189
     4  C    0.000001  -0.000000   0.000015   0.000193   0.000314   0.372531
     5  C   -0.000000   0.000000   0.000001   0.000003  -0.000055  -0.031381
     6  C   -0.000000   0.000000   0.000000   0.000001  -0.000003   0.003710
     7  N    0.000000  -0.000000  -0.000000  -0.000000   0.000000  -0.000101
     8  C    0.000000  -0.000000  -0.000001  -0.000015   0.000387   0.000507
     9  C    0.000004  -0.000000  -0.000021  -0.000059   0.003646   0.004410
    10  C   -0.035810   0.000463  -0.043657   0.472491  -0.062343   0.000195
    11  C   -0.016229   0.004479  -0.038878  -0.027894   0.002946  -0.000005
    12  C    0.526489  -0.069913  -0.051785  -0.037804   0.000525   0.000000
    13  C    4.568245   0.308524   0.525129  -0.015833  -0.000007   0.000000
    14  N    0.308524   6.806584  -0.069830   0.004653   0.000000   0.000000
    15  C    0.525129  -0.069830   4.945468   0.512939  -0.000041   0.000006
    16  C   -0.015833   0.004653   0.512939   4.863167   0.001661  -0.000069
    17  O   -0.000007   0.000000  -0.000041   0.001661   8.288529   0.000060
    18  H    0.000000   0.000000   0.000006  -0.000069   0.000060   0.568130
    19  H   -0.000000   0.000000   0.000000   0.000001   0.000000  -0.006009
    20  H    0.000000  -0.000000  -0.000000  -0.000000   0.000000   0.000003
    21  H    0.000000  -0.000000   0.000000  -0.000000   0.000000  -0.000005
    22  H   -0.000000   0.000000   0.000000   0.000000   0.000001   0.000014
    23  H   -0.000001  -0.000000  -0.000002   0.000016   0.004354  -0.000156
    24  H    0.003739  -0.000100   0.000494   0.004413   0.009720  -0.000000
    25  H   -0.042835  -0.007263   0.005028   0.000489   0.000002  -0.000000
    26  H   -0.023883   0.343737   0.005401  -0.000180   0.000000  -0.000000
    27  H   -0.023899   0.343651  -0.009018  -0.000043   0.000000   0.000000
    28  H   -0.042408  -0.007213   0.369880  -0.034759   0.000000  -0.000000
    29  H    0.003570  -0.000103  -0.028711   0.371803   0.000055   0.000188
              19         20         21         22         23         24
     1  O    0.000002   0.000000   0.000000   0.000000   0.000057   0.000055
     2  S   -0.000048   0.000000   0.000000  -0.000044  -0.000515  -0.004583
     3  C    0.004995   0.000011   0.000012   0.004993  -0.049748   0.000193
     4  C   -0.035086  -0.000177  -0.000057   0.000509   0.004224  -0.000005
     5  C    0.370577   0.005389  -0.008885   0.004973   0.000582   0.000000
     6  C   -0.042852  -0.023841  -0.023827  -0.042554   0.003607   0.000000
     7  N   -0.007220   0.344041   0.344081  -0.007197  -0.000103  -0.000000
     8  C    0.004976  -0.008906   0.005413   0.369955  -0.028572   0.000007
     9  C    0.000524  -0.000073  -0.000186  -0.034541   0.371786  -0.000072
    10  C    0.000001  -0.000000  -0.000000   0.000003   0.000223  -0.045949
    11  C    0.000000  -0.000000  -0.000000  -0.000000   0.000622   0.372242
    12  C    0.000000   0.000000  -0.000000  -0.000000   0.000053  -0.031298
    13  C   -0.000000   0.000000   0.000000  -0.000000  -0.000001   0.003739
    14  N    0.000000  -0.000000  -0.000000   0.000000  -0.000000  -0.000100
    15  C    0.000000  -0.000000   0.000000   0.000000  -0.000002   0.000494
    16  C    0.000001  -0.000000  -0.000000   0.000000   0.000016   0.004413
    17  O    0.000000   0.000000   0.000000   0.000001   0.004354   0.009720
    18  H   -0.006009   0.000003  -0.000005   0.000014  -0.000156  -0.000000
    19  H    0.594302  -0.000036   0.004333  -0.000169   0.000014  -0.000000
    20  H   -0.000036   0.420529  -0.027552   0.004319  -0.000005  -0.000000
    21  H    0.004333  -0.027552   0.420354  -0.000035   0.000003  -0.000000
    22  H   -0.000169   0.004319  -0.000035   0.593031  -0.006029  -0.000000
    23  H    0.000014  -0.000005   0.000003  -0.006029   0.570427   0.000232
    24  H   -0.000000  -0.000000  -0.000000  -0.000000   0.000232   0.568063
    25  H   -0.000000   0.000000  -0.000000  -0.000000  -0.000001  -0.006042
    26  H   -0.000000   0.000000   0.000000  -0.000000  -0.000000  -0.000005
    27  H   -0.000000   0.000000   0.000000  -0.000000   0.000000   0.000003
    28  H   -0.000000  -0.000000  -0.000000  -0.000000   0.000000   0.000013
    29  H   -0.000001  -0.000000   0.000000   0.000000  -0.000009  -0.000156
              25         26         27         28         29
     1  O    0.000000  -0.000000   0.000000   0.000002   0.004099
     2  S   -0.000036  -0.000000  -0.000000  -0.000039  -0.000525
     3  C    0.000001   0.000000   0.000000   0.000001   0.000389
     4  C   -0.000000   0.000000   0.000000  -0.000000   0.000657
     5  C    0.000000  -0.000000  -0.000000   0.000000   0.000049
     6  C   -0.000000  -0.000000  -0.000000   0.000000   0.000000
     7  N    0.000000   0.000000   0.000000   0.000000  -0.000000
     8  C    0.000000   0.000000  -0.000000   0.000000  -0.000003
     9  C    0.000001   0.000000   0.000000   0.000000   0.000017
    10  C    0.005008   0.000004   0.000001   0.005029  -0.049580
    11  C   -0.035099  -0.000067  -0.000183   0.000501   0.004215
    12  C    0.370433  -0.009039   0.005400   0.005005   0.000585
    13  C   -0.042835  -0.023883  -0.023899  -0.042408   0.003570
    14  N   -0.007263   0.343737   0.343651  -0.007213  -0.000103
    15  C    0.005028   0.005401  -0.009018   0.369880  -0.028711
    16  C    0.000489  -0.000180  -0.000043  -0.034759   0.371803
    17  O    0.000002   0.000000   0.000000   0.000000   0.000055
    18  H   -0.000000  -0.000000   0.000000  -0.000000   0.000188
    19  H   -0.000000  -0.000000  -0.000000  -0.000000  -0.000001
    20  H    0.000000   0.000000   0.000000  -0.000000  -0.000000
    21  H   -0.000000   0.000000   0.000000  -0.000000   0.000000
    22  H   -0.000000  -0.000000  -0.000000  -0.000000   0.000000
    23  H   -0.000001  -0.000000   0.000000   0.000000  -0.000009
    24  H   -0.006042  -0.000005   0.000003   0.000013  -0.000156
    25  H    0.594534   0.004341  -0.000041  -0.000167   0.000014
    26  H    0.004341   0.421266  -0.027629  -0.000041   0.000003
    27  H   -0.000041  -0.027629   0.421545   0.004322  -0.000005
    28  H   -0.000167  -0.000041   0.004322   0.593201  -0.006019
    29  H    0.000014   0.000003  -0.000005  -0.006019   0.570611
 Mulliken charges:
               1
     1  O   -0.581174
     2  S    1.085319
     3  C   -0.187000
     4  C   -0.094552
     5  C   -0.125359
     6  C    0.267331
     7  N   -0.658214
     8  C   -0.124893
     9  C   -0.093477
    10  C   -0.186793
    11  C   -0.094523
    12  C   -0.124873
    13  C    0.265573
    14  N   -0.657671
    15  C   -0.124328
    16  C   -0.093643
    17  O   -0.580870
    18  H    0.128889
    19  H    0.111694
    20  H    0.286299
    21  H    0.286351
    22  H    0.112771
    23  H    0.128940
    24  H    0.129035
    25  H    0.111633
    26  H    0.286093
    27  H    0.285894
    28  H    0.112693
    29  H    0.128855
 Sum of Mulliken charges =  -0.00000
 Mulliken charges with hydrogens summed into heavy atoms:
               1
     1  O   -0.581174
     2  S    1.085319
     3  C   -0.187000
     4  C    0.034337
     5  C   -0.013665
     6  C    0.267331
     7  N   -0.085564
     8  C   -0.012122
     9  C    0.035463
    10  C   -0.186793
    11  C    0.034512
    12  C   -0.013239
    13  C    0.265573
    14  N   -0.085684
    15  C   -0.011635
    16  C    0.035212
    17  O   -0.580870
 APT charges:
               1
     1  O   -0.170915
     2  S    0.042213
     3  C   -0.453043
     4  C   -0.565019
     5  C   -0.447673
     6  C    0.187420
     7  N   -1.217338
     8  C   -0.431853
     9  C   -0.628234
    10  C   -0.412933
    11  C   -0.588884
    12  C   -0.420519
    13  C    0.253814
    14  N   -1.571387
    15  C   -0.404859
    16  C   -0.650380
    17  O   -0.171043
    18  H    0.440402
    19  H    0.739840
    20  H    0.726830
    21  H    0.849211
    22  H    0.629252
    23  H    0.320037
    24  H    0.426741
    25  H    0.718203
    26  H    0.994217
    27  H    0.879757
    28  H    0.613577
    29  H    0.312567
 Sum of APT charges =  -0.00000
 APT charges with hydrogens summed into heavy atoms:
               1
     1  O   -0.170915
     2  S    0.042213
     3  C   -0.453043
     4  C   -0.124618
     5  C    0.292166
     6  C    0.187420
     7  N    0.358703
     8  C    0.197400
     9  C   -0.308197
    10  C   -0.412933
    11  C   -0.162143
    12  C    0.297684
    13  C    0.253814
    14  N    0.302588
    15  C    0.208718
    16  C   -0.337814
    17  O   -0.171043
 Electronic spatial extent (au):  <R**2>=           5084.5152
 Charge=             -0.0000 electrons
 Dipole moment (field-independent basis, Debye):
    X=              1.3190    Y=             -9.4305    Z=             -0.7710  Tot=              9.5535
 Quadrupole moment (field-independent basis, Debye-Ang):
   XX=            -59.5712   YY=           -113.7061   ZZ=            -96.4255
   XY=              6.4537   XZ=              3.3377   YZ=              1.3789
 Traceless Quadrupole moment (field-independent basis, Debye-Ang):
   XX=             30.3298   YY=            -23.8052   ZZ=             -6.5246
   XY=              6.4537   XZ=              3.3377   YZ=              1.3789
 Octapole moment (field-independent basis, Debye-Ang**2):
  XXX=            111.1539  YYY=            -50.5846  ZZZ=             -0.7971  XYY=            -37.6493
  XXY=           -119.4346  XXZ=            -23.2390  XZZ=              1.7042  YZZ=            -24.3792
  YYZ=             -3.0521  XYZ=             15.8009
 Hexadecapole moment (field-independent basis, Debye-Ang**3):
 XXXX=          -3584.9229 YYYY=          -1263.6119 ZZZZ=           -630.9842 XXXY=             10.3592
 XXXZ=            121.9863 YYYX=            141.7438 YYYZ=              4.3111 ZZZX=              6.6047
 ZZZY=              2.3285 XXYY=           -734.4267 XXZZ=           -749.4647 YYZZ=           -321.0202
 XXYZ=             45.2454 YYXZ=            -38.2827 ZZXY=             -0.5383
 N-N= 1.297986282103D+03 E-N=-5.227600020021D+03  KE= 1.114410757252D+03
  Exact polarizability:   0.000   0.000   0.000   0.000   0.000   0.000
 Approx polarizability: 296.565  -0.663 213.569  29.682  -1.361 272.741
 D2PCM: PCM CHGder 2nd derivatives, FixD1E=F FixD2E=F DoIter=F DoCFld=F I1PDM=0
 Calling FoFJK, ICntrl=    100147 FMM=F ISym2X=0 I1Cent= 0 IOpClX= 0 NMat=1 NMatS=1 NMatT=0.
 ***** Axes restored to original set *****
 -------------------------------------------------------------------
 Center     Atomic                   Forces (Hartrees/Bohr)
 Number     Number              X              Y              Z
 -------------------------------------------------------------------
      1        8          -0.002243113    0.016114251   -0.028759073
      2       16          -0.001950485   -0.030744691    0.003257060
      3        6           0.001549987    0.001474357   -0.002379275
      4        6          -0.008067219   -0.005332235   -0.002042704
      5        6           0.009222590    0.004366726   -0.011325080
      6        6          -0.021363568    0.005106080    0.004114127
      7        7           0.009410267   -0.002449871   -0.002219268
      8        6           0.015498738    0.002110227    0.008452876
      9        6          -0.009009724   -0.005877100    0.003716990
     10        6          -0.000935155    0.002615644    0.001758337
     11        6           0.006305324   -0.006565787    0.003558694
     12        6          -0.002950356    0.013596028    0.006278226
     13        6           0.001862790   -0.020703345    0.008226574
     14        7          -0.000303008    0.009556156   -0.003403383
     15        6          -0.009618467    0.008089051   -0.012217467
     16        6           0.007190460   -0.008230639   -0.001523322
     17        8           0.004932081    0.021804701    0.024478587
     18        1           0.001421975   -0.000569657    0.002929135
     19        1           0.000277223   -0.001202864    0.000956652
     20        1          -0.001628738    0.000625011   -0.002888935
     21        1          -0.000234346   -0.000323676    0.003302554
     22        1          -0.000114062   -0.000989119   -0.001242938
     23        1          -0.000758915   -0.000221634   -0.001911851
     24        1          -0.001390652   -0.000887758   -0.002809177
     25        1           0.000859206    0.000066964   -0.001539424
     26        1          -0.000772118   -0.002115369   -0.002584031
     27        1           0.000863782   -0.000114088    0.003337582
     28        1           0.001260325    0.000773628    0.000551804
     29        1           0.000685176    0.000029008    0.001926730
 -------------------------------------------------------------------
 Cartesian Forces:  Max     0.030744691 RMS     0.008299691
 FormGI is forming the generalized inverse of G from B-inverse, IUseBI=4.

 GradGradGradGradGradGradGradGradGradGradGradGradGradGradGradGradGradGrad
 Berny optimization.
 Internal  Forces:  Max     0.032901387 RMS     0.004639903
 Search for a local minimum.
 Step number   1 out of a maximum of  156
 All quantities printed in internal units (Hartrees-Bohrs-Radians)
 Mixed Optimization -- RFO/linear search
 Second derivative matrix not updated -- analytic derivatives used.
 ITU=  0
     Eigenvalues ---    0.00065   0.00103   0.00641   0.00678   0.01161
     Eigenvalues ---    0.01175   0.01529   0.01552   0.01739   0.01747
     Eigenvalues ---    0.01754   0.01864   0.01953   0.01955   0.02122
     Eigenvalues ---    0.02131   0.02232   0.02245   0.02774   0.02782
     Eigenvalues ---    0.02791   0.02831   0.02960   0.02965   0.11104
     Eigenvalues ---    0.11169   0.11431   0.11477   0.11552   0.11845
     Eigenvalues ---    0.11861   0.12133   0.12638   0.12644   0.13450
     Eigenvalues ---    0.13514   0.15332   0.15359   0.16657   0.16896
     Eigenvalues ---    0.17310   0.17799   0.18386   0.18483   0.18959
     Eigenvalues ---    0.19090   0.19436   0.19580   0.20739   0.21702
     Eigenvalues ---    0.21739   0.24887   0.26499   0.31730   0.31778
     Eigenvalues ---    0.35590   0.35592   0.35766   0.35782   0.35942
     Eigenvalues ---    0.35945   0.36084   0.36091   0.37818   0.37973
     Eigenvalues ---    0.41303   0.41322   0.44013   0.44259   0.45495
     Eigenvalues ---    0.45615   0.45915   0.46044   0.47065   0.47121
     Eigenvalues ---    0.47573   0.47650   0.51385   0.51402   0.66444
     Eigenvalues ---    0.66890
 RFO step:  Lambda=-9.29281626D-03 EMin= 6.45670612D-04
 Linear search not attempted -- first point.
 Iteration  1 RMS(Cart)=  0.03123899 RMS(Int)=  0.00085740
 Iteration  2 RMS(Cart)=  0.00102238 RMS(Int)=  0.00045876
 Iteration  3 RMS(Cart)=  0.00000088 RMS(Int)=  0.00045876
 Variable       Old X    -DE/DX   Delta X   Delta X   Delta X     New X
                                 (Linear)    (Quad)   (Total)
    R1        2.74395   0.03273   0.00000   0.04914   0.04914   2.79309
    R2        3.35889   0.00487   0.00000   0.01009   0.01009   3.36897
    R3        3.35938   0.00494   0.00000   0.00972   0.00972   3.36910
    R4        2.74370   0.03290   0.00000   0.04940   0.04940   2.79310
    R5        2.63665   0.00241   0.00000   0.00571   0.00562   2.64227
    R6        2.63825   0.00426   0.00000   0.00939   0.00929   2.64755
    R7        2.64082  -0.00587   0.00000  -0.01657  -0.01656   2.62425
    R8        2.05517  -0.00254   0.00000  -0.00634  -0.00634   2.04883
    R9        2.64359   0.00836   0.00000   0.02100   0.02110   2.66469
   R10        2.05478  -0.00081   0.00000  -0.00238  -0.00238   2.05239
   R11        2.64268  -0.00593   0.00000  -0.03361  -0.03361   2.60907
   R12        2.64338   0.00961   0.00000   0.02501   0.02511   2.66848
   R13        1.91841  -0.00257   0.00000  -0.00752  -0.00752   1.91089
   R14        1.91838  -0.00254   0.00000  -0.00740  -0.00740   1.91098
   R15        2.64026  -0.00739   0.00000  -0.02044  -0.02045   2.61981
   R16        2.05470  -0.00075   0.00000  -0.00226  -0.00226   2.05244
   R17        2.05493  -0.00200   0.00000  -0.00442  -0.00442   2.05050
   R18        2.63673   0.00232   0.00000   0.00583   0.00575   2.64248
   R19        2.63839   0.00409   0.00000   0.00913   0.00905   2.64745
   R20        2.64046  -0.00564   0.00000  -0.01642  -0.01642   2.62403
   R21        2.05518  -0.00252   0.00000  -0.00630  -0.00630   2.04888
   R22        2.64366   0.00811   0.00000   0.02085   0.02093   2.66459
   R23        2.05475  -0.00080   0.00000  -0.00237  -0.00237   2.05237
   R24        2.64383  -0.00564   0.00000  -0.03427  -0.03427   2.60956
   R25        2.64348   0.00944   0.00000   0.02473   0.02481   2.66829
   R26        1.91908  -0.00266   0.00000  -0.00795  -0.00795   1.91113
   R27        1.91895  -0.00261   0.00000  -0.00793  -0.00793   1.91102
   R28        2.63996  -0.00708   0.00000  -0.01986  -0.01985   2.62011
   R29        2.05462  -0.00074   0.00000  -0.00225  -0.00225   2.05237
   R30        2.05486  -0.00196   0.00000  -0.00439  -0.00439   2.05047
    A1        1.88490  -0.00197   0.00000  -0.01108  -0.01115   1.87375
    A2        1.86123   0.00460   0.00000   0.02221   0.02224   1.88347
    A3        2.10230  -0.00332   0.00000  -0.02359  -0.02351   2.07879
    A4        1.85411  -0.00179   0.00000   0.00605   0.00600   1.86011
    A5        1.86415   0.00409   0.00000   0.01942   0.01944   1.88359
    A6        1.88352  -0.00164   0.00000  -0.01003  -0.01008   1.87343
    A7        2.09723  -0.00106   0.00000  -0.00353  -0.00349   2.09374
    A8        2.08071   0.00195   0.00000   0.01061   0.01065   2.09137
    A9        2.10478  -0.00087   0.00000  -0.00651  -0.00677   2.09801
   A10        2.08285   0.00218   0.00000   0.00981   0.00971   2.09256
   A11        2.11392  -0.00322   0.00000  -0.02334  -0.02331   2.09061
   A12        2.08626   0.00104   0.00000   0.01369   0.01372   2.09998
   A13        2.10927  -0.00099   0.00000  -0.00285  -0.00275   2.10652
   A14        2.07737   0.00155   0.00000   0.01268   0.01262   2.08999
   A15        2.09654  -0.00056   0.00000  -0.00981  -0.00986   2.08667
   A16        2.09706   0.00123   0.00000   0.01129   0.00971   2.10677
   A17        2.07372  -0.00135   0.00000  -0.00256  -0.00389   2.06983
   A18        2.09699   0.00072   0.00000   0.00791   0.00631   2.10330
   A19        1.99316   0.00213   0.00000   0.03308   0.03189   2.02505
   A20        1.99326   0.00208   0.00000   0.03328   0.03208   2.02534
   A21        1.96110  -0.00260   0.00000   0.00101  -0.00064   1.96047
   A22        2.10854  -0.00090   0.00000  -0.00203  -0.00194   2.10660
   A23        2.09649  -0.00055   0.00000  -0.01068  -0.01072   2.08577
   A24        2.07814   0.00145   0.00000   0.01271   0.01267   2.09081
   A25        2.08352   0.00209   0.00000   0.00906   0.00892   2.09244
   A26        2.11142  -0.00153   0.00000  -0.01039  -0.01035   2.10107
   A27        2.08802  -0.00055   0.00000   0.00155   0.00159   2.08962
   A28        2.09691  -0.00092   0.00000  -0.00339  -0.00331   2.09360
   A29        2.08053   0.00203   0.00000   0.01083   0.01091   2.09143
   A30        2.10575  -0.00110   0.00000  -0.00744  -0.00760   2.09815
   A31        2.08262   0.00229   0.00000   0.00986   0.00973   2.09235
   A32        2.11396  -0.00322   0.00000  -0.02295  -0.02295   2.09102
   A33        2.08655   0.00094   0.00000   0.01326   0.01326   2.09980
   A34        2.10888  -0.00088   0.00000  -0.00225  -0.00217   2.10671
   A35        2.07752   0.00154   0.00000   0.01295   0.01291   2.09043
   A36        2.09677  -0.00066   0.00000  -0.01069  -0.01073   2.08604
   A37        2.09689   0.00111   0.00000   0.01033   0.00881   2.10571
   A38        2.07498  -0.00152   0.00000  -0.00359  -0.00487   2.07011
   A39        2.09692   0.00097   0.00000   0.00899   0.00747   2.10439
   A40        1.98846   0.00226   0.00000   0.03563   0.03417   2.02263
   A41        1.98888   0.00242   0.00000   0.03670   0.03524   2.02413
   A42        1.95637  -0.00261   0.00000   0.00414   0.00213   1.95850
   A43        2.10810  -0.00082   0.00000  -0.00185  -0.00175   2.10635
   A44        2.09656  -0.00054   0.00000  -0.01028  -0.01033   2.08623
   A45        2.07850   0.00136   0.00000   0.01213   0.01208   2.09059
   A46        2.08330   0.00217   0.00000   0.00930   0.00920   2.09250
   A47        2.11136  -0.00156   0.00000  -0.01051  -0.01050   2.10086
   A48        2.08850  -0.00061   0.00000   0.00129   0.00130   2.08980
    D1        0.08980   0.00272   0.00000   0.05652   0.05654   0.14633
    D2       -3.01933   0.00223   0.00000   0.03686   0.03683  -2.98250
    D3       -1.90147  -0.00078   0.00000   0.03320   0.03329  -1.86818
    D4        1.27259  -0.00127   0.00000   0.01354   0.01358   1.28617
    D5        2.37453   0.00005   0.00000   0.03285   0.03283   2.40736
    D6       -0.73460  -0.00044   0.00000   0.01320   0.01312  -0.72148
    D7        2.40507  -0.00012   0.00000   0.02087   0.02080   2.42587
    D8       -0.73687   0.00006   0.00000   0.02388   0.02382  -0.71305
    D9       -1.87070  -0.00108   0.00000   0.02128   0.02134  -1.84936
   D10        1.27055  -0.00090   0.00000   0.02429   0.02436   1.29491
   D11        0.12328   0.00198   0.00000   0.04186   0.04186   0.16514
   D12       -3.01866   0.00216   0.00000   0.04487   0.04488  -2.97378
   D13       -3.13858   0.00013   0.00000  -0.00003   0.00011  -3.13847
   D14       -0.01643   0.00042   0.00000   0.00957   0.00960  -0.00683
   D15       -0.02991   0.00069   0.00000   0.02023   0.02022  -0.00968
   D16        3.09225   0.00097   0.00000   0.02982   0.02971   3.12196
   D17        3.13909  -0.00005   0.00000   0.00200   0.00202   3.14111
   D18        0.02045  -0.00041   0.00000  -0.00926  -0.00918   0.01127
   D19        0.03011  -0.00054   0.00000  -0.01780  -0.01780   0.01230
   D20       -3.08853  -0.00091   0.00000  -0.02906  -0.02901  -3.11754
   D21       -0.02964   0.00049   0.00000   0.01767   0.01771  -0.01193
   D22        3.10698   0.00068   0.00000   0.02017   0.02024   3.12722
   D23        3.13108   0.00025   0.00000   0.00865   0.00859   3.13967
   D24       -0.01549   0.00045   0.00000   0.01115   0.01112  -0.00436
   D25        3.04139   0.00186   0.00000   0.04386   0.04384   3.08523
   D26        0.08726  -0.00187   0.00000  -0.05706  -0.05699   0.03027
   D27       -0.09518   0.00166   0.00000   0.04127   0.04125  -0.05393
   D28       -3.04931  -0.00207   0.00000  -0.05965  -0.05958  -3.10889
   D29        2.81047  -0.00161   0.00000  -0.01680  -0.01656   2.79391
   D30        0.51970  -0.00196   0.00000  -0.08412  -0.08489   0.43481
   D31       -0.52110   0.00194   0.00000   0.08435   0.08512  -0.43598
   D32       -2.81187   0.00160   0.00000   0.01703   0.01679  -2.79508
   D33       -0.08703   0.00201   0.00000   0.05950   0.05940  -0.02762
   D34        3.04890   0.00210   0.00000   0.06053   0.06043   3.10933
   D35       -3.04117  -0.00177   0.00000  -0.04179  -0.04160  -3.08277
   D36        0.09476  -0.00168   0.00000  -0.04076  -0.04057   0.05419
   D37        0.02925  -0.00079   0.00000  -0.02263  -0.02258   0.00667
   D38       -3.13499  -0.00044   0.00000  -0.01168  -0.01161   3.13658
   D39       -3.10674  -0.00087   0.00000  -0.02357  -0.02354  -3.13027
   D40        0.01221  -0.00052   0.00000  -0.01263  -0.01257  -0.00036
   D41        3.13731   0.00046   0.00000   0.00724   0.00718  -3.13870
   D42        0.00726  -0.00017   0.00000  -0.01012  -0.01001  -0.00275
   D43       -0.00394   0.00028   0.00000   0.00418   0.00415   0.00021
   D44       -3.13398  -0.00035   0.00000  -0.01318  -0.01304   3.13616
   D45       -3.13751  -0.00033   0.00000  -0.00519  -0.00512   3.14055
   D46       -0.00279   0.00012   0.00000   0.00860   0.00859   0.00580
   D47        0.00373  -0.00015   0.00000  -0.00216  -0.00210   0.00163
   D48        3.13846   0.00030   0.00000   0.01163   0.01162  -3.13311
   D49        0.04233  -0.00117   0.00000  -0.03312  -0.03320   0.00913
   D50       -3.10519  -0.00114   0.00000  -0.03119  -0.03128  -3.13647
   D51       -3.11063  -0.00058   0.00000  -0.01628  -0.01616  -3.12679
   D52        0.02504  -0.00055   0.00000  -0.01435  -0.01424   0.01079
   D53       -3.03970  -0.00158   0.00000  -0.03941  -0.03935  -3.07905
   D54       -0.07928   0.00203   0.00000   0.05953   0.05941  -0.01987
   D55        0.10789  -0.00161   0.00000  -0.04144  -0.04134   0.06654
   D56        3.06830   0.00199   0.00000   0.05749   0.05742   3.12572
   D57       -0.52395   0.00203   0.00000   0.08754   0.08843  -0.43551
   D58       -2.79891   0.00134   0.00000   0.01209   0.01174  -2.78717
   D59        2.80112  -0.00136   0.00000  -0.01134  -0.01099   2.79012
   D60        0.52615  -0.00205   0.00000  -0.08679  -0.08769   0.43847
   D61        0.07904  -0.00189   0.00000  -0.05741  -0.05731   0.02173
   D62       -3.06918  -0.00196   0.00000  -0.05662  -0.05650  -3.12568
   D63        3.03945   0.00173   0.00000   0.04167   0.04152   3.08097
   D64       -0.10877   0.00166   0.00000   0.04246   0.04232  -0.06645
   D65       -0.04190   0.00093   0.00000   0.02906   0.02908  -0.01281
   D66        3.10647   0.00048   0.00000   0.01550   0.01550   3.12197
   D67        3.10625   0.00100   0.00000   0.02836   0.02836   3.13461
   D68       -0.02857   0.00056   0.00000   0.01480   0.01478  -0.01379
         Item               Value     Threshold  Converged?
 Maximum Force            0.032901     0.000450     NO 
 RMS     Force            0.004640     0.000300     NO 
 Maximum Displacement     0.104173     0.001800     NO 
 RMS     Displacement     0.031245     0.001200     NO 
 Predicted change in Energy=-5.186367D-03
 GradGradGradGradGradGradGradGradGradGradGradGradGradGradGradGradGradGrad

                          Input orientation:                          
 ---------------------------------------------------------------------
 Center     Atomic      Atomic             Coordinates (Angstroms)
 Number     Number       Type             X           Y           Z
 ---------------------------------------------------------------------
      1          8           0        0.140878    2.606592   -1.530740
      2         16           0        0.153659    2.009796   -0.178607
      3          6           0       -1.357938    1.083227    0.008119
      4          6           0       -2.198344    0.888869   -1.092332
      5          6           0       -3.377293    0.170061   -0.944449
      6          6           0       -3.732499   -0.381126    0.303902
      7          7           0       -4.935372   -1.038767    0.467694
      8          6           0       -2.882678   -0.155233    1.408803
      9          6           0       -1.707229    0.564994    1.262028
     10          6           0        1.486385    0.827350   -0.113625
     11          6           0        2.290303    0.743414    1.027438
     12          6           0        3.330064   -0.175703    1.075103
     13          6           0        3.593862   -1.021916   -0.021503
     14          7           0        4.580199   -1.985430    0.054135
     15          6           0        2.763360   -0.932141   -1.159902
     16          6           0        1.726476   -0.012965   -1.208585
     17          8           0        0.292569    2.895144    0.996760
     18          1           0       -1.930308    1.308516   -2.055413
     19          1           0       -4.034893    0.031963   -1.797714
     20          1           0       -4.995006   -1.663791    1.260356
     21          1           0       -5.340114   -1.438787   -0.368244
     22          1           0       -3.157229   -0.547274    2.383764
     23          1           0       -1.068219    0.733159    2.122716
     24          1           0        2.101763    1.400435    1.869049
     25          1           0        3.950340   -0.242668    1.964102
     26          1           0        5.322090   -1.806718    0.717791
     27          1           0        4.932171   -2.329243   -0.829364
     28          1           0        2.943808   -1.587174   -2.007202
     29          1           0        1.109193    0.055417   -2.098331
 ---------------------------------------------------------------------
                    Distance matrix (angstroms):
                    1          2          3          4          5
     1  O    0.000000
     2  S    1.478037   0.000000
     3  C    2.633472   1.782784   0.000000
     4  C    2.935086   2.761030   1.398231   0.000000
     5  C    4.319484   4.054474   2.412271   1.388696   0.000000
     6  C    5.224502   4.588196   2.805416   2.432281   1.410092
     7  N    6.561302   5.967384   4.184746   3.693343   2.425494
     8  C    5.040881   4.052969   2.412578   2.795378   2.426573
     9  C    3.922139   2.761483   1.401021   2.426747   2.795286
    10  C    2.642784   1.782852   2.858403   3.812988   4.977716
    11  C    3.825668   2.761072   3.803176   4.966139   6.028160
    12  C    4.970160   4.054349   4.969982   6.032776   7.013329
    13  C    5.231345   4.588133   5.380783   6.192530   7.132296
    14  N    6.580734   5.967433   6.684328   7.451485   8.304517
    15  C    4.420132   4.053206   4.734034   5.285749   6.242506
    16  C    3.078958   2.761553   3.492222   4.028775   5.113876
    17  O    2.548436   1.478047   2.642844   3.820221   4.966110
    18  H    2.500018   2.890867   2.153260   1.084192   2.150370
    19  H    4.912947   4.906862   3.395921   2.145871   1.086080
    20  H    7.239039   6.486493   4.726782   4.457862   3.292593
    21  H    6.910699   6.489239   4.728629   3.976557   2.602512
    22  H    6.012297   4.905744   3.397009   3.881393   3.411744
    23  H    4.280117   2.901529   2.162869   3.411446   3.880258
    24  H    4.105904   2.891250   3.941220   5.246179   6.280895
    25  H    5.902897   4.907095   5.810480   6.959057   7.894568
    26  H    7.167856   6.487064   7.312879   8.191438   9.074688
    27  H    6.914542   6.487290   7.204985   7.827493   8.677959
    28  H    5.066666   4.905801   5.449548   5.780095   6.646325
    29  H    2.787165   2.901377   3.402979   3.556188   4.633913
                    6          7          8          9         10
     6  C    0.000000
     7  N    1.380660   0.000000
     8  C    1.412101   2.424844   0.000000
     9  C    2.432050   3.691060   1.386344   0.000000
    10  C    5.373220   6.712621   4.729902   3.487180   0.000000
    11  C    6.169460   7.463234   5.264289   4.008383   1.398340
    12  C    7.107513   8.332542   6.221731   5.094889   2.412124
    13  C    7.361526   8.543268   6.688983   5.680432   2.805304
    14  N    8.469777   9.571483   7.802518   6.891692   4.184681
    15  C    6.681506   7.869619   6.251366   5.300314   2.412710
    16  C    5.676580   6.945675   5.302383   4.269461   1.400968
    17  O    5.235949   6.564063   4.422303   3.082070   2.633235
    18  H    3.416015   4.572332   3.879480   3.407053   3.959274
    19  H    2.163071   2.662592   3.412388   3.881258   5.826947
    20  H    2.038125   1.011199   2.599944   3.972022   7.078279
    21  H    2.038346   1.011249   3.293083   4.457665   7.197311
    22  H    2.164339   2.659827   1.086104   2.144278   5.448825
    23  H    3.412932   4.564394   2.142702   1.085079   3.396482
[...]
    36    C    3  S      Val( 2S)     0.97503
    37    C    3  S      Ryd( 3S)     0.00324
    38    C    3  S      Ryd( 4S)     0.00007
    39    C    3  px     Val( 2p)     1.08636
    40    C    3  px     Ryd( 3p)     0.00688
    41    C    3  py     Val( 2p)     1.16889
    42    C    3  py     Ryd( 3p)     0.00700
    43    C    3  pz     Val( 2p)     1.10778
    44    C    3  pz     Ryd( 3p)     0.01021
    45    C    3  dxy    Ryd( 3d)     0.00058
    46    C    3  dxz    Ryd( 3d)     0.00057
    47    C    3  dyz    Ryd( 3d)     0.00064
    48    C    3  dx2y2  Ryd( 3d)     0.00074
    49    C    3  dz2    Ryd( 3d)     0.00069

    50    C    4  S      Cor( 1S)     1.99901
    51    C    4  S      Val( 2S)     0.95335
    52    C    4  S      Ryd( 3S)     0.00094
    53    C    4  S      Ryd( 4S)     0.00005
    54    C    4  px     Val( 2p)     1.06866
    55    C    4  px     Ryd( 3p)     0.00453
    56    C    4  py     Val( 2p)     1.03876
    57    C    4  py     Ryd( 3p)     0.00380
    58    C    4  pz     Val( 2p)     1.17402
    59    C    4  pz     Ryd( 3p)     0.00554
    60    C    4  dxy    Ryd( 3d)     0.00041
    61    C    4  dxz    Ryd( 3d)     0.00059
    62    C    4  dyz    Ryd( 3d)     0.00052
    63    C    4  dx2y2  Ryd( 3d)     0.00060
    64    C    4  dz2    Ryd( 3d)     0.00056

    65    C    5  S      Cor( 1S)     1.99906
    66    C    5  S      Val( 2S)     0.96124
    67    C    5  S      Ryd( 3S)     0.00069
    68    C    5  S      Ryd( 4S)     0.00004
    69    C    5  px     Val( 2p)     1.07415
    70    C    5  px     Ryd( 3p)     0.00315
    71    C    5  py     Val( 2p)     1.04324
    72    C    5  py     Ryd( 3p)     0.00224
    73    C    5  pz     Val( 2p)     1.15515
    74    C    5  pz     Ryd( 3p)     0.00453
    75    C    5  dxy    Ryd( 3d)     0.00039
    76    C    5  dxz    Ryd( 3d)     0.00064
    77    C    5  dyz    Ryd( 3d)     0.00052
    78    C    5  dx2y2  Ryd( 3d)     0.00059
    79    C    5  dz2    Ryd( 3d)     0.00054

    80    C    6  S      Cor( 1S)     1.99902
    81    C    6  S      Val( 2S)     0.84591
    82    C    6  S      Ryd( 3S)     0.00129
    83    C    6  S      Ryd( 4S)     0.00010
    84    C    6  px     Val( 2p)     0.92750
    85    C    6  px     Ryd( 3p)     0.00492
    86    C    6  py     Val( 2p)     0.97086
    87    C    6  py     Ryd( 3p)     0.00324
    88    C    6  pz     Val( 2p)     1.09215
    89    C    6  pz     Ryd( 3p)     0.00452
    90    C    6  dxy    Ryd( 3d)     0.00078
    91    C    6  dxz    Ryd( 3d)     0.00074
    92    C    6  dyz    Ryd( 3d)     0.00073
    93    C    6  dx2y2  Ryd( 3d)     0.00155
    94    C    6  dz2    Ryd( 3d)     0.00079

    95    N    7  S      Cor( 1S)     1.99948
    96    N    7  S      Val( 2S)     1.34561
    97    N    7  S      Ryd( 3S)     0.00015
    98    N    7  S      Ryd( 4S)     0.00001
    99    N    7  px     Val( 2p)     1.48855
   100    N    7  px     Ryd( 3p)     0.00372
   101    N    7  py     Val( 2p)     1.48613
   102    N    7  py     Ryd( 3p)     0.00323
   103    N    7  pz     Val( 2p)     1.43068
   104    N    7  pz     Ryd( 3p)     0.00195
   105    N    7  dxy    Ryd( 3d)     0.00071
   106    N    7  dxz    Ryd( 3d)     0.00020
   107    N    7  dyz    Ryd( 3d)     0.00079
   108    N    7  dx2y2  Ryd( 3d)     0.00073
   109    N    7  dz2    Ryd( 3d)     0.00042

   110    C    8  S      Cor( 1S)     1.99906
   111    C    8  S      Val( 2S)     0.96124
   112    C    8  S      Ryd( 3S)     0.00069
   113    C    8  S      Ryd( 4S)     0.00004
   114    C    8  px     Val( 2p)     1.07412
   115    C    8  px     Ryd( 3p)     0.00315
   116    C    8  py     Val( 2p)     1.04328
   117    C    8  py     Ryd( 3p)     0.00224
   118    C    8  pz     Val( 2p)     1.15515
   119    C    8  pz     Ryd( 3p)     0.00453
   120    C    8  dxy    Ryd( 3d)     0.00039
   121    C    8  dxz    Ryd( 3d)     0.00064
   122    C    8  dyz    Ryd( 3d)     0.00052
   123    C    8  dx2y2  Ryd( 3d)     0.00059
   124    C    8  dz2    Ryd( 3d)     0.00054

   125    C    9  S      Cor( 1S)     1.99901
   126    C    9  S      Val( 2S)     0.95335
   127    C    9  S      Ryd( 3S)     0.00094
   128    C    9  S      Ryd( 4S)     0.00005
   129    C    9  px     Val( 2p)     1.06869
   130    C    9  px     Ryd( 3p)     0.00453
   131    C    9  py     Val( 2p)     1.03872
   132    C    9  py     Ryd( 3p)     0.00380
   133    C    9  pz     Val( 2p)     1.17402
   134    C    9  pz     Ryd( 3p)     0.00554
   135    C    9  dxy    Ryd( 3d)     0.00041
   136    C    9  dxz    Ryd( 3d)     0.00059
   137    C    9  dyz    Ryd( 3d)     0.00052
   138    C    9  dx2y2  Ryd( 3d)     0.00060
   139    C    9  dz2    Ryd( 3d)     0.00056

   140    C   10  S      Cor( 1S)     1.99872
   141    C   10  S      Val( 2S)     0.97524
   142    C   10  S      Ryd( 3S)     0.00325
   143    C   10  S      Ryd( 4S)     0.00007
   144    C   10  px     Val( 2p)     1.08629
   145    C   10  px     Ryd( 3p)     0.00688
   146    C   10  py     Val( 2p)     1.16810
   147    C   10  py     Ryd( 3p)     0.00699
   148    C   10  pz     Val( 2p)     1.10774
   149    C   10  pz     Ryd( 3p)     0.01021
   150    C   10  dxy    Ryd( 3d)     0.00058
   151    C   10  dxz    Ryd( 3d)     0.00057
   152    C   10  dyz    Ryd( 3d)     0.00065
   153    C   10  dx2y2  Ryd( 3d)     0.00073
   154    C   10  dz2    Ryd( 3d)     0.00069

   155    C   11  S      Cor( 1S)     1.99901
   156    C   11  S      Val( 2S)     0.95347
   157    C   11  S      Ryd( 3S)     0.00095
   158    C   11  S      Ryd( 4S)     0.00005
   159    C   11  px     Val( 2p)     1.06690
   160    C   11  px     Ryd( 3p)     0.00453
   161    C   11  py     Val( 2p)     1.04009
   162    C   11  py     Ryd( 3p)     0.00380
   163    C   11  pz     Val( 2p)     1.17407
   164    C   11  pz     Ryd( 3p)     0.00554
   165    C   11  dxy    Ryd( 3d)     0.00041
   166    C   11  dxz    Ryd( 3d)     0.00059
   167    C   11  dyz    Ryd( 3d)     0.00053
   168    C   11  dx2y2  Ryd( 3d)     0.00061
   169    C   11  dz2    Ryd( 3d)     0.00056

   170    C   12  S      Cor( 1S)     1.99906
   171    C   12  S      Val( 2S)     0.96143
   172    C   12  S      Ryd( 3S)     0.00070
   173    C   12  S      Ryd( 4S)     0.00004
   174    C   12  px     Val( 2p)     1.07361
   175    C   12  px     Ryd( 3p)     0.00328
   176    C   12  py     Val( 2p)     1.04323
   177    C   12  py     Ryd( 3p)     0.00211
   178    C   12  pz     Val( 2p)     1.15519
   179    C   12  pz     Ryd( 3p)     0.00453
   180    C   12  dxy    Ryd( 3d)     0.00038
   181    C   12  dxz    Ryd( 3d)     0.00064
   182    C   12  dyz    Ryd( 3d)     0.00052
   183    C   12  dx2y2  Ryd( 3d)     0.00060
   184    C   12  dz2    Ryd( 3d)     0.00054

   185    C   13  S      Cor( 1S)     1.99902
   186    C   13  S      Val( 2S)     0.84606
   187    C   13  S      Ryd( 3S)     0.00132
   188    C   13  S      Ryd( 4S)     0.00010
   189    C   13  px     Val( 2p)     0.94415
   190    C   13  px     Ryd( 3p)     0.00424
   191    C   13  py     Val( 2p)     0.95353
   192    C   13  py     Ryd( 3p)     0.00388
   193    C   13  pz     Val( 2p)     1.09210
   194    C   13  pz     Ryd( 3p)     0.00452
   195    C   13  dxy    Ryd( 3d)     0.00083
   196    C   13  dxz    Ryd( 3d)     0.00080
   197    C   13  dyz    Ryd( 3d)     0.00067
   198    C   13  dx2y2  Ryd( 3d)     0.00150
   199    C   13  dz2    Ryd( 3d)     0.00079

   200    N   14  S      Cor( 1S)     1.99948
   201    N   14  S      Val( 2S)     1.34616
   202    N   14  S      Ryd( 3S)     0.00016
   203    N   14  S      Ryd( 4S)     0.00001
   204    N   14  px     Val( 2p)     1.39340
   205    N   14  px     Ryd( 3p)     0.00259
   206    N   14  py     Val( 2p)     1.57966
   207    N   14  py     Ryd( 3p)     0.00432
   208    N   14  pz     Val( 2p)     1.43080
   209    N   14  pz     Ryd( 3p)     0.00195
   210    N   14  dxy    Ryd( 3d)     0.00062
   211    N   14  dxz    Ryd( 3d)     0.00074
   212    N   14  dyz    Ryd( 3d)     0.00024
   213    N   14  dx2y2  Ryd( 3d)     0.00083
   214    N   14  dz2    Ryd( 3d)     0.00042

   215    C   15  S      Cor( 1S)     1.99906
   216    C   15  S      Val( 2S)     0.96143
   217    C   15  S      Ryd( 3S)     0.00070
   218    C   15  S      Ryd( 4S)     0.00004
   219    C   15  px     Val( 2p)     1.07359
   220    C   15  px     Ryd( 3p)     0.00328
   221    C   15  py     Val( 2p)     1.04326
   222    C   15  py     Ryd( 3p)     0.00211
   223    C   15  pz     Val( 2p)     1.15520
   224    C   15  pz     Ryd( 3p)     0.00453
   225    C   15  dxy    Ryd( 3d)     0.00038
   226    C   15  dxz    Ryd( 3d)     0.00064
   227    C   15  dyz    Ryd( 3d)     0.00052
   228    C   15  dx2y2  Ryd( 3d)     0.00060
   229    C   15  dz2    Ryd( 3d)     0.00054

   230    C   16  S      Cor( 1S)     1.99901
   231    C   16  S      Val( 2S)     0.95347
   232    C   16  S      Ryd( 3S)     0.00095
   233    C   16  S      Ryd( 4S)     0.00005
   234    C   16  px     Val( 2p)     1.06693
   235    C   16  px     Ryd( 3p)     0.00452
   236    C   16  py     Val( 2p)     1.04006
   237    C   16  py     Ryd( 3p)     0.00380
   238    C   16  pz     Val( 2p)     1.17406
   239    C   16  pz     Ryd( 3p)     0.00554
   240    C   16  dxy    Ryd( 3d)     0.00041
   241    C   16  dxz    Ryd( 3d)     0.00059
   242    C   16  dyz    Ryd( 3d)     0.00053
   243    C   16  dx2y2  Ryd( 3d)     0.00061
   244    C   16  dz2    Ryd( 3d)     0.00056

   245    O   17  S      Cor( 1S)     1.99989
   246    O   17  S      Val( 2S)     1.82657
   247    O   17  S      Ryd( 3S)     0.00119
   248    O   17  S      Ryd( 4S)     0.00005
   249    O   17  px     Val( 2p)     1.83036
   250    O   17  px     Ryd( 3p)     0.00075
   251    O   17  py     Val( 2p)     1.72924
   252    O   17  py     Ryd( 3p)     0.00071
   253    O   17  pz     Val( 2p)     1.60182
   254    O   17  pz     Ryd( 3p)     0.00067
   255    O   17  dxy    Ryd( 3d)     0.00119
   256    O   17  dxz    Ryd( 3d)     0.00328
   257    O   17  dyz    Ryd( 3d)     0.00438
   258    O   17  dx2y2  Ryd( 3d)     0.00145
   259    O   17  dz2    Ryd( 3d)     0.00470

   260    H   18  S      Val( 1S)     0.73618
   261    H   18  S      Ryd( 2S)     0.00134
   262    H   18  px     Ryd( 2p)     0.00014
   263    H   18  py     Ryd( 2p)     0.00015
   264    H   18  pz     Ryd( 2p)     0.00032

   265    H   19  S      Val( 1S)     0.74537
   266    H   19  S      Ryd( 2S)     0.00089
   267    H   19  px     Ryd( 2p)     0.00013
   268    H   19  py     Ryd( 2p)     0.00012
   269    H   19  pz     Ryd( 2p)     0.00034

   270    H   20  S      Val( 1S)     0.56727
   271    H   20  S      Ryd( 2S)     0.00132
   272    H   20  px     Ryd( 2p)     0.00033
   273    H   20  py     Ryd( 2p)     0.00042
   274    H   20  pz     Ryd( 2p)     0.00046

   275    H   21  S      Val( 1S)     0.56727
   276    H   21  S      Ryd( 2S)     0.00132
   277    H   21  px     Ryd( 2p)     0.00033
   278    H   21  py     Ryd( 2p)     0.00042
   279    H   21  pz     Ryd( 2p)     0.00046

   280    H   22  S      Val( 1S)     0.74537
   281    H   22  S      Ryd( 2S)     0.00089
   282    H   22  px     Ryd( 2p)     0.00013
   283    H   22  py     Ryd( 2p)     0.00012
   284    H   22  pz     Ryd( 2p)     0.00034

   285    H   23  S      Val( 1S)     0.73619
   286    H   23  S      Ryd( 2S)     0.00134
   287    H   23  px     Ryd( 2p)     0.00014
   288    H   23  py     Ryd( 2p)     0.00015
   289    H   23  pz     Ryd( 2p)     0.00032

   290    H   24  S      Val( 1S)     0.73606
   291    H   24  S      Ryd( 2S)     0.00135
   292    H   24  px     Ryd( 2p)     0.00014
   293    H   24  py     Ryd( 2p)     0.00015
   294    H   24  pz     Ryd( 2p)     0.00032

   295    H   25  S      Val( 1S)     0.74528
   296    H   25  S      Ryd( 2S)     0.00090
   297    H   25  px     Ryd( 2p)     0.00013
   298    H   25  py     Ryd( 2p)     0.00012
   299    H   25  pz     Ryd( 2p)     0.00034

   300    H   26  S      Val( 1S)     0.56767
   301    H   26  S      Ryd( 2S)     0.00147
   302    H   26  px     Ryd( 2p)     0.00036
   303    H   26  py     Ryd( 2p)     0.00038
   304    H   26  pz     Ryd( 2p)     0.00046

   305    H   27  S      Val( 1S)     0.56767
   306    H   27  S      Ryd( 2S)     0.00147
   307    H   27  px     Ryd( 2p)     0.00036
   308    H   27  py     Ryd( 2p)     0.00038
   309    H   27  pz     Ryd( 2p)     0.00046

   310    H   28  S      Val( 1S)     0.74528
   311    H   28  S      Ryd( 2S)     0.00090
   312    H   28  px     Ryd( 2p)     0.00013
   313    H   28  py     Ryd( 2p)     0.00012
   314    H   28  pz     Ryd( 2p)     0.00034

   315    H   29  S      Val( 1S)     0.73606
   316    H   29  S      Ryd( 2S)     0.00135
   317    H   29  px     Ryd( 2p)     0.00014
   318    H   29  py     Ryd( 2p)     0.00015
   319    H   29  pz     Ryd( 2p)     0.00032

 WARNING:  1 low occupancy (<1.9990e) core orbital  found on  S    2
           1 low occupancy (<1.9990e) core orbital  found on  C    3
           1 low occupancy (<1.9990e) core orbital  found on  C   10


 Summary of Natural Population Analysis:                  
                                                          
                                       Natural Population 
                Natural  -----------------------------------------------
    Atom  No    Charge         Core      Valence    Rydberg      Total
 -----------------------------------------------------------------------
      O    1   -1.00626      1.99989     6.98799    0.01838     9.00626
      S    2    2.18670      9.99833     3.61038    0.20459    13.81330
      C    3   -0.36739      1.99872     4.33805    0.03062     6.36739
      C    4   -0.25136      1.99901     4.23479    0.01755     6.25136
      C    5   -0.24616      1.99906     4.23378    0.01333     6.24616
      C    6    0.14592      1.99902     3.83642    0.01865     5.85408
      N    7   -0.76237      1.99948     5.75098    0.01192     7.76237
      C    8   -0.24618      1.99906     4.23379    0.01333     6.24618
      C    9   -0.25135      1.99901     4.23478    0.01755     6.25135
      C   10   -0.36671      1.99872     4.33737    0.03063     6.36671
      C   11   -0.25110      1.99901     4.23453    0.01755     6.25110
      C   12   -0.24587      1.99906     4.23347    0.01334     6.24587
      C   13    0.14650      1.99902     3.83584    0.01864     5.85350
      N   14   -0.76138      1.99948     5.75003    0.01188     7.76138
      C   15   -0.24588      1.99906     4.23348    0.01334     6.24588
      C   16   -0.25107      1.99901     4.23451    0.01755     6.25107
      O   17   -1.00625      1.99989     6.98799    0.01838     9.00625
      H   18    0.26187      0.00000     0.73618    0.00195     0.73813
      H   19    0.25315      0.00000     0.74537    0.00148     0.74685
      H   20    0.43022      0.00000     0.56727    0.00252     0.56978
      H   21    0.43022      0.00000     0.56727    0.00252     0.56978
      H   22    0.25315      0.00000     0.74537    0.00148     0.74685
      H   23    0.26186      0.00000     0.73619    0.00195     0.73814
      H   24    0.26198      0.00000     0.73606    0.00195     0.73802
      H   25    0.25323      0.00000     0.74528    0.00149     0.74677
      H   26    0.42967      0.00000     0.56767    0.00267     0.57033
      H   27    0.42967      0.00000     0.56767    0.00267     0.57033
      H   28    0.25323      0.00000     0.74528    0.00149     0.74677
      H   29    0.26198      0.00000     0.73606    0.00195     0.73802
 =======================================================================
   * Total *   -0.00000     41.98482    87.50383    0.51135   130.00000

                                 Natural Population      
 --------------------------------------------------------
   Core                      41.98482 ( 99.9639% of  42)
   Valence                   87.50383 ( 99.4362% of  88)
   Natural Minimal Basis    129.48865 ( 99.6067% of 130)
   Natural Rydberg Basis      0.51135 (  0.3933% of 130)
 --------------------------------------------------------

    Atom  No          Natural Electron Configuration
 ----------------------------------------------------------------------------
      O    1      [core]2S( 1.83)2p( 5.16)3d( 0.01)
      S    2      [core]3S( 1.06)3p( 2.55)4S( 0.01)3d( 0.15)4p( 0.04)
      C    3      [core]2S( 0.98)2p( 3.36)3p( 0.02)
      C    4      [core]2S( 0.95)2p( 3.28)3p( 0.01)
      C    5      [core]2S( 0.96)2p( 3.27)3p( 0.01)
      C    6      [core]2S( 0.85)2p( 2.99)3p( 0.01)
      N    7      [core]2S( 1.35)2p( 4.41)3p( 0.01)
      C    8      [core]2S( 0.96)2p( 3.27)3p( 0.01)
      C    9      [core]2S( 0.95)2p( 3.28)3p( 0.01)
      C   10      [core]2S( 0.98)2p( 3.36)3p( 0.02)
      C   11      [core]2S( 0.95)2p( 3.28)3p( 0.01)
      C   12      [core]2S( 0.96)2p( 3.27)3p( 0.01)
      C   13      [core]2S( 0.85)2p( 2.99)3p( 0.01)
      N   14      [core]2S( 1.35)2p( 4.40)3p( 0.01)
      C   15      [core]2S( 0.96)2p( 3.27)3p( 0.01)
      C   16      [core]2S( 0.95)2p( 3.28)3p( 0.01)
      O   17      [core]2S( 1.83)2p( 5.16)3d( 0.01)
      H   18            1S( 0.74)
      H   19            1S( 0.75)
      H   20            1S( 0.57)
      H   21            1S( 0.57)
      H   22            1S( 0.75)
      H   23            1S( 0.74)
      H   24            1S( 0.74)
      H   25            1S( 0.75)
      H   26            1S( 0.57)
      H   27            1S( 0.57)
      H   28            1S( 0.75)
      H   29            1S( 0.74)


 NBO analysis skipped by request.
 1\1\GINC-DRG2-W004\SP\RB3LYP TD-FC\6-31G(d,p)\C12H12N2O2S1\QDUEZ\18-Ju
 l-2024\0\\# TD(NStates=10, Root=1) B3LYP/6-31G** SCRF=(Solvent=water) 
 volume pop=NPA density=current Geom=AllCheck Guess=Read\\MQJKPEGWNLWLT
 K-UHFFFAOYSA-N_conf_0\\0,1\O,0,0.115041494,2.6254196459,-1.5187334805\
 S,0,0.1524089857,2.0156839335,-0.1694613031\C,0,-1.3631030286,1.102659
 3816,0.0459956816\C,0,-2.0468652511,0.610139554,-1.0723572518\C,0,-3.2
 163242466,-0.1167014193,-0.9045294268\C,0,-3.7275933856,-0.3713415302,
 0.387279478\N,0,-4.9164995693,-1.0464425818,0.5520260631\C,0,-3.024548
 902,0.1332319326,1.5035885403\C,0,-1.8552101381,0.8599255939,1.3343028
 88\C,0,1.4888254209,0.8363993301,-0.1530909686\C,0,2.1033261721,0.4937
 3785,1.05760317\C,0,3.1348591095,-0.433539552,1.0728111268\C,0,3.57302
 94945,-1.0440200761,-0.1232573392\N,0,4.5597701504,-2.0043488879,-0.10
 18313445\C,0,2.9431004598,-0.684285711,-1.3352982918\C,0,1.911691134,0
 .2431533262,-1.3489404207\O,0,0.3165767326,2.8889701049,1.0154990677\H
 ,0,-1.6689340857,0.808116412,-2.0693932392\H,0,-3.7499785698,-0.490842
 3655,-1.7732004424\H,0,-5.0932221631,-1.4522909106,1.4601752555\H,0,-5
 .2266171796,-1.6261738362,-0.2150579363\H,0,-3.4094369257,-0.047031698
 8,2.502950244\H,0,-1.3290885058,1.2510441739,2.1982075713\H,0,1.785176
 1324,0.9671694884,1.9799630532\H,0,3.6157117816,-0.6916172576,2.011766
 86\H,0,5.1703799245,-2.0192462363,0.7028802589\H,0,5.0369913012,-2.193
 6744879,-0.9719131623\H,0,3.2751553174,-1.1369303485,-2.2649832948\H,0
 ,1.4453783401,0.5228361725,-2.2872557635\\Version=ES64L-G16RevA.03\Sta
 te=1-A\HF=-1122.6304449\RMSD=7.178e-09\Dipole=0.063197,-5.0186134,0.51
 6692\Quadrupole=32.6000212,-22.9267501,-9.673271,-0.8766609,-3.2767917
 ,1.4366437\PG=C01 [X(C12H12N2O2S1)]\\@


 I am not a vegetarian because I love animals;
 I am a vegetarian because I hate plants.
                               -- A. Whitney Brown
 Job cpu time:       0 days  0 hours 51 minutes 24.1 seconds.
 Elapsed time:       0 days  0 hours 17 minutes 10.6 seconds.
 File lengths (MBytes):  RWF=    866 Int=      0 D2E=      0 Chk=     53 Scr=      1
 Normal termination of Gaussian 16 at Thu Jul 18 15:11:15 2024.
