 Entering Gaussian System, Link 0=g16
 Initial command:
 /opt/sw/arch/manual/gaussian/G16_A03/g16/l1.exe "/scratch/1380824/Gau-30926.inp" -scrdir="/scratch/1380824/"
 Entering Link 1 = /opt/sw/arch/manual/gaussian/G16_A03/g16/l1.exe PID=     30927.
  
 Copyright (c) 1988,1990,1992,1993,1995,1998,2003,2009,2016,
            Gaussian, Inc.  All Rights Reserved.
  
 This is part of the Gaussian(R) 16 program.  It is based on
 the Gaussian(R) 09 system (copyright 2009, Gaussian, Inc.),
 the Gaussian(R) 03 system (copyright 2003, Gaussian, Inc.),
 the Gaussian(R) 98 system (copyright 1998, Gaussian, Inc.),
 the Gaussian(R) 94 system (copyright 1995, Gaussian, Inc.),
 the Gaussian 92(TM) system (copyright 1992, Gaussian, Inc.),
 the Gaussian 90(TM) system (copyright 1990, Gaussian, Inc.),
 the Gaussian 88(TM) system (copyright 1988, Gaussian, Inc.),
 the Gaussian 86(TM) system (copyright 1986, Carnegie Mellon
 University), and the Gaussian 82(TM) system (copyright 1983,
 Carnegie Mellon University). Gaussian is a federally registered
 trademark of Gaussian, Inc.
  
 This software contains proprietary and confidential information,
 including trade secrets, belonging to Gaussian, Inc.
  
 This software is provided under written license and may be
 used, copied, transmitted, or stored only in accord with that
 written license.
  
 The following legend is applicable only to US Government
 contracts under FAR:
  
                    RESTRICTED RIGHTS LEGEND
  
 Use, reproduction and disclosure by the US Government is
 subject to restrictions as set forth in subparagraphs (a)
 and (c) of the Commercial Computer Software - Restricted
 Rights clause in FAR 52.227-19.
  
 Gaussian, Inc.
 340 Quinnipiac St., Bldg. 40, Wallingford CT 06492
  
  
 ---------------------------------------------------------------
 Warning -- This program may not be used in any manner that
 competes with the business of Gaussian, Inc. or will provide
 assistance to any competitor of Gaussian, Inc.  The licensee
 of this program is prohibited from giving any competitor of
 Gaussian, Inc. access to this program.  By using this program,
 the user acknowledges that Gaussian, Inc. is engaged in the
 business of creating and licensing software in the field of
 computational chemistry and represents and warrants to the
 licensee that it is not a competitor of Gaussian, Inc. and that
 it will not use this program in any manner prohibited above.
 ---------------------------------------------------------------
  

 Cite this work as:
 Gaussian 16, Revision A.03,
 M. J. Frisch, G. W. Trucks, H. B. Schlegel, G. E. Scuseria, 
 M. A. Robb, J. R. Cheeseman, G. Scalmani, V. Barone, 
 G. A. Petersson, H. Nakatsuji, X. Li, M. Caricato, A. V. Marenich, 
 J. Bloino, B. G. Janesko, R. Gomperts, B. Mennucci, H. P. Hratchian, 
 J. V. Ortiz, A. F. Izmaylov, J. L. Sonnenberg, D. Williams-Young, 
 F. Ding, F. Lipparini, F. Egidi, J. Goings, B. Peng, A. Petrone, 
 T. Henderson, D. Ranasinghe, V. G. Zakrzewski, J. Gao, N. Rega, 
 G. Zheng, W. Liang, M. Hada, M. Ehara, K. Toyota, R. Fukuda, 
 J. Hasegawa, M. Ishida, T. Nakajima, Y. Honda, O. Kitao, H. Nakai, 
 T. Vreven, K. Throssell, J. A. Montgomery, Jr., J. E. Peralta, 
 F. Ogliaro, M. J. Bearpark, J. J. Heyd, E. N. Brothers, K. N. Kudin, 
 V. N. Staroverov, T. A. Keith, R. Kobayashi, J. Normand, 
 K. Raghavachari, A. P. Rendell, J. C. Burant, S. S. Iyengar, 
 J. Tomasi, M. Cossi, J. M. Millam, M. Klene, C. Adamo, R. Cammi, 
 J. W. Ochterski, R. L. Martin, K. Morokuma, O. Farkas, 
 J. B. Foresman, and D. J. Fox, Gaussian, Inc., Wallingford CT, 2016.
 
 ******************************************
 Gaussian 16:  ES64L-G16RevA.03 25-Dec-2016
                17-Jul-2024 
 ******************************************
 %nprocshared=7
 Will use up to    7 processors via shared memory.
 %mem=14GB
 %Chk=GDGWSSXWLLHGGV-SFHVURJKSA-N_conf_1_0.chk
 -------------------------------------------------------
 # opt=CalcFc B3LYP/6-31G** SCRF=(Solvent=water) scf=xqc
 -------------------------------------------------------
 1/10=4,18=20,19=15,26=3,38=1/1,3;
 2/9=110,12=2,17=6,18=5,40=1/2;
 3/5=1,6=6,7=101,11=2,25=1,30=1,70=2201,71=2,72=1,74=-5,140=1/1,2,3;
 4//1;
 5/5=2,8=3,13=1,38=5,53=1/2,8;
 8/6=4,10=90,11=11/1;
 11/6=1,8=1,9=11,15=111,16=1/1,2,10;
 10/6=1,13=1/2;
 6/7=2,8=2,9=2,10=2,28=1/1;
 7/10=1,18=20,25=1/1,2,3,16;
 1/10=4,18=20,19=15,26=3/3(2);
 2/9=110/2;
 99//99;
 2/9=110/2;
 3/5=1,6=6,7=101,11=2,25=1,30=1,70=2205,71=1,72=1,74=-5/1,2,3;
 4/5=5,16=3,69=1/1;
 5/5=2,8=3,13=1,38=5,53=1/2,8;
 7//1,2,3,16;
 1/18=20,19=15,26=3/3(-5);
 2/9=110/2;
 6/7=2,8=2,9=2,10=2,19=2,28=1/1;
 99/9=1/99;
 ----------------------------------
 GDGWSSXWLLHGGV-SFHVURJKSA-N_conf_1
 ----------------------------------
 Symbolic Z-matrix:
 Charge =  0 Multiplicity = 1
 N                    -2.23069  -3.53137   1.60787 
 C                    -2.16338  -2.27391   0.99302 
 C                    -0.98169  -1.85883   0.37312 
 C                    -0.8836   -0.55951  -0.1233 
 C                    -1.94518   0.3406    0.01645 
 C                    -1.64309   1.67337  -0.62106 
 C                    -1.93067   2.84906   0.32352 
 C                    -2.44076   1.85594  -1.91862 
 C                    -0.11635   1.56044  -0.89238 
 C                     0.29296   0.05233  -0.86712 
 C                     1.63737  -0.10101  -0.1351 
 C                     2.84133  -0.34589  -0.81316 
 C                     4.0545   -0.46263  -0.12071 
 C                     4.10003  -0.37311   1.2693 
 N                     5.32843  -0.37514   1.93987 
 C                     2.9263   -0.05574   1.94805 
 C                     1.7121    0.06176   1.26175 
 C                     0.29646  -0.53368  -2.29489 
 C                    -3.1054   -0.04396   0.67422 
 C                    -3.19711  -1.34414   1.18174 
 H                    -1.62175  -4.22355   1.18313 
 H                    -3.17773  -3.87307   1.7342 
 H                    -0.14002  -2.5387    0.27939 
 H                    -1.42021   2.7257    1.28607 
 H                    -1.59398   3.79475  -0.11605 
 H                    -3.00187   2.94437   0.53458 
 H                    -3.51739   1.90752  -1.71746 
 H                    -2.28792   1.03072  -2.62033 
 H                    -2.15354   2.78293  -2.42748 
 H                     0.17073   2.04483  -1.83453 
 H                     0.42647   2.11397  -0.11276 
 H                     2.87341  -0.43646  -1.89505 
 H                     4.96825  -0.62416  -0.68649 
 H                     5.25246  -0.61603   2.92312 
 H                     6.04938  -0.91041   1.46703 
 H                     2.93915   0.10333   3.0228 
 H                     0.81792   0.29567   1.83786 
 H                     0.96499   0.02486  -2.9596 
 H                    -0.69694  -0.51455  -2.75509 
 H                     0.62062  -1.58178  -2.29464 
 H                    -3.93147   0.64764   0.80654 
 H                    -4.09214  -1.63216   1.72699 
 

 GradGradGradGradGradGradGradGradGradGradGradGradGradGradGradGradGradGrad
 Berny optimization.
 Initialization pass.
                           ----------------------------
                           !    Initial Parameters    !
                           ! (Angstroms and Degrees)  !
 --------------------------                            --------------------------
 ! Name  Definition              Value          Derivative Info.                !
 --------------------------------------------------------------------------------
 ! R1    R(1,2)                  1.4014         calculate D2E/DX2 analytically  !
 ! R2    R(1,21)                 1.015          calculate D2E/DX2 analytically  !
 ! R3    R(1,22)                 1.0147         calculate D2E/DX2 analytically  !
 ! R4    R(2,3)                  1.3975         calculate D2E/DX2 analytically  !
 ! R5    R(2,20)                 1.4031         calculate D2E/DX2 analytically  !
 ! R6    R(3,4)                  1.3944         calculate D2E/DX2 analytically  !
 ! R7    R(3,23)                 1.086          calculate D2E/DX2 analytically  !
 ! R8    R(4,5)                  1.3988         calculate D2E/DX2 analytically  !
 ! R9    R(4,10)                 1.5205         calculate D2E/DX2 analytically  !
 ! R10   R(5,6)                  1.508          calculate D2E/DX2 analytically  !
 ! R11   R(5,19)                 1.388          calculate D2E/DX2 analytically  !
 ! R12   R(6,7)                  1.5353         calculate D2E/DX2 analytically  !
 ! R13   R(6,8)                  1.534          calculate D2E/DX2 analytically  !
 ! R14   R(6,9)                  1.5548         calculate D2E/DX2 analytically  !
 ! R15   R(7,24)                 1.0965         calculate D2E/DX2 analytically  !
 ! R16   R(7,25)                 1.0959         calculate D2E/DX2 analytically  !
 ! R17   R(7,26)                 1.096          calculate D2E/DX2 analytically  !
 ! R18   R(8,27)                 1.0965         calculate D2E/DX2 analytically  !
 ! R19   R(8,28)                 1.094          calculate D2E/DX2 analytically  !
 ! R20   R(8,29)                 1.0958         calculate D2E/DX2 analytically  !
 ! R21   R(9,10)                 1.5629         calculate D2E/DX2 analytically  !
 ! R22   R(9,30)                 1.0976         calculate D2E/DX2 analytically  !
 ! R23   R(9,31)                 1.0995         calculate D2E/DX2 analytically  !
 ! R24   R(10,11)                1.5384         calculate D2E/DX2 analytically  !
 ! R25   R(10,18)                1.5434         calculate D2E/DX2 analytically  !
 ! R26   R(11,12)                1.4033         calculate D2E/DX2 analytically  !
 ! R27   R(11,17)                1.4083         calculate D2E/DX2 analytically  !
 ! R28   R(12,13)                1.4017         calculate D2E/DX2 analytically  !
 ! R29   R(12,32)                1.0862         calculate D2E/DX2 analytically  !
 ! R30   R(13,14)                1.3936         calculate D2E/DX2 analytically  !
 ! R31   R(13,33)                1.0868         calculate D2E/DX2 analytically  !
 ! R32   R(14,15)                1.3995         calculate D2E/DX2 analytically  !
 ! R33   R(14,16)                1.3925         calculate D2E/DX2 analytically  !
 ! R34   R(15,34)                1.0152         calculate D2E/DX2 analytically  !
 ! R35   R(15,35)                1.0148         calculate D2E/DX2 analytically  !
 ! R36   R(16,17)                1.3997         calculate D2E/DX2 analytically  !
 ! R37   R(16,36)                1.0865         calculate D2E/DX2 analytically  !
 ! R38   R(17,37)                1.0891         calculate D2E/DX2 analytically  !
 ! R39   R(18,38)                1.0958         calculate D2E/DX2 analytically  !
 ! R40   R(18,39)                1.095          calculate D2E/DX2 analytically  !
 ! R41   R(18,40)                1.0971         calculate D2E/DX2 analytically  !
 ! R42   R(19,20)                1.3987         calculate D2E/DX2 analytically  !
 ! R43   R(19,41)                1.0855         calculate D2E/DX2 analytically  !
 ! R44   R(20,42)                1.0869         calculate D2E/DX2 analytically  !
 ! A1    A(2,1,21)             113.5466         calculate D2E/DX2 analytically  !
 ! A2    A(2,1,22)             113.68           calculate D2E/DX2 analytically  !
 ! A3    A(21,1,22)            112.48           calculate D2E/DX2 analytically  !
 ! A4    A(1,2,3)              120.1162         calculate D2E/DX2 analytically  !
 ! A5    A(1,2,20)             120.0142         calculate D2E/DX2 analytically  !
 ! A6    A(3,2,20)             119.0667         calculate D2E/DX2 analytically  !
 ! A7    A(2,3,4)              119.6154         calculate D2E/DX2 analytically  !
 ! A8    A(2,3,23)             120.5099         calculate D2E/DX2 analytically  !
 ! A9    A(4,3,23)             119.8743         calculate D2E/DX2 analytically  !
 ! A10   A(3,4,5)              120.7077         calculate D2E/DX2 analytically  !
 ! A11   A(3,4,10)             127.1255         calculate D2E/DX2 analytically  !
 ! A12   A(5,4,10)             112.1593         calculate D2E/DX2 analytically  !
 ! A13   A(4,5,6)              111.9907         calculate D2E/DX2 analytically  !
 ! A14   A(4,5,19)             120.2265         calculate D2E/DX2 analytically  !
 ! A15   A(6,5,19)             127.7813         calculate D2E/DX2 analytically  !
 ! A16   A(5,6,7)              112.2826         calculate D2E/DX2 analytically  !
 ! A17   A(5,6,8)              111.0153         calculate D2E/DX2 analytically  !
 ! A18   A(5,6,9)              101.9052         calculate D2E/DX2 analytically  !
 ! A19   A(7,6,8)              109.382          calculate D2E/DX2 analytically  !
 ! A20   A(7,6,9)              110.2987         calculate D2E/DX2 analytically  !
 ! A21   A(8,6,9)              111.8171         calculate D2E/DX2 analytically  !
 ! A22   A(6,7,24)             111.5146         calculate D2E/DX2 analytically  !
 ! A23   A(6,7,25)             110.8854         calculate D2E/DX2 analytically  !
 ! A24   A(6,7,26)             111.602          calculate D2E/DX2 analytically  !
 ! A25   A(24,7,25)            107.8289         calculate D2E/DX2 analytically  !
 ! A26   A(24,7,26)            107.2025         calculate D2E/DX2 analytically  !
 ! A27   A(25,7,26)            107.6076         calculate D2E/DX2 analytically  !
 ! A28   A(6,8,27)             111.161          calculate D2E/DX2 analytically  !
 ! A29   A(6,8,28)             112.342          calculate D2E/DX2 analytically  !
 ! A30   A(6,8,29)             110.9273         calculate D2E/DX2 analytically  !
 ! A31   A(27,8,28)            106.8785         calculate D2E/DX2 analytically  !
 ! A32   A(27,8,29)            107.6245         calculate D2E/DX2 analytically  !
 ! A33   A(28,8,29)            107.6767         calculate D2E/DX2 analytically  !
 ! A34   A(6,9,10)             108.9317         calculate D2E/DX2 analytically  !
 ! A35   A(6,9,30)             111.9981         calculate D2E/DX2 analytically  !
 ! A36   A(6,9,31)             108.935          calculate D2E/DX2 analytically  !
 ! A37   A(10,9,30)            111.7916         calculate D2E/DX2 analytically  !
 ! A38   A(10,9,31)            110.1848         calculate D2E/DX2 analytically  !
 ! A39   A(30,9,31)            104.9134         calculate D2E/DX2 analytically  !
 ! A40   A(4,10,9)             101.1603         calculate D2E/DX2 analytically  !
 ! A41   A(4,10,11)            113.7862         calculate D2E/DX2 analytically  !
 ! A42   A(4,10,18)            107.5496         calculate D2E/DX2 analytically  !
 ! A43   A(9,10,11)            109.4349         calculate D2E/DX2 analytically  !
 ! A44   A(9,10,18)            110.612          calculate D2E/DX2 analytically  !
 ! A45   A(11,10,18)           113.6            calculate D2E/DX2 analytically  !
 ! A46   A(10,11,12)           122.4952         calculate D2E/DX2 analytically  !
 ! A47   A(10,11,17)           120.4515         calculate D2E/DX2 analytically  !
 ! A48   A(12,11,17)           116.9943         calculate D2E/DX2 analytically  !
 ! A49   A(11,12,13)           121.2234         calculate D2E/DX2 analytically  !
 ! A50   A(11,12,32)           121.4116         calculate D2E/DX2 analytically  !
 ! A51   A(13,12,32)           117.3577         calculate D2E/DX2 analytically  !
 ! A52   A(12,13,14)           121.0395         calculate D2E/DX2 analytically  !
 ! A53   A(12,13,33)           118.8737         calculate D2E/DX2 analytically  !
 ! A54   A(14,13,33)           120.0867         calculate D2E/DX2 analytically  !
 ! A55   A(13,14,15)           120.4297         calculate D2E/DX2 analytically  !
 ! A56   A(13,14,16)           118.2465         calculate D2E/DX2 analytically  !
 ! A57   A(15,14,16)           120.4387         calculate D2E/DX2 analytically  !
 ! A58   A(14,15,34)           113.4992         calculate D2E/DX2 analytically  !
 ! A59   A(14,15,35)           113.646          calculate D2E/DX2 analytically  !
 ! A60   A(34,15,35)           112.2892         calculate D2E/DX2 analytically  !
 ! A61   A(14,16,17)           120.7524         calculate D2E/DX2 analytically  !
 ! A62   A(14,16,36)           120.3675         calculate D2E/DX2 analytically  !
 ! A63   A(17,16,36)           118.8801         calculate D2E/DX2 analytically  !
 ! A64   A(11,17,16)           121.5121         calculate D2E/DX2 analytically  !
 ! A65   A(11,17,37)           120.3932         calculate D2E/DX2 analytically  !
 ! A66   A(16,17,37)           118.0912         calculate D2E/DX2 analytically  !
 ! A67   A(10,18,38)           111.6553         calculate D2E/DX2 analytically  !
 ! A68   A(10,18,39)           112.3402         calculate D2E/DX2 analytically  !
 ! A69   A(10,18,40)           111.2969         calculate D2E/DX2 analytically  !
 ! A70   A(38,18,39)           106.837          calculate D2E/DX2 analytically  !
 ! A71   A(38,18,40)           107.8689         calculate D2E/DX2 analytically  !
 ! A72   A(39,18,40)           106.5497         calculate D2E/DX2 analytically  !
 ! A73   A(5,19,20)            118.9654         calculate D2E/DX2 analytically  !
 ! A74   A(5,19,41)            121.1561         calculate D2E/DX2 analytically  !
 ! A75   A(20,19,41)           119.8762         calculate D2E/DX2 analytically  !
 ! A76   A(2,20,19)            121.2553         calculate D2E/DX2 analytically  !
 ! A77   A(2,20,42)            119.9055         calculate D2E/DX2 analytically  !
 ! A78   A(19,20,42)           118.8385         calculate D2E/DX2 analytically  !
 ! D1    D(21,1,2,3)           -29.4097         calculate D2E/DX2 analytically  !
 ! D2    D(21,1,2,20)          160.9453         calculate D2E/DX2 analytically  !
 ! D3    D(22,1,2,3)          -159.6916         calculate D2E/DX2 analytically  !
 ! D4    D(22,1,2,20)           30.6634         calculate D2E/DX2 analytically  !
 ! D5    D(1,2,3,4)           -173.9204         calculate D2E/DX2 analytically  !
 ! D6    D(1,2,3,23)             5.8295         calculate D2E/DX2 analytically  !
 ! D7    D(20,2,3,4)            -4.1778         calculate D2E/DX2 analytically  !
 ! D8    D(20,2,3,23)          175.5722         calculate D2E/DX2 analytically  !
 ! D9    D(1,2,20,19)          174.5718         calculate D2E/DX2 analytically  !
 ! D10   D(1,2,20,42)           -5.746          calculate D2E/DX2 analytically  !
 ! D11   D(3,2,20,19)            4.8185         calculate D2E/DX2 analytically  !
 ! D12   D(3,2,20,42)         -175.4994         calculate D2E/DX2 analytically  !
 ! D13   D(2,3,4,5)              1.29           calculate D2E/DX2 analytically  !
 ! D14   D(2,3,4,10)          -177.6322         calculate D2E/DX2 analytically  !
 ! D15   D(23,3,4,5)          -178.4616         calculate D2E/DX2 analytically  !
 ! D16   D(23,3,4,10)            2.6162         calculate D2E/DX2 analytically  !
 ! D17   D(3,4,5,6)           -178.4919         calculate D2E/DX2 analytically  !
 ! D18   D(3,4,5,19)             1.1072         calculate D2E/DX2 analytically  !
 ! D19   D(10,4,5,6)             0.5803         calculate D2E/DX2 analytically  !
 ! D20   D(10,4,5,19)         -179.8207         calculate D2E/DX2 analytically  !
 ! D21   D(3,4,10,9)          -169.7226         calculate D2E/DX2 analytically  !
 ! D22   D(3,4,10,11)          -52.4911         calculate D2E/DX2 analytically  !
 ! D23   D(3,4,10,18)           74.2545         calculate D2E/DX2 analytically  !
 ! D24   D(5,4,10,9)            11.278          calculate D2E/DX2 analytically  !
 ! D25   D(5,4,10,11)          128.5095         calculate D2E/DX2 analytically  !
 ! D26   D(5,4,10,18)         -104.7449         calculate D2E/DX2 analytically  !
 ! D27   D(4,5,6,7)           -130.251          calculate D2E/DX2 analytically  !
 ! D28   D(4,5,6,8)            106.9546         calculate D2E/DX2 analytically  !
 ! D29   D(4,5,6,9)            -12.2463         calculate D2E/DX2 analytically  !
 ! D30   D(19,5,6,7)            50.1873         calculate D2E/DX2 analytically  !
 ! D31   D(19,5,6,8)           -72.6071         calculate D2E/DX2 analytically  !
 ! D32   D(19,5,6,9)           168.1921         calculate D2E/DX2 analytically  !
 ! D33   D(4,5,19,20)           -0.5322         calculate D2E/DX2 analytically  !
 ! D34   D(4,5,19,41)          178.915          calculate D2E/DX2 analytically  !
 ! D35   D(6,5,19,20)          178.9974         calculate D2E/DX2 analytically  !
 ! D36   D(6,5,19,41)           -1.5554         calculate D2E/DX2 analytically  !
 ! D37   D(5,6,7,24)            53.1431         calculate D2E/DX2 analytically  !
 ! D38   D(5,6,7,25)           173.3198         calculate D2E/DX2 analytically  !
 ! D39   D(5,6,7,26)           -66.7252         calculate D2E/DX2 analytically  !
 ! D40   D(8,6,7,24)           176.854          calculate D2E/DX2 analytically  !
 ! D41   D(8,6,7,25)           -62.9693         calculate D2E/DX2 analytically  !
 ! D42   D(8,6,7,26)            56.9856         calculate D2E/DX2 analytically  !
 ! D43   D(9,6,7,24)           -59.7662         calculate D2E/DX2 analytically  !
 ! D44   D(9,6,7,25)            60.4105         calculate D2E/DX2 analytically  !
 ! D45   D(9,6,7,26)          -179.6345         calculate D2E/DX2 analytically  !
 ! D46   D(5,6,8,27)            65.4176         calculate D2E/DX2 analytically  !
 ! D47   D(5,6,8,28)           -54.298          calculate D2E/DX2 analytically  !
 ! D48   D(5,6,8,29)          -174.8713         calculate D2E/DX2 analytically  !
 ! D49   D(7,6,8,27)           -59.0368         calculate D2E/DX2 analytically  !
 ! D50   D(7,6,8,28)          -178.7524         calculate D2E/DX2 analytically  !
 ! D51   D(7,6,8,29)            60.6743         calculate D2E/DX2 analytically  !
 ! D52   D(9,6,8,27)           178.4862         calculate D2E/DX2 analytically  !
 ! D53   D(9,6,8,28)            58.7706         calculate D2E/DX2 analytically  !
 ! D54   D(9,6,8,29)           -61.8027         calculate D2E/DX2 analytically  !
 ! D55   D(5,6,9,10)            19.1858         calculate D2E/DX2 analytically  !
 ! D56   D(5,6,9,30)           143.3691         calculate D2E/DX2 analytically  !
 ! D57   D(5,6,9,31)          -101.0339         calculate D2E/DX2 analytically  !
 ! D58   D(7,6,9,10)           138.6021         calculate D2E/DX2 analytically  !
 ! D59   D(7,6,9,30)           -97.2145         calculate D2E/DX2 analytically  !
 ! D60   D(7,6,9,31)            18.3824         calculate D2E/DX2 analytically  !
 ! D61   D(8,6,9,10)           -99.4457         calculate D2E/DX2 analytically  !
 ! D62   D(8,6,9,30)            24.7376         calculate D2E/DX2 analytically  !
 ! D63   D(8,6,9,31)           140.3346         calculate D2E/DX2 analytically  !
 ! D64   D(6,9,10,4)           -18.747          calculate D2E/DX2 analytically  !
 ! D65   D(6,9,10,11)         -139.1147         calculate D2E/DX2 analytically  !
 ! D66   D(6,9,10,18)           94.9916         calculate D2E/DX2 analytically  !
 ! D67   D(30,9,10,4)         -143.0523         calculate D2E/DX2 analytically  !
 ! D68   D(30,9,10,11)          96.5799         calculate D2E/DX2 analytically  !
 ! D69   D(30,9,10,18)         -29.3137         calculate D2E/DX2 analytically  !
 ! D70   D(31,9,10,4)          100.6984         calculate D2E/DX2 analytically  !
 ! D71   D(31,9,10,11)         -19.6694         calculate D2E/DX2 analytically  !
 ! D72   D(31,9,10,18)        -145.563          calculate D2E/DX2 analytically  !
 ! D73   D(4,10,11,12)         142.6288         calculate D2E/DX2 analytically  !
 ! D74   D(4,10,11,17)         -40.2502         calculate D2E/DX2 analytically  !
 ! D75   D(9,10,11,12)        -105.0486         calculate D2E/DX2 analytically  !
 ! D76   D(9,10,11,17)          72.0724         calculate D2E/DX2 analytically  !
 ! D77   D(18,10,11,12)         19.1133         calculate D2E/DX2 analytically  !
 ! D78   D(18,10,11,17)       -163.7657         calculate D2E/DX2 analytically  !
 ! D79   D(4,10,18,38)         166.7801         calculate D2E/DX2 analytically  !
 ! D80   D(4,10,18,39)          46.7735         calculate D2E/DX2 analytically  !
 ! D81   D(4,10,18,40)         -72.615          calculate D2E/DX2 analytically  !
 ! D82   D(9,10,18,38)          57.157          calculate D2E/DX2 analytically  !
 ! D83   D(9,10,18,39)         -62.8497         calculate D2E/DX2 analytically  !
 ! D84   D(9,10,18,40)         177.7618         calculate D2E/DX2 analytically  !
 ! D85   D(11,10,18,38)        -66.3651         calculate D2E/DX2 analytically  !
 ! D86   D(11,10,18,39)        173.6283         calculate D2E/DX2 analytically  !
 ! D87   D(11,10,18,40)         54.2398         calculate D2E/DX2 analytically  !
 ! D88   D(10,11,12,13)        179.1028         calculate D2E/DX2 analytically  !
 ! D89   D(10,11,12,32)          0.1062         calculate D2E/DX2 analytically  !
 ! D90   D(17,11,12,13)          1.888          calculate D2E/DX2 analytically  !
 ! D91   D(17,11,12,32)       -177.1085         calculate D2E/DX2 analytically  !
 ! D92   D(10,11,17,16)       -179.1651         calculate D2E/DX2 analytically  !
 ! D93   D(10,11,17,37)          0.1392         calculate D2E/DX2 analytically  !
 ! D94   D(12,11,17,16)         -1.8901         calculate D2E/DX2 analytically  !
 ! D95   D(12,11,17,37)        177.4142         calculate D2E/DX2 analytically  !
 ! D96   D(11,12,13,14)          1.654          calculate D2E/DX2 analytically  !
 ! D97   D(11,12,13,33)       -178.2719         calculate D2E/DX2 analytically  !
 ! D98   D(32,12,13,14)       -179.3102         calculate D2E/DX2 analytically  !
 ! D99   D(32,12,13,33)          0.7639         calculate D2E/DX2 analytically  !
 ! D100  D(12,13,14,15)       -174.439          calculate D2E/DX2 analytically  !
 ! D101  D(12,13,14,16)         -5.1596         calculate D2E/DX2 analytically  !
 ! D102  D(33,13,14,15)          5.486          calculate D2E/DX2 analytically  !
 ! D103  D(33,13,14,16)        174.7655         calculate D2E/DX2 analytically  !
 ! D104  D(13,14,15,34)       -160.7206         calculate D2E/DX2 analytically  !
 ! D105  D(13,14,15,35)        -30.7897         calculate D2E/DX2 analytically  !
 ! D106  D(16,14,15,34)         30.236          calculate D2E/DX2 analytically  !
 ! D107  D(16,14,15,35)        160.1668         calculate D2E/DX2 analytically  !
 ! D108  D(13,14,16,17)          5.1479         calculate D2E/DX2 analytically  !
 ! D109  D(13,14,16,36)       -174.9567         calculate D2E/DX2 analytically  !
 ! D110  D(15,14,16,17)        174.4264         calculate D2E/DX2 analytically  !
 ! D111  D(15,14,16,36)         -5.6783         calculate D2E/DX2 analytically  !
 ! D112  D(14,16,17,11)         -1.6565         calculate D2E/DX2 analytically  !
 ! D113  D(14,16,17,37)        179.0238         calculate D2E/DX2 analytically  !
 ! D114  D(36,16,17,11)        178.4466         calculate D2E/DX2 analytically  !
 ! D115  D(36,16,17,37)         -0.8731         calculate D2E/DX2 analytically  !
 ! D116  D(5,19,20,2)           -2.4511         calculate D2E/DX2 analytically  !
 ! D117  D(5,19,20,42)         177.8634         calculate D2E/DX2 analytically  !
 ! D118  D(41,19,20,2)         178.0945         calculate D2E/DX2 analytically  !
 ! D119  D(41,19,20,42)         -1.591          calculate D2E/DX2 analytically  !
 --------------------------------------------------------------------------------
 Trust Radius=3.00D-01 FncErr=1.00D-07 GrdErr=1.00D-06 EigMax=2.50D+02 EigMin=1.00D-04
 Number of steps in this run=    251 maximum allowed number of steps=    252.
 GradGradGradGradGradGradGradGradGradGradGradGradGradGradGradGradGradGrad

                          Input orientation:                          
 ---------------------------------------------------------------------
 Center     Atomic      Atomic             Coordinates (Angstroms)
 Number     Number       Type             X           Y           Z
 ---------------------------------------------------------------------
      1          7           0       -2.230686   -3.531370    1.607874
      2          6           0       -2.163382   -2.273909    0.993020
      3          6           0       -0.981689   -1.858833    0.373121
      4          6           0       -0.883597   -0.559512   -0.123299
      5          6           0       -1.945177    0.340601    0.016453
      6          6           0       -1.643094    1.673372   -0.621063
      7          6           0       -1.930666    2.849056    0.323518
      8          6           0       -2.440760    1.855945   -1.918617
      9          6           0       -0.116347    1.560442   -0.892382
     10          6           0        0.292956    0.052332   -0.867124
     11          6           0        1.637370   -0.101014   -0.135104
     12          6           0        2.841329   -0.345886   -0.813158
     13          6           0        4.054498   -0.462628   -0.120715
     14          6           0        4.100028   -0.373113    1.269301
     15          7           0        5.328428   -0.375143    1.939868
     16          6           0        2.926303   -0.055744    1.948048
     17          6           0        1.712104    0.061756    1.261747
     18          6           0        0.296465   -0.533676   -2.294894
     19          6           0       -3.105404   -0.043959    0.674219
     20          6           0       -3.197114   -1.344136    1.181745
     21          1           0       -1.621754   -4.223553    1.183133
     22          1           0       -3.177727   -3.873075    1.734202
     23          1           0       -0.140017   -2.538698    0.279391
     24          1           0       -1.420206    2.725698    1.286075
     25          1           0       -1.593980    3.794746   -0.116049
     26          1           0       -3.001870    2.944367    0.534581
     27          1           0       -3.517391    1.907517   -1.717460
     28          1           0       -2.287917    1.030719   -2.620332
     29          1           0       -2.153538    2.782930   -2.427479
     30          1           0        0.170728    2.044826   -1.834531
     31          1           0        0.426472    2.113972   -0.112756
     32          1           0        2.873408   -0.436456   -1.895052
     33          1           0        4.968253   -0.624162   -0.686489
     34          1           0        5.252459   -0.616034    2.923120
     35          1           0        6.049385   -0.910412    1.467034
     36          1           0        2.939152    0.103332    3.022802
     37          1           0        0.817922    0.295674    1.837862
     38          1           0        0.964995    0.024864   -2.959597
     39          1           0       -0.696942   -0.514546   -2.755093
     40          1           0        0.620620   -1.581781   -2.294638
     41          1           0       -3.931474    0.647643    0.806538
     42          1           0       -4.092142   -1.632156    1.726990
 ---------------------------------------------------------------------
                    Distance matrix (angstroms):
                    1          2          3          4          5
     1  N    0.000000
     2  C    1.401351   0.000000
     3  C    2.425281   1.397484   0.000000
     4  C    3.693718   2.413126   1.394378   0.000000
     5  C    4.195985   2.799457   2.427557   1.398816   0.000000
     6  C    5.692343   4.296160   3.728583   2.410472   1.507965
     7  C    6.515322   5.171766   4.802837   3.593652   2.527222
     8  C    6.442316   5.060658   4.602231   3.388562   2.507262
     9  C    6.053781   4.737862   3.747233   2.382092   2.378784
    10  C    5.033618   3.860716   2.610647   1.520495   2.423437
    11  C    5.455930   4.521046   3.194947   2.562350   3.612843
    12  C    6.460190   5.659213   4.279221   3.794288   4.906135
    13  C    7.204772   6.571391   5.249422   4.939046   6.054758
    14  C    7.082878   6.551311   5.369762   5.177896   6.214783
    15  N    8.198305   7.786467   6.668854   6.548276   7.557590
    16  C    6.228180   5.633581   4.583004   4.365731   5.255423
    17  C    5.345648   4.532873   3.425615   3.006991   3.873528
    18  C    5.532112   4.459780   3.241608   2.471647   3.336412
    19  C    3.714684   2.441662   2.809732   2.416248   1.388044
    20  C    2.428901   1.403102   2.413896   2.769681   2.400748
    21  H    1.015047   2.032392   2.580252   3.959399   4.721996
    22  H    1.014696   2.033612   3.276018   4.437685   4.714330
    23  H    2.668551   2.161802   1.086008   2.152266   3.408534
    24  H    6.317542   5.063029   4.695073   3.614815   2.752495
    25  H    7.553097   6.195388   5.707639   4.411832   3.474481
    26  H    6.609225   5.305057   5.213246   4.146933   2.857386
    27  H    6.503457   5.163755   4.998571   3.945181   2.816654
    28  H    6.220423   4.898203   4.360792   3.276602   2.747065
    29  H    7.494025   6.105042   5.546400   4.253694   3.461386
    30  H    6.979320   5.665209   4.630373   3.289756   3.287489
    31  H    6.472321   5.213788   4.242896   2.977231   2.964163
    32  H    6.921038   6.089865   4.693563   4.155639   5.241796
    33  H    8.095720   7.510169   6.168386   5.879244   7.015726
    34  H    8.137968   7.840187   6.849207   6.850916   7.821115
    35  H    8.686129   8.338667   7.178589   7.121695   8.220842
    36  H    6.476134   5.983908   5.122880   4.995071   5.740306
    37  H    4.898282   4.025505   3.166380   2.733618   3.309723
    38  H    6.612184   5.540242   4.294753   3.435604   4.174406
    39  H    5.521692   4.392511   3.416711   2.638787   3.157662
    40  H    5.211568   4.363302   3.124274   2.832387   3.952215
    41  H    4.582462   3.419998   3.895062   3.407546   2.159603
    42  H    2.661995   2.161174   3.399892   3.856021   3.380409
                    6          7          8          9         10
     6  C    0.000000
     7  C    1.535306   0.000000
     8  C    1.534031   2.504723   0.000000
     9  C    1.554775   2.535882   2.558003   0.000000
    10  C    2.537047   3.766137   3.439748   1.562869   0.000000
    11  C    3.761123   4.652325   4.862278   2.531684   1.538446
    12  C    4.921825   5.854198   5.828428   3.519689   2.579863
    13  C    6.105358   6.854691   7.127174   4.699385   3.869303
    14  C    6.383184   6.902619   7.610088   5.117550   4.386241
    15  N    7.704344   8.105708   8.956895   6.435348   5.780823
    16  C    5.519925   5.887879   6.885566   4.465178   3.856344
    17  C    4.171287   4.681783   5.529929   3.198369   2.558547
    18  C    3.381518   4.822766   3.652981   2.553974   1.543356
    19  C    2.601025   3.142059   3.282405   3.736683   3.732808
    20  C    3.843234   4.463553   4.519384   4.714839   4.281189
    21  H    6.166790   7.131351   6.874003   6.326816   5.113987
    22  H    6.218155   6.980848   6.834316   6.767134   5.849903
    23  H    4.561973   5.677699   5.425638   4.263398   2.866252
    24  H    2.189576   1.096495   3.473910   2.793483   3.836414
    25  H    2.181210   1.095859   2.779431   2.788944   4.257969
    26  H    2.190254   1.095952   2.741840   3.503958   4.602665
    27  H    2.184010   2.751324   1.096475   3.516862   4.322445
    28  H    2.196788   3.478539   1.093966   2.825268   3.269846
    29  H    2.180553   2.760803   1.095783   2.828630   3.984496
    30  H    2.213693   3.117663   2.619660   1.097582   2.218299
    31  H    2.176146   2.507347   3.398343   1.099484   2.199376
    32  H    5.145213   6.228625   5.787576   3.732503   2.820334
    33  H    6.999490   7.789637   7.909649   5.537873   4.727438
    34  H    8.084013   8.388210   9.420123   6.936799   6.277685
    35  H    8.379160   8.895080   9.549761   7.048986   6.285828
    36  H    6.061334   6.208081   7.512173   5.175704   4.704942
    37  H    3.741786   4.045706   5.211966   3.150671   2.766180
    38  H    3.871492   5.209584   4.004456   2.792969   2.197916
    39  H    3.199418   4.723742   3.059382   2.848220   2.205828
    40  H    4.303636   5.744225   4.618593   3.518950   2.194422
    41  H    2.885628   3.013762   3.332971   4.274896   4.582723
    42  H    4.736846   5.169427   5.308895   5.732429   5.366192
                   11         12         13         14         15
    11  C    0.000000
    12  C    1.403296   0.000000
    13  C    2.444070   1.401743   0.000000
    14  C    2.847995   2.433454   1.393639   0.000000
    15  N    4.243179   3.710212   2.424161   1.399511   0.000000
    16  C    2.450085   2.777708   2.391266   1.392498   2.423280
    17  C    1.408287   2.397197   2.770016   2.427210   3.705203
    18  C    2.578743   2.950787   4.342225   5.215013   6.578678
    19  C    4.811669   6.137351   7.216051   7.237452   8.534698
    20  C    5.162526   6.437309   7.420198   7.361986   8.613859
    21  H    5.418022   6.240240   6.932850   6.897253   7.980472
    22  H    6.395929   7.426920   8.208346   8.088979   9.199593
    23  H    3.045195   3.858823   4.697245   4.862886   6.110814
    24  H    4.399865   5.657039   6.489750   6.330552   7.455651
    25  H    5.061514   6.107599   7.073228   7.191104   8.338736
    26  H    5.589756   6.839967   7.863165   7.872893   9.076776
    27  H    5.754095   6.806535   8.093249   8.493944   9.840484
    28  H    4.781742   5.609821   6.978854   7.609589   8.987803
    29  H    5.286123   6.110992   7.375264   7.920472   9.221007
    30  H    3.105434   3.727039   4.930331   5.560540   6.834048
    31  H    2.524466   3.517527   4.449887   4.646577   5.868401
    32  H    2.176632   1.086152   2.131649   3.394368   4.553844
    33  H    3.416503   2.148787   1.086803   2.154519   2.662609
    34  H    4.763071   4.454919   3.274687   2.030326   1.015177
    35  H    4.763176   3.976127   2.588635   2.031694   1.014822
    36  H    3.421807   3.863413   3.383195   2.156246   2.666519
    37  H    2.172890   3.396128   3.858299   3.397464   4.561258
    38  H    2.906148   2.874941   4.223971   5.279242   6.573000
    39  H    3.533322   4.039669   5.433123   6.263120   7.639842
    40  H    2.808921   2.941729   4.215443   5.125312   6.445966
    41  H    5.697297   7.034300   8.115926   8.109323   9.384899
    42  H    6.216036   7.495323   8.435019   8.300983   9.506448
                   16         17         18         19         20
    16  C    0.000000
    17  C    1.399676   0.000000
    18  C    5.014681   3.874051   0.000000
    19  C    6.164760   4.854353   4.541824   0.000000
    20  C    6.304238   5.107187   4.994893   1.398733   0.000000
    21  H    6.216152   5.429978   5.421386   4.464215   3.282195
    22  H    7.202564   6.294169   6.281338   3.973780   2.588652
    23  H    4.283899   3.340320   3.292047   3.895270   3.403978
    24  H    5.202574   4.112000   5.137491   3.299282   4.442054
    25  H    6.286472   5.173368   5.201575   4.200545   5.537366
    26  H    6.792776   5.573130   5.566123   2.993378   4.341451
    27  H    7.668868   6.295247   4.564904   3.114181   4.368205
    28  H    7.017022   5.657703   3.038466   3.560518   4.574098
    29  H    7.280666   5.996530   4.125526   4.303241   5.581059
    30  H    5.129668   3.986897   2.622293   4.624921   5.650252
    31  H    3.899196   2.784546   3.433463   4.213091   5.173453
    32  H    3.862273   3.400326   2.609590   6.519309   6.865989
    33  H    3.381336   3.855983   4.941736   8.208050   8.407251
    34  H    2.583736   3.969089   7.196967   8.674024   8.657817
    35  H    3.273449   4.449636   6.884048   9.229813   9.261061
    36  H    1.086540   2.146786   5.972225   6.486462   6.567985
    37  H    2.140306   1.089123   4.247283   4.106324   4.386340
    38  H    5.285661   4.287107   1.095778   5.456876   6.028933
    39  H    5.954657   4.719177   1.094992   4.216909   4.736853
    40  H    5.064123   4.066992   1.097088   5.006222   5.168830
    41  H    6.987625   5.692140   5.374929   1.085456   2.155747
    42  H    7.196702   6.064245   6.053271   2.145775   1.086887
                   21         22         23         24         25
    21  H    0.000000
    22  H    1.687473   0.000000
    23  H    2.418890   3.622805   0.000000
    24  H    6.952935   6.843501   5.510550   0.000000
    25  H    8.122916   8.045319   6.510215   1.771726   0.000000
    26  H    7.328330   6.924416   6.190261   1.764716   1.768790
    27  H    7.042507   6.741261   5.929832   3.753509   3.134591
    28  H    6.520544   6.618227   5.075688   4.345790   3.793788
    29  H    7.900008   7.916499   6.300884   3.785701   2.584490
    30  H    7.184140   7.679164   5.057067   3.568310   3.021522
    31  H    6.785188   7.228156   4.703405   2.396071   2.628163
    32  H    6.635044   7.848444   4.269468   6.209179   6.405113
    33  H    7.738170   9.097921   5.540107   7.478300   7.931901
    34  H    7.955912   9.115365   6.305929   7.640127   8.692828
    35  H    8.360853   9.694759   6.509263   8.309562   9.114038
    36  H    6.550433   7.408678   4.897746   5.375596   6.635376
    37  H    5.177267   5.775329   3.373447   3.349433   4.677451
    38  H    6.473216   7.374810   4.275973   5.568610   5.370859
    39  H    5.488318   6.130888   3.689912   5.230041   5.132176
    40  H    4.909387   5.992413   2.849541   5.961615   6.209489
    41  H    5.404181   4.676065   4.980542   3.294653   4.027320
    42  H    3.621317   2.420315   4.305422   5.130745   6.252110
                   26         27         28         29         30
    26  H    0.000000
    27  H    2.532293   0.000000
    28  H    3.758358   1.759420   0.000000
    29  H    3.085374   1.769342   1.767906   0.000000
    30  H    4.060449   3.692531   2.773235   2.509701   0.000000
    31  H    3.586382   4.262835   3.850881   3.530142   1.742038
    32  H    7.200831   6.809410   5.414602   5.993172   3.669455
    33  H    8.817498   8.915069   7.689628   8.084505   5.608720
    34  H    9.301372  10.237850   9.502575   9.748367   7.452477
    35  H    9.882004  10.469237   9.486051   9.802854   7.361547
    36  H    7.039778   8.210489   7.747727   7.925990   5.918383
    37  H    4.827518   5.833806   5.482885   5.762739   4.118843
    38  H    6.038940   5.017875   3.421737   4.197061   2.444766
    39  H    5.300823   3.859793   2.221982   3.619717   2.854938
    40  H    6.450809   5.443480   3.923114   5.173423   3.683257
    41  H    2.492603   2.851196   3.819878   4.263729   5.074981
    42  H    4.853359   4.972310   5.407897   6.364809   6.661584
                   31         32         33         34         35
    31  H    0.000000
    32  H    3.958377   0.000000
    33  H    5.334258   2.425744   0.000000
    34  H    6.321362   5.376515   3.620789   0.000000
    35  H    6.577216   4.649202   2.426612   1.685805   0.000000
    36  H    4.493101   4.947826   4.290144   2.424626   3.622380
    37  H    2.695246   4.323851   4.944056   4.655547   5.381484
    38  H    3.571958   2.233409   4.649122   7.307494   6.805941
    39  H    3.892700   3.673305   6.032046   8.224827   7.968437
    40  H    4.296148   2.558612   4.733401   7.043550   6.638704
    41  H    4.689021   7.401370   9.113274   9.509018  10.123307
    42  H    6.151099   7.941522   9.430360   9.475484  10.170500
                   36         37         38         39         40
    36  H    0.000000
    37  H    2.437355   0.000000
    38  H    6.300203   4.807347   0.000000
    39  H    6.854709   4.903724   1.759210   0.000000
    40  H    6.040726   4.543272   1.772590   1.756981   0.000000
    41  H    7.239724   4.872809   6.208626   4.949555   5.942153
    42  H    7.357320   5.276130   7.091153   5.732844   6.195656
                   41         42
    41  H    0.000000
    42  H    2.463844   0.000000
 Stoichiometry    C18H22N2
 Framework group  C1[X(C18H22N2)]
 Deg. of freedom   120
 Full point group                 C1      NOp   1
 Largest Abelian subgroup         C1      NOp   1
 Largest concise Abelian subgroup C1      NOp   1
                         Standard orientation:                         
 ---------------------------------------------------------------------
 Center     Atomic      Atomic             Coordinates (Angstroms)
 Number     Number       Type             X           Y           Z
 ---------------------------------------------------------------------
      1          7           0       -1.948800    3.887878    0.314569
      2          6           0       -2.029376    2.494149    0.192878
      3          6           0       -0.964908    1.691060    0.611111
      4          6           0       -1.001171    0.318213    0.369725
      5          6           0       -2.078723   -0.259331   -0.309988
      6          6           0       -1.933880   -1.755486   -0.430398
      7          6           0       -2.150961   -2.247515   -1.868434
      8          6           0       -2.907652   -2.479746    0.507934
      9          6           0       -0.453968   -1.969753   -0.004631
     10          6           0        0.031441   -0.715259    0.791097
     11          6           0        1.468414   -0.365003    0.367723
     12          6           0        2.580752   -0.636488    1.179041
     13          6           0        3.880644   -0.322715    0.758669
     14          6           0        4.108743    0.301316   -0.466397
     15          7           0        5.414899    0.504285   -0.926172
     16          6           0        3.022716    0.507810   -1.313128
     17          6           0        1.722595    0.196625   -0.898467
     18          6           0       -0.127886   -0.939968    2.309671
     19          6           0       -3.118395    0.534485   -0.774321
     20          6           0       -3.074276    1.912978   -0.541372
     21          1           0       -1.368237    4.194445    1.088704
     22          1           0       -2.851435    4.351154    0.299318
     23          1           0       -0.109993    2.128775    1.118003
     24          1           0       -1.509628   -1.711350   -2.578026
     25          1           0       -1.925402   -3.316504   -1.953825
     26          1           0       -3.187331   -2.100403   -2.193096
     27          1           0       -3.948496   -2.299692    0.213856
     28          1           0       -2.808998   -2.148481    1.545862
     29          1           0       -2.739436   -3.562333    0.486769
     30          1           0       -0.321789   -2.894266    0.571988
     31          1           0        0.160143   -2.108236   -0.906050
     32          1           0        2.471092   -1.111993    2.149400
     33          1           0        4.716716   -0.575497    1.405372
     34          1           0        5.484733    1.217782   -1.644941
     35          1           0        6.091812    0.639727   -0.182326
     36          1           0        3.172374    0.916091   -2.308858
     37          1           0        0.903591    0.390618   -1.589690
     38          1           0        0.415419   -1.830189    2.645909
     39          1           0       -1.173986   -1.077373    2.602587
     40          1           0        0.246412   -0.081399    2.880952
     41          1           0       -3.953262    0.104570   -1.318731
     42          1           0       -3.871641    2.537173   -0.936230
 ---------------------------------------------------------------------
 Rotational constants (GHZ):           0.5034845           0.2375221           0.1954284
 Standard basis: 6-31G(d,p) (6D, 7F)
 There are   410 symmetry adapted cartesian basis functions of A   symmetry.
 There are   410 symmetry adapted basis functions of A   symmetry.
   410 basis functions,   714 primitive gaussians,   410 cartesian basis functions
    72 alpha electrons       72 beta electrons
       nuclear repulsion energy      1538.4082553221 Hartrees.
 NAtoms=   42 NActive=   42 NUniq=   42 SFac= 1.00D+00 NAtFMM=   60 NAOKFM=F Big=F
 Integral buffers will be    131072 words long.
 Raffenetti 2 integral format.
 Two-electron integral symmetry is turned on.
 Force inversion solution in PCM.
 ------------------------------------------------------------------------------
 Polarizable Continuum Model (PCM)
 =================================
 Model                : PCM.
 Atomic radii         : UFF (Universal Force Field).
 Polarization charges : Total charges.
 Charge compensation  : None.
 Solution method      : Matrix inversion.
 Cavity type          : Scaled VdW (van der Waals Surface) (Alpha=1.100).
 Cavity algorithm     : GePol (No added spheres)
                        Default sphere list used, NSphG=   42.
                        Lebedev-Laikov grids with approx.  5.0 points / Ang**2.
                        Smoothing algorithm: York/Karplus (Gamma=1.0000).
                        Polarization charges: spherical gaussians, with
                                              point-specific exponents (IZeta= 3).
                        Self-potential: point-specific (ISelfS= 7).
                        Self-field    : sphere-specific E.n sum rule (ISelfD= 2).
 1st derivatives      : Analytical E(r).r(x)/FMM algorithm (CHGder, D1EAlg=3).
                        Cavity 1st derivative terms included.
 2nd derivatives      : Analytical E(r).r(xy)/FMM algorithm (CHGder, D2EAlg=3).
                        Cavity 2nd derivative terms included.
 Solvent              : Water, Eps=  78.355300 Eps(inf)=   1.777849
 ------------------------------------------------------------------------------
 One-electron integrals computed using PRISM.
 NBasis=   410 RedAO= T EigKep=  3.69D-04  NBF=   410
 NBsUse=   410 1.00D-06 EigRej= -1.00D+00 NBFU=   410
 ExpMin= 1.61D-01 ExpMax= 4.17D+03 ExpMxC= 6.27D+02 IAcc=3 IRadAn=         5 AccDes= 0.00D+00
 Harris functional with IExCor=  402 and IRadAn=       5 diagonalized for initial guess.
 HarFok:  IExCor=  402 AccDes= 0.00D+00 IRadAn=         5 IDoV= 1 UseB2=F ITyADJ=14
 ICtDFT=  3500011 ScaDFX=  1.000000  1.000000  1.000000  1.000000
 FoFCou: FMM=F IPFlag=           0 FMFlag=      100000 FMFlg1=           0
         NFxFlg=           0 DoJE=T BraDBF=F KetDBF=T FulRan=T
         wScrn=  0.000000 ICntrl=       500 IOpCl=  0 I1Cent=   200000004 NGrid=           0
         NMat0=    1 NMatS0=      1 NMatT0=    0 NMatD0=    1 NMtDS0=    0 NMtDT0=    0
 Petite list used in FoFCou.
 Requested convergence on RMS density matrix=1.00D-08 within  32 cycles.
 Requested convergence on MAX density matrix=1.00D-06.
 Requested convergence on             energy=1.00D-06.
 No special actions if energy rises.
 Inv3:  Mode=1 IEnd=    23051952.
 Iteration    1 A*A^-1 deviation from unit magnitude is 3.00D-15 for   1093.
 Iteration    1 A*A^-1 deviation from orthogonality  is 1.82D-15 for   2080   1139.
 Iteration    1 A^-1*A deviation from unit magnitude is 3.33D-15 for    585.
 Iteration    1 A^-1*A deviation from orthogonality  is 2.44D-15 for   2539   1266.
 Error on total polarization charges =  0.01129
 SCF Done:  E(RB3LYP) =  -808.728411424     A.U. after   12 cycles
            NFock= 12  Conv=0.92D-08     -V/T= 2.0096
 QCSCF skips out because SCF is already converged.
 DoSCS=F DFT=T ScalE2(SS,OS)=  1.000000  1.000000
 Range of M.O.s used for correlation:     1   410
 NBasis=   410 NAE=    72 NBE=    72 NFC=     0 NFV=     0
 NROrb=    410 NOA=    72 NOB=    72 NVA=   338 NVB=   338
 Symmetrizing basis deriv contribution to polar:
 IMax=3 JMax=2 DiffMx= 0.00D+00
 G2DrvN: will do    43 centers at a time, making    1 passes.
 Calling FoFCou, ICntrl=  3107 FMM=F I1Cent=   0 AccDes= 0.00D+00.
 NEqPCM:  Using equilibrium solvation (IEInf=0, Eps=  78.3553, EpsInf=   1.7778)
 G2PCM: DoFxE=T DoFxN=T DoGrad=T DoDP/DQ/DG/TGxP=FFFF NFrqRd=   0 IEInf=0 SqF1=F DoCFld=F IF1Alg=4.
 End of G2Drv F.D. properties file   721 does not exist.
 End of G2Drv F.D. properties file   722 does not exist.
 End of G2Drv F.D. properties file   788 does not exist.
          IDoAtm=111111111111111111111111111111111111111111
 NEqPCM:  Using equilibrium solvation (IEInf=0, Eps=  78.3553, EpsInf=   1.7778)
          Differentiating once with respect to nuclear coordinates.
 CalDSu exits because no D1Ps are significant.
          There are   129 degrees of freedom in the 1st order CPHF.  IDoFFX=6 NUNeed=     0.
    123 vectors produced by pass  0 Test12= 2.43D-14 1.00D-09 XBig12= 1.36D-01 1.54D-01.
 AX will form   123 AO Fock derivatives at one time.
    123 vectors produced by pass  1 Test12= 2.43D-14 1.00D-09 XBig12= 1.87D-02 3.34D-02.
    123 vectors produced by pass  2 Test12= 2.43D-14 1.00D-09 XBig12= 1.65D-04 2.10D-03.
    123 vectors produced by pass  3 Test12= 2.43D-14 1.00D-09 XBig12= 4.46D-07 7.10D-05.
    123 vectors produced by pass  4 Test12= 2.43D-14 1.00D-09 XBig12= 5.15D-10 1.67D-06.
     75 vectors produced by pass  5 Test12= 2.43D-14 1.00D-09 XBig12= 4.30D-13 5.85D-08.
     13 vectors produced by pass  6 Test12= 2.43D-14 1.00D-09 XBig12= 4.07D-16 2.22D-09.
 InvSVY:  IOpt=1 It=  1 EMax= 6.11D-16
 Solved reduced A of dimension   703 with   129 vectors.
 End of Minotr F.D. properties file   721 does not exist.
 End of Minotr F.D. properties file   722 does not exist.
 End of Minotr F.D. properties file   788 does not exist.

 **********************************************************************

            Population analysis using the SCF density.

 **********************************************************************

 Orbital symmetries:
       Occupied  (A) (A) (A) (A) (A) (A) (A) (A) (A) (A) (A) (A)
                 (A) (A) (A) (A) (A) (A) (A) (A) (A) (A) (A) (A)
                 (A) (A) (A) (A) (A) (A) (A) (A) (A) (A) (A) (A)
                 (A) (A) (A) (A) (A) (A) (A) (A) (A) (A) (A) (A)
                 (A) (A) (A) (A) (A) (A) (A) (A) (A) (A) (A) (A)
                 (A) (A) (A) (A) (A) (A) (A) (A) (A) (A) (A) (A)
       Virtual   (A) (A) (A) (A) (A) (A) (A) (A) (A) (A) (A) (A)
                 (A) (A) (A) (A) (A) (A) (A) (A) (A) (A) (A) (A)
                 (A) (A) (A) (A) (A) (A) (A) (A) (A) (A) (A) (A)
                 (A) (A) (A) (A) (A) (A) (A) (A) (A) (A) (A) (A)
                 (A) (A) (A) (A) (A) (A) (A) (A) (A) (A) (A) (A)
                 (A) (A) (A) (A) (A) (A) (A) (A) (A) (A) (A) (A)
                 (A) (A) (A) (A) (A) (A) (A) (A) (A) (A) (A) (A)
                 (A) (A) (A) (A) (A) (A) (A) (A) (A) (A) (A) (A)
                 (A) (A) (A) (A) (A) (A) (A) (A) (A) (A) (A) (A)
                 (A) (A) (A) (A) (A) (A) (A) (A) (A) (A) (A) (A)
                 (A) (A) (A) (A) (A) (A) (A) (A) (A) (A) (A) (A)
                 (A) (A) (A) (A) (A) (A) (A) (A) (A) (A) (A) (A)
                 (A) (A) (A) (A) (A) (A) (A) (A) (A) (A) (A) (A)
                 (A) (A) (A) (A) (A) (A) (A) (A) (A) (A) (A) (A)
                 (A) (A) (A) (A) (A) (A) (A) (A) (A) (A) (A) (A)
                 (A) (A) (A) (A) (A) (A) (A) (A) (A) (A) (A) (A)
                 (A) (A) (A) (A) (A) (A) (A) (A) (A) (A) (A) (A)
                 (A) (A) (A) (A) (A) (A) (A) (A) (A) (A) (A) (A)
                 (A) (A) (A) (A) (A) (A) (A) (A) (A) (A) (A) (A)
                 (A) (A) (A) (A) (A) (A) (A) (A) (A) (A) (A) (A)
                 (A) (A) (A) (A) (A) (A) (A) (A) (A) (A) (A) (A)
                 (A) (A) (A) (A) (A) (A) (A) (A) (A) (A) (A) (A)
                 (A) (A) (A) (A) (A) (A) (A) (A) (A) (A) (A) (A)
                 (A) (A) (A) (A) (A) (A) (A) (A) (A) (A) (A) (A)
                 (A) (A) (A) (A) (A) (A) (A) (A) (A) (A) (A) (A)
                 (A) (A) (A) (A) (A) (A) (A) (A) (A) (A) (A) (A)
                 (A) (A) (A) (A) (A) (A) (A) (A) (A) (A) (A) (A)
                 (A) (A) (A) (A) (A) (A) (A) (A) (A) (A) (A) (A)
                 (A) (A)
 The electronic state is 1-A.
 Alpha  occ. eigenvalues --  -14.33362 -14.33253 -10.22124 -10.22083 -10.19933
 Alpha  occ. eigenvalues --  -10.19040 -10.18443 -10.18382 -10.18347 -10.18208
 Alpha  occ. eigenvalues --  -10.18068 -10.17922 -10.17819 -10.17734 -10.17536
 Alpha  occ. eigenvalues --  -10.17308 -10.17153 -10.16958 -10.16869 -10.16861
 Alpha  occ. eigenvalues --   -0.91157  -0.91000  -0.86814  -0.83246  -0.80069
 Alpha  occ. eigenvalues --   -0.78288  -0.73828  -0.72842  -0.71333  -0.70416
 Alpha  occ. eigenvalues --   -0.68146  -0.67655  -0.62155  -0.60730  -0.60425
 Alpha  occ. eigenvalues --   -0.58686  -0.55045  -0.54297  -0.51398  -0.50209
 Alpha  occ. eigenvalues --   -0.50051  -0.48654  -0.46004  -0.45872  -0.44160
 Alpha  occ. eigenvalues --   -0.43922  -0.42919  -0.42701  -0.42293  -0.41343
 Alpha  occ. eigenvalues --   -0.40879  -0.40084  -0.39345  -0.38682  -0.38387
 Alpha  occ. eigenvalues --   -0.37971  -0.37684  -0.36941  -0.35967  -0.34249
 Alpha  occ. eigenvalues --   -0.33887  -0.33183  -0.32508  -0.31825  -0.31366
 Alpha  occ. eigenvalues --   -0.30694  -0.28977  -0.28867  -0.24574  -0.23808
 Alpha  occ. eigenvalues --   -0.19803  -0.19586
 Alpha virt. eigenvalues --   -0.00205   0.00212   0.01669   0.02445   0.08696
 Alpha virt. eigenvalues --    0.09481   0.09622   0.10711   0.11945   0.12066
 Alpha virt. eigenvalues --    0.13031   0.13300   0.14063   0.14321   0.14751
 Alpha virt. eigenvalues --    0.15487   0.15949   0.16424   0.16850   0.17909
 Alpha virt. eigenvalues --    0.18332   0.18647   0.20147   0.20251   0.20438
 Alpha virt. eigenvalues --    0.20954   0.21286   0.22814   0.23227   0.24077
 Alpha virt. eigenvalues --    0.24891   0.25935   0.26899   0.27532   0.29080
 Alpha virt. eigenvalues --    0.29677   0.30330   0.31961   0.33981   0.34516
 Alpha virt. eigenvalues --    0.35302   0.36129   0.36858   0.37405   0.39216
 Alpha virt. eigenvalues --    0.40551   0.47331   0.48305   0.49600   0.50766
 Alpha virt. eigenvalues --    0.51464   0.52277   0.53007   0.53530   0.53912
 Alpha virt. eigenvalues --    0.54919   0.55294   0.55829   0.56479   0.57537
 Alpha virt. eigenvalues --    0.58274   0.58927   0.59413   0.59741   0.60096
 Alpha virt. eigenvalues --    0.60340   0.60667   0.61666   0.62272   0.62727
 Alpha virt. eigenvalues --    0.63109   0.63967   0.64807   0.65502   0.67626
 Alpha virt. eigenvalues --    0.68750   0.69477   0.69833   0.70451   0.71034
 Alpha virt. eigenvalues --    0.71913   0.72484   0.73938   0.75600   0.75958
 Alpha virt. eigenvalues --    0.77043   0.77491   0.78574   0.80020   0.80511
 Alpha virt. eigenvalues --    0.81037   0.82203   0.82591   0.82959   0.83436
 Alpha virt. eigenvalues --    0.84201   0.85335   0.85760   0.86033   0.86541
 Alpha virt. eigenvalues --    0.86906   0.87212   0.87865   0.88785   0.89101
 Alpha virt. eigenvalues --    0.89400   0.89678   0.90545   0.91118   0.91736
 Alpha virt. eigenvalues --    0.92719   0.93592   0.94514   0.95398   0.96342
 Alpha virt. eigenvalues --    0.97304   0.97571   0.98964   0.99686   0.99864
 Alpha virt. eigenvalues --    1.01002   1.01794   1.02772   1.03986   1.04511
 Alpha virt. eigenvalues --    1.06107   1.07067   1.08889   1.10528   1.11501
 Alpha virt. eigenvalues --    1.14537   1.16726   1.17275   1.18034   1.19168
 Alpha virt. eigenvalues --    1.21038   1.22601   1.26327   1.27518   1.28234
 Alpha virt. eigenvalues --    1.30490   1.31781   1.33362   1.36571   1.36805
 Alpha virt. eigenvalues --    1.39362   1.40651   1.40746   1.41474   1.41976
 Alpha virt. eigenvalues --    1.43352   1.44418   1.44962   1.46805   1.48947
 Alpha virt. eigenvalues --    1.49899   1.52640   1.54663   1.55010   1.58391
 Alpha virt. eigenvalues --    1.60188   1.62255   1.70850   1.71027   1.73445
 Alpha virt. eigenvalues --    1.76510   1.76698   1.76892   1.77848   1.78997
 Alpha virt. eigenvalues --    1.79573   1.80453   1.80668   1.81327   1.82478
 Alpha virt. eigenvalues --    1.83267   1.83790   1.85472   1.85907   1.86936
 Alpha virt. eigenvalues --    1.87511   1.88146   1.88734   1.90586   1.91307
 Alpha virt. eigenvalues --    1.92309   1.93127   1.93963   1.94545   1.95801
 Alpha virt. eigenvalues --    1.97478   1.97720   1.98772   1.99548   2.00186
 Alpha virt. eigenvalues --    2.00964   2.03085   2.04436   2.05535   2.05831
 Alpha virt. eigenvalues --    2.06098   2.06786   2.07982   2.08792   2.10059
 Alpha virt. eigenvalues --    2.10785   2.11987   2.12468   2.14255   2.14907
 Alpha virt. eigenvalues --    2.14992   2.16384   2.16468   2.16868   2.17391
 Alpha virt. eigenvalues --    2.19477   2.20827   2.23817   2.24357   2.24547
 Alpha virt. eigenvalues --    2.25695   2.26022   2.27290   2.28050   2.28791
 Alpha virt. eigenvalues --    2.31030   2.32878   2.33878   2.34844   2.35229
 Alpha virt. eigenvalues --    2.35556   2.36575   2.37601   2.38003   2.39303
 Alpha virt. eigenvalues --    2.40965   2.41960   2.42276   2.44473   2.45509
 Alpha virt. eigenvalues --    2.46824   2.46915   2.47433   2.48609   2.49395
 Alpha virt. eigenvalues --    2.50660   2.52677   2.53164   2.54976   2.55837
 Alpha virt. eigenvalues --    2.56741   2.57775   2.58994   2.59805   2.60117
 Alpha virt. eigenvalues --    2.60584   2.62714   2.64385   2.66278   2.66478
 Alpha virt. eigenvalues --    2.66710   2.68546   2.69442   2.71113   2.72824
 Alpha virt. eigenvalues --    2.74147   2.75093   2.76093   2.77876   2.79213
 Alpha virt. eigenvalues --    2.79588   2.80432   2.81301   2.82390   2.84421
 Alpha virt. eigenvalues --    2.85242   2.86672   2.87213   2.88706   2.89893
 Alpha virt. eigenvalues --    2.90788   2.92745   2.94892   2.97469   2.97803
 Alpha virt. eigenvalues --    2.99624   2.99740   3.01354   3.04962   3.06853
 Alpha virt. eigenvalues --    3.08571   3.11412   3.19783   3.19960   3.22015
 Alpha virt. eigenvalues --    3.23511   3.24330   3.26626   3.28766   3.28926
 Alpha virt. eigenvalues --    3.29588   3.31352   3.32559   3.33792   3.38824
 Alpha virt. eigenvalues --    3.43952   3.44108   3.46034   3.46508   3.48008
 Alpha virt. eigenvalues --    3.48838   3.49882   3.51282   3.52288   3.53622
 Alpha virt. eigenvalues --    3.54527   3.79069   3.82567   4.04432   4.04708
 Alpha virt. eigenvalues --    4.14413   4.14803   4.16610   4.20328   4.23261
 Alpha virt. eigenvalues --    4.26397   4.37105   4.43704   4.44349   4.45731
 Alpha virt. eigenvalues --    4.48372   4.54231   4.55749   4.63019   4.73508
 Alpha virt. eigenvalues --    4.83725   4.86794   4.90810
          Condensed to atoms (all electrons):
               1          2          3          4          5          6
     1  N    6.837733   0.288792  -0.064288   0.002936   0.000979   0.000002
     2  C    0.288792   4.619761   0.493936  -0.005325  -0.033927   0.000048
     3  C   -0.064288   0.493936   5.137317   0.486139  -0.060158   0.012493
     4  C    0.002936  -0.005325   0.486139   4.868368   0.544253  -0.049341
     5  C    0.000979  -0.033927  -0.060158   0.544253   4.872088   0.363484
     6  C    0.000002   0.000048   0.012493  -0.049341   0.363484   4.971559
     7  C    0.000000   0.000039  -0.000304   0.002130  -0.049238   0.374462
     8  C   -0.000000  -0.000001  -0.000243  -0.004727  -0.051503   0.371917
     9  C    0.000001  -0.000291   0.008747  -0.057472  -0.073997   0.339639
    10  C   -0.000098   0.005862  -0.082191   0.331805  -0.030139  -0.062056
    11  C   -0.000002   0.000247  -0.002153  -0.046888  -0.000692   0.003496
    12  C   -0.000000   0.000002   0.000867   0.003748  -0.000307  -0.000097
    13  C    0.000000  -0.000000  -0.000021  -0.000102   0.000002   0.000003
    14  C   -0.000000   0.000000   0.000000  -0.000028   0.000000  -0.000001
    15  N   -0.000000   0.000000   0.000000  -0.000000   0.000000  -0.000000
    16  C    0.000000  -0.000008  -0.000101   0.000341   0.000033   0.000001
    17  C    0.000001  -0.000091  -0.002076  -0.009843   0.001764   0.000692
    18  C   -0.000002  -0.000168  -0.004300  -0.058366  -0.003312   0.002706
    19  C    0.004102  -0.016205  -0.061878  -0.029359   0.493216  -0.083203
    20  C   -0.068342   0.533048  -0.047205  -0.042749  -0.027464   0.007142
    21  H    0.343232  -0.025579  -0.009478   0.000035  -0.000007  -0.000000
    22  H    0.343215  -0.024977   0.005396  -0.000100  -0.000022  -0.000000
    23  H   -0.006631  -0.046725   0.354808  -0.031738   0.005609  -0.000235
    24  H   -0.000000  -0.000012  -0.000037   0.000386  -0.001045  -0.029778
    25  H   -0.000000  -0.000001   0.000006  -0.000019   0.004752  -0.028318
    26  H   -0.000000  -0.000002   0.000005  -0.000051  -0.007225  -0.027523
    27  H    0.000000  -0.000002   0.000005  -0.000029  -0.006221  -0.028619
    28  H    0.000000  -0.000002  -0.000142   0.001055  -0.002228  -0.030529
    29  H    0.000000   0.000000   0.000006   0.000140   0.004924  -0.027960
    30  H   -0.000000   0.000003  -0.000169   0.004599   0.004652  -0.027204
    31  H   -0.000000   0.000001  -0.000185   0.000350   0.000804  -0.032503
    32  H    0.000000  -0.000000  -0.000025   0.000167  -0.000000  -0.000008
    33  H    0.000000  -0.000000   0.000000   0.000002  -0.000000  -0.000000
    34  H    0.000000   0.000000   0.000000  -0.000000   0.000000  -0.000000
    35  H   -0.000000   0.000000   0.000000  -0.000000  -0.000000  -0.000000
    36  H    0.000000  -0.000000   0.000001   0.000007  -0.000000   0.000000
    37  H   -0.000003  -0.000239   0.002134   0.007679   0.000809  -0.000334
    38  H   -0.000000   0.000007   0.000078   0.005494   0.000126  -0.000121
    39  H    0.000001  -0.000021   0.000135  -0.002488   0.000854   0.001122
    40  H   -0.000001  -0.000040   0.002901  -0.006204  -0.000002  -0.000256
    41  H   -0.000108   0.003547   0.000776   0.004880  -0.038430  -0.008159
    42  H   -0.007031  -0.042257   0.005147   0.000985   0.003012  -0.000179
               7          8          9         10         11         12
     1  N    0.000000  -0.000000   0.000001  -0.000098  -0.000002  -0.000000
     2  C    0.000039  -0.000001  -0.000291   0.005862   0.000247   0.000002
     3  C   -0.000304  -0.000243   0.008747  -0.082191  -0.002153   0.000867
     4  C    0.002130  -0.004727  -0.057472   0.331805  -0.046888   0.003748
     5  C   -0.049238  -0.051503  -0.073997  -0.030139  -0.000692  -0.000307
     6  C    0.374462   0.371917   0.339639  -0.062056   0.003496  -0.000097
     7  C    4.993962  -0.063750  -0.046399   0.003844  -0.000010   0.000001
     8  C   -0.063750   4.993609  -0.046190   0.001484  -0.000037   0.000000
     9  C   -0.046399  -0.046190   5.132567   0.335179  -0.051263   0.001519
    10  C    0.003844   0.001484   0.335179   5.122063   0.350452  -0.047945
    11  C   -0.000010  -0.000037  -0.051263   0.350452   4.796615   0.522962
    12  C    0.000001   0.000000   0.001519  -0.047945   0.522962   4.957223
    13  C   -0.000000  -0.000000  -0.000131   0.006229  -0.030626   0.500983
    14  C    0.000000   0.000000   0.000057   0.000364  -0.030205  -0.023617
    15  N    0.000000   0.000000   0.000000   0.000001   0.000602   0.004476
    16  C   -0.000001  -0.000000  -0.000122   0.005928  -0.030661  -0.044839
    17  C   -0.000148   0.000000  -0.011729  -0.056851   0.520955  -0.056002
    18  C   -0.000122  -0.000070  -0.051081   0.345884  -0.033390  -0.012852
    19  C   -0.004408  -0.002699   0.007597   0.011250  -0.000146   0.000003
    20  C    0.000022   0.000115  -0.000337   0.000023   0.000031   0.000000
    21  H    0.000000  -0.000000  -0.000000  -0.000001   0.000001   0.000000
    22  H    0.000000  -0.000000  -0.000000   0.000003   0.000000  -0.000000
    23  H    0.000003   0.000002   0.000174  -0.008576   0.004307   0.000102
    24  H    0.373196   0.005718  -0.005869   0.000147  -0.000041   0.000001
    25  H    0.371323  -0.003286  -0.006583  -0.000032  -0.000010  -0.000000
    26  H    0.373025  -0.004700   0.005139  -0.000153   0.000002  -0.000000
    27  H   -0.005852   0.372477   0.005312  -0.000199   0.000001  -0.000000
    28  H    0.005731   0.375579  -0.004562   0.000808   0.000007  -0.000000
    29  H   -0.003620   0.369135  -0.006851  -0.000077   0.000001  -0.000000
    30  H    0.001405  -0.008528   0.355583  -0.027079   0.001403   0.000590
    31  H   -0.010437   0.004988   0.365741  -0.033797  -0.005750   0.000005
    32  H    0.000000   0.000001   0.000238  -0.013501  -0.040337   0.367452
    33  H   -0.000000   0.000000   0.000000  -0.000154   0.003727  -0.032620
    34  H    0.000000   0.000000   0.000000  -0.000000  -0.000007  -0.000164
    35  H    0.000000   0.000000   0.000000  -0.000000  -0.000003  -0.000019
    36  H   -0.000000  -0.000000  -0.000002  -0.000165   0.003646   0.000702
    37  H   -0.000047   0.000018   0.000821  -0.011902  -0.042535   0.005856
    38  H    0.000003  -0.000051  -0.007598  -0.020878  -0.007222   0.001936
    39  H    0.000010  -0.001142  -0.003403  -0.027791   0.004222   0.000232
    40  H    0.000003   0.000042   0.005362  -0.026179  -0.005069   0.002146
    41  H    0.001690   0.000395   0.000093  -0.000189   0.000002  -0.000000
    42  H    0.000000   0.000002   0.000004   0.000007   0.000000   0.000000
              13         14         15         16         17         18
     1  N    0.000000  -0.000000  -0.000000   0.000000   0.000001  -0.000002
     2  C   -0.000000   0.000000   0.000000  -0.000008  -0.000091  -0.000168
     3  C   -0.000021   0.000000   0.000000  -0.000101  -0.002076  -0.004300
     4  C   -0.000102  -0.000028  -0.000000   0.000341  -0.009843  -0.058366
     5  C    0.000002   0.000000   0.000000   0.000033   0.001764  -0.003312
     6  C    0.000003  -0.000001  -0.000000   0.000001   0.000692   0.002706
     7  C   -0.000000   0.000000   0.000000  -0.000001  -0.000148  -0.000122
     8  C   -0.000000   0.000000   0.000000  -0.000000   0.000000  -0.000070
     9  C   -0.000131   0.000057   0.000000  -0.000122  -0.011729  -0.051081
    10  C    0.006229   0.000364   0.000001   0.005928  -0.056851   0.345884
    11  C   -0.030626  -0.030205   0.000602  -0.030661   0.520955  -0.033390
    12  C    0.500983  -0.023617   0.004476  -0.044839  -0.056002  -0.012852
    13  C    4.969673   0.541193  -0.070854  -0.049086  -0.046730   0.000123
    14  C    0.541193   4.578611   0.295215   0.536461  -0.023535  -0.000010
    15  N   -0.070854   0.295215   6.837719  -0.070910   0.004467  -0.000000
    16  C   -0.049086   0.536461  -0.070910   4.959253   0.508032  -0.000158
    17  C   -0.046730  -0.023535   0.004467   0.508032   4.963290   0.006361
    18  C    0.000123  -0.000010  -0.000000  -0.000158   0.006361   5.020103
    19  C   -0.000000  -0.000000   0.000000   0.000000  -0.000078  -0.000523
    20  C   -0.000000   0.000000   0.000000  -0.000001   0.000002   0.000076
    21  H    0.000000   0.000000   0.000000  -0.000000  -0.000001  -0.000002
    22  H    0.000000   0.000000  -0.000000  -0.000000  -0.000000  -0.000000
    23  H   -0.000033  -0.000002   0.000000  -0.000088   0.002231   0.000527
    24  H   -0.000000   0.000000  -0.000000   0.000001  -0.000073   0.000006
    25  H    0.000000  -0.000000   0.000000   0.000000   0.000002   0.000004
    26  H    0.000000  -0.000000   0.000000   0.000000   0.000002   0.000004
    27  H    0.000000  -0.000000  -0.000000   0.000000   0.000000   0.000030
    28  H   -0.000000   0.000000   0.000000  -0.000000  -0.000001  -0.001036
    29  H    0.000000  -0.000000  -0.000000  -0.000000  -0.000000  -0.000015
    30  H    0.000000  -0.000004  -0.000000   0.000011   0.000044  -0.009266
    31  H   -0.000097  -0.000011  -0.000000  -0.000281   0.005935   0.005087
    32  H   -0.041997   0.004281  -0.000120   0.000531   0.005935   0.005450
    33  H    0.362865  -0.044380  -0.007409   0.005411   0.000667   0.000007
    34  H    0.005533  -0.025518   0.343312  -0.009408  -0.000013   0.000000
    35  H   -0.009402  -0.025195   0.343375   0.005537  -0.000177   0.000000
    36  H    0.005346  -0.043889  -0.007397   0.362969  -0.032947   0.000002
    37  H    0.000526   0.004059  -0.000119  -0.038734   0.362830   0.000241
    38  H    0.000192  -0.000005  -0.000000   0.000003  -0.000317   0.365584
    39  H   -0.000005   0.000000  -0.000000   0.000002  -0.000089   0.375763
    40  H   -0.000084  -0.000002   0.000000  -0.000006  -0.000043   0.369686
    41  H    0.000000   0.000000   0.000000  -0.000000  -0.000000   0.000000
    42  H   -0.000000  -0.000000   0.000000   0.000000  -0.000000   0.000000
              19         20         21         22         23         24
     1  N    0.004102  -0.068342   0.343232   0.343215  -0.006631  -0.000000
     2  C   -0.016205   0.533048  -0.025579  -0.024977  -0.046725  -0.000012
     3  C   -0.061878  -0.047205  -0.009478   0.005396   0.354808  -0.000037
     4  C   -0.029359  -0.042749   0.000035  -0.000100  -0.031738   0.000386
     5  C    0.493216  -0.027464  -0.000007  -0.000022   0.005609  -0.001045
     6  C   -0.083203   0.007142  -0.000000  -0.000000  -0.000235  -0.029778
     7  C   -0.004408   0.000022   0.000000   0.000000   0.000003   0.373196
     8  C   -0.002699   0.000115  -0.000000  -0.000000   0.000002   0.005718
     9  C    0.007597  -0.000337  -0.000000  -0.000000   0.000174  -0.005869
    10  C    0.011250   0.000023  -0.000001   0.000003  -0.008576   0.000147
    11  C   -0.000146   0.000031   0.000001   0.000000   0.004307  -0.000041
    12  C    0.000003   0.000000   0.000000  -0.000000   0.000102   0.000001
    13  C   -0.000000  -0.000000   0.000000   0.000000  -0.000033  -0.000000
    14  C   -0.000000   0.000000   0.000000   0.000000  -0.000002   0.000000
    15  N    0.000000   0.000000   0.000000  -0.000000   0.000000  -0.000000
    16  C    0.000000  -0.000001  -0.000000  -0.000000  -0.000088   0.000001
    17  C   -0.000078   0.000002  -0.000001  -0.000000   0.002231  -0.000073
    18  C   -0.000523   0.000076  -0.000002  -0.000000   0.000527   0.000006
    19  C    5.002623   0.495080  -0.000165  -0.000034   0.000455   0.000864
    20  C    0.495080   4.974635   0.005450  -0.009512   0.004944  -0.000064
    21  H   -0.000165   0.005450   0.435793  -0.028450   0.004712  -0.000000
    22  H   -0.000034  -0.009512  -0.028450   0.435641  -0.000084  -0.000000
    23  H    0.000455   0.004944   0.004712  -0.000084   0.630617   0.000000
    24  H    0.000864  -0.000064  -0.000000  -0.000000   0.000000   0.612666
    25  H    0.000036   0.000003  -0.000000  -0.000000  -0.000000  -0.030399
    26  H    0.002069  -0.000023   0.000000   0.000000   0.000000  -0.031762
    27  H    0.002913  -0.000073   0.000000   0.000000   0.000000  -0.000022
    28  H    0.000084  -0.000025   0.000000   0.000000   0.000002  -0.000219
    29  H   -0.000015   0.000002   0.000000   0.000000  -0.000000  -0.000080
    30  H   -0.000146   0.000005  -0.000000   0.000000  -0.000004  -0.000057
    31  H   -0.000233   0.000008  -0.000000   0.000000  -0.000003   0.004706
    32  H    0.000000   0.000000  -0.000000   0.000000  -0.000004   0.000000
    33  H    0.000000  -0.000000  -0.000000   0.000000  -0.000000   0.000000
    34  H   -0.000000  -0.000000  -0.000000  -0.000000   0.000000   0.000000
    35  H    0.000000   0.000000  -0.000000  -0.000000   0.000000   0.000000
    36  H   -0.000000  -0.000000  -0.000000   0.000000  -0.000001  -0.000001
    37  H    0.000030  -0.000001  -0.000001   0.000000   0.000066   0.000727
    38  H    0.000009  -0.000001   0.000000   0.000000  -0.000063  -0.000000
    39  H   -0.000199  -0.000017   0.000000  -0.000000   0.000115  -0.000000
    40  H    0.000014  -0.000002  -0.000000  -0.000000   0.001365  -0.000000
    41  H    0.364718  -0.040685   0.000003  -0.000005   0.000021   0.000133
    42  H   -0.033093   0.361689  -0.000055   0.004627  -0.000179   0.000001
              25         26         27         28         29         30
     1  N   -0.000000  -0.000000   0.000000   0.000000   0.000000  -0.000000
     2  C   -0.000001  -0.000002  -0.000002  -0.000002   0.000000   0.000003
     3  C    0.000006   0.000005   0.000005  -0.000142   0.000006  -0.000169
     4  C   -0.000019  -0.000051  -0.000029   0.001055   0.000140   0.004599
     5  C    0.004752  -0.007225  -0.006221  -0.002228   0.004924   0.004652
     6  C   -0.028318  -0.027523  -0.028619  -0.030529  -0.027960  -0.027204
     7  C    0.371323   0.373025  -0.005852   0.005731  -0.003620   0.001405
     8  C   -0.003286  -0.004700   0.372477   0.375579   0.369135  -0.008528
     9  C   -0.006583   0.005139   0.005312  -0.004562  -0.006851   0.355583
    10  C   -0.000032  -0.000153  -0.000199   0.000808  -0.000077  -0.027079
    11  C   -0.000010   0.000002   0.000001   0.000007   0.000001   0.001403
    12  C   -0.000000  -0.000000  -0.000000  -0.000000  -0.000000   0.000590
    13  C    0.000000   0.000000   0.000000  -0.000000   0.000000   0.000000
    14  C   -0.000000  -0.000000  -0.000000   0.000000  -0.000000  -0.000004
    15  N    0.000000   0.000000  -0.000000   0.000000  -0.000000  -0.000000
    16  C    0.000000   0.000000   0.000000  -0.000000  -0.000000   0.000011
    17  C    0.000002   0.000002   0.000000  -0.000001  -0.000000   0.000044
    18  C    0.000004   0.000004   0.000030  -0.001036  -0.000015  -0.009266
    19  C    0.000036   0.002069   0.002913   0.000084  -0.000015  -0.000146
    20  C    0.000003  -0.000023  -0.000073  -0.000025   0.000002   0.000005
    21  H   -0.000000   0.000000   0.000000   0.000000   0.000000  -0.000000
    22  H   -0.000000   0.000000   0.000000   0.000000   0.000000   0.000000
    23  H   -0.000000   0.000000   0.000000   0.000002  -0.000000  -0.000004
    24  H   -0.030399  -0.031762  -0.000022  -0.000219  -0.000080  -0.000057
    25  H    0.618666  -0.031926  -0.000315  -0.000060   0.003148   0.001351
    26  H   -0.031926   0.617426   0.004069  -0.000018  -0.000219  -0.000237
    27  H   -0.000315   0.004069   0.618537  -0.031032  -0.031207   0.000172
    28  H   -0.000060  -0.000018  -0.031032   0.608632  -0.030675   0.000823
    29  H    0.003148  -0.000219  -0.031207  -0.030675   0.619669   0.003129
    30  H    0.001351  -0.000237   0.000172   0.000823   0.003129   0.637913
    31  H    0.001012   0.000348  -0.000212  -0.000071   0.000157  -0.034000
    32  H   -0.000000  -0.000000  -0.000000   0.000000  -0.000000  -0.000103
    33  H    0.000000  -0.000000  -0.000000  -0.000000  -0.000000   0.000000
    34  H   -0.000000  -0.000000  -0.000000   0.000000  -0.000000  -0.000000
    35  H   -0.000000  -0.000000  -0.000000   0.000000   0.000000  -0.000000
    36  H    0.000000  -0.000000  -0.000000  -0.000000   0.000000  -0.000000
    37  H   -0.000001  -0.000004  -0.000000  -0.000000  -0.000000  -0.000013
    38  H   -0.000001   0.000000   0.000000   0.000092  -0.000001   0.004179
    39  H   -0.000000   0.000001   0.000034   0.004532   0.000004   0.000279
    40  H    0.000000  -0.000000  -0.000002   0.000029  -0.000001   0.000189
    41  H   -0.000129   0.002113   0.000955   0.000045  -0.000059  -0.000003
    42  H   -0.000000   0.000003   0.000002   0.000000  -0.000000  -0.000000
              31         32         33         34         35         36
     1  N   -0.000000   0.000000   0.000000   0.000000  -0.000000   0.000000
     2  C    0.000001  -0.000000  -0.000000   0.000000   0.000000  -0.000000
     3  C   -0.000185  -0.000025   0.000000   0.000000   0.000000   0.000001
     4  C    0.000350   0.000167   0.000002  -0.000000  -0.000000   0.000007
     5  C    0.000804  -0.000000  -0.000000   0.000000  -0.000000  -0.000000
     6  C   -0.032503  -0.000008  -0.000000  -0.000000  -0.000000   0.000000
     7  C   -0.010437   0.000000  -0.000000   0.000000   0.000000  -0.000000
     8  C    0.004988   0.000001   0.000000   0.000000   0.000000  -0.000000
     9  C    0.365741   0.000238   0.000000   0.000000   0.000000  -0.000002
    10  C   -0.033797  -0.013501  -0.000154  -0.000000  -0.000000  -0.000165
    11  C   -0.005750  -0.040337   0.003727  -0.000007  -0.000003   0.003646
    12  C    0.000005   0.367452  -0.032620  -0.000164  -0.000019   0.000702
    13  C   -0.000097  -0.041997   0.362865   0.005533  -0.009402   0.005346
    14  C   -0.000011   0.004281  -0.044380  -0.025518  -0.025195  -0.043889
    15  N   -0.000000  -0.000120  -0.007409   0.343312   0.343375  -0.007397
[...]
   173    C   12  py     Ryd( 3p)     0.00088
   174    C   12  pz     Val( 2p)     1.19225
   175    C   12  pz     Ryd( 3p)     0.00479
   176    C   12  dxy    Ryd( 3d)     0.00067
   177    C   12  dxz    Ryd( 3d)     0.00059
   178    C   12  dyz    Ryd( 3d)     0.00035
   179    C   12  dx2y2  Ryd( 3d)     0.00041
   180    C   12  dz2    Ryd( 3d)     0.00069

   181    C   13  S      Cor( 1S)     1.99904
   182    C   13  S      Val( 2S)     0.95119
   183    C   13  S      Ryd( 3S)     0.00069
   184    C   13  S      Ryd( 4S)     0.00004
   185    C   13  px     Val( 2p)     1.14643
   186    C   13  px     Ryd( 3p)     0.00435
   187    C   13  py     Val( 2p)     1.07793
   188    C   13  py     Ryd( 3p)     0.00157
   189    C   13  pz     Val( 2p)     1.11043
   190    C   13  pz     Ryd( 3p)     0.00421
   191    C   13  dxy    Ryd( 3d)     0.00039
   192    C   13  dxz    Ryd( 3d)     0.00066
   193    C   13  dyz    Ryd( 3d)     0.00040
   194    C   13  dx2y2  Ryd( 3d)     0.00045
   195    C   13  dz2    Ryd( 3d)     0.00054

   196    C   14  S      Cor( 1S)     1.99898
   197    C   14  S      Val( 2S)     0.84490
   198    C   14  S      Ryd( 3S)     0.00113
   199    C   14  S      Ryd( 4S)     0.00009
   200    C   14  px     Val( 2p)     0.92837
   201    C   14  px     Ryd( 3p)     0.00568
   202    C   14  py     Val( 2p)     0.97808
   203    C   14  py     Ryd( 3p)     0.00121
   204    C   14  pz     Val( 2p)     1.07144
   205    C   14  pz     Ryd( 3p)     0.00443
   206    C   14  dxy    Ryd( 3d)     0.00140
   207    C   14  dxz    Ryd( 3d)     0.00106
   208    C   14  dyz    Ryd( 3d)     0.00068
   209    C   14  dx2y2  Ryd( 3d)     0.00086
   210    C   14  dz2    Ryd( 3d)     0.00074

   211    N   15  S      Cor( 1S)     1.99952
   212    N   15  S      Val( 2S)     1.36647
   213    N   15  S      Ryd( 3S)     0.00012
   214    N   15  S      Ryd( 4S)     0.00001
   215    N   15  px     Val( 2p)     1.35514
   216    N   15  px     Ryd( 3p)     0.00261
   217    N   15  py     Val( 2p)     1.68699
   218    N   15  py     Ryd( 3p)     0.00351
   219    N   15  pz     Val( 2p)     1.43329
   220    N   15  pz     Ryd( 3p)     0.00219
   221    N   15  dxy    Ryd( 3d)     0.00082
   222    N   15  dxz    Ryd( 3d)     0.00054
   223    N   15  dyz    Ryd( 3d)     0.00103
   224    N   15  dx2y2  Ryd( 3d)     0.00076
   225    N   15  dz2    Ryd( 3d)     0.00028

   226    C   16  S      Cor( 1S)     1.99903
   227    C   16  S      Val( 2S)     0.95228
   228    C   16  S      Ryd( 3S)     0.00069
   229    C   16  S      Ryd( 4S)     0.00004
   230    C   16  px     Val( 2p)     1.06689
   231    C   16  px     Ryd( 3p)     0.00419
   232    C   16  py     Val( 2p)     1.07460
   233    C   16  py     Ryd( 3p)     0.00136
   234    C   16  pz     Val( 2p)     1.18302
   235    C   16  pz     Ryd( 3p)     0.00437
   236    C   16  dxy    Ryd( 3d)     0.00051
   237    C   16  dxz    Ryd( 3d)     0.00065
   238    C   16  dyz    Ryd( 3d)     0.00037
   239    C   16  dx2y2  Ryd( 3d)     0.00038
   240    C   16  dz2    Ryd( 3d)     0.00059

   241    C   17  S      Cor( 1S)     1.99906
   242    C   17  S      Val( 2S)     0.94606
   243    C   17  S      Ryd( 3S)     0.00084
   244    C   17  S      Ryd( 4S)     0.00006
   245    C   17  px     Val( 2p)     1.14153
   246    C   17  px     Ryd( 3p)     0.00373
   247    C   17  py     Val( 2p)     1.01160
   248    C   17  py     Ryd( 3p)     0.00165
   249    C   17  pz     Val( 2p)     1.12162
   250    C   17  pz     Ryd( 3p)     0.00468
   251    C   17  dxy    Ryd( 3d)     0.00046
   252    C   17  dxz    Ryd( 3d)     0.00077
   253    C   17  dyz    Ryd( 3d)     0.00044
   254    C   17  dx2y2  Ryd( 3d)     0.00046
   255    C   17  dz2    Ryd( 3d)     0.00053

   256    C   18  S      Cor( 1S)     1.99939
   257    C   18  S      Val( 2S)     1.09295
   258    C   18  S      Ryd( 3S)     0.00063
   259    C   18  S      Ryd( 4S)     0.00001
   260    C   18  px     Val( 2p)     1.25011
   261    C   18  px     Ryd( 3p)     0.00225
   262    C   18  py     Val( 2p)     1.24609
   263    C   18  py     Ryd( 3p)     0.00161
   264    C   18  pz     Val( 2p)     1.08069
   265    C   18  pz     Ryd( 3p)     0.00203
   266    C   18  dxy    Ryd( 3d)     0.00052
   267    C   18  dxz    Ryd( 3d)     0.00047
   268    C   18  dyz    Ryd( 3d)     0.00072
   269    C   18  dx2y2  Ryd( 3d)     0.00058
   270    C   18  dz2    Ryd( 3d)     0.00064

   271    C   19  S      Cor( 1S)     1.99904
   272    C   19  S      Val( 2S)     0.93617
   273    C   19  S      Ryd( 3S)     0.00080
   274    C   19  S      Ryd( 4S)     0.00004
   275    C   19  px     Val( 2p)     1.16360
   276    C   19  px     Ryd( 3p)     0.00534
   277    C   19  py     Val( 2p)     1.07562
   278    C   19  py     Ryd( 3p)     0.00440
   279    C   19  pz     Val( 2p)     1.15240
   280    C   19  pz     Ryd( 3p)     0.00613
   281    C   19  dxy    Ryd( 3d)     0.00063
   282    C   19  dxz    Ryd( 3d)     0.00044
   283    C   19  dyz    Ryd( 3d)     0.00055
   284    C   19  dx2y2  Ryd( 3d)     0.00057
   285    C   19  dz2    Ryd( 3d)     0.00035

   286    C   20  S      Cor( 1S)     1.99907
   287    C   20  S      Val( 2S)     0.95236
   288    C   20  S      Ryd( 3S)     0.00065
   289    C   20  S      Ryd( 4S)     0.00004
   290    C   20  px     Val( 2p)     1.12551
   291    C   20  px     Ryd( 3p)     0.00482
   292    C   20  py     Val( 2p)     1.11467
   293    C   20  py     Ryd( 3p)     0.00444
   294    C   20  pz     Val( 2p)     1.10433
   295    C   20  pz     Ryd( 3p)     0.00569
   296    C   20  dxy    Ryd( 3d)     0.00072
   297    C   20  dxz    Ryd( 3d)     0.00041
   298    C   20  dyz    Ryd( 3d)     0.00063
   299    C   20  dx2y2  Ryd( 3d)     0.00050
   300    C   20  dz2    Ryd( 3d)     0.00041

   301    H   21  S      Val( 1S)     0.57042
   302    H   21  S      Ryd( 2S)     0.00206
   303    H   21  px     Ryd( 2p)     0.00038
   304    H   21  py     Ryd( 2p)     0.00026
   305    H   21  pz     Ryd( 2p)     0.00059

   306    H   22  S      Val( 1S)     0.56975
   307    H   22  S      Ryd( 2S)     0.00163
   308    H   22  px     Ryd( 2p)     0.00056
   309    H   22  py     Ryd( 2p)     0.00032
   310    H   22  pz     Ryd( 2p)     0.00035

   311    H   23  S      Val( 1S)     0.76497
   312    H   23  S      Ryd( 2S)     0.00139
   313    H   23  px     Ryd( 2p)     0.00031
   314    H   23  py     Ryd( 2p)     0.00010
   315    H   23  pz     Ryd( 2p)     0.00025

   316    H   24  S      Val( 1S)     0.76097
   317    H   24  S      Ryd( 2S)     0.00111
   318    H   24  px     Ryd( 2p)     0.00018
   319    H   24  py     Ryd( 2p)     0.00013
   320    H   24  pz     Ryd( 2p)     0.00020

   321    H   25  S      Val( 1S)     0.75999
   322    H   25  S      Ryd( 2S)     0.00100
   323    H   25  px     Ryd( 2p)     0.00009
   324    H   25  py     Ryd( 2p)     0.00035
   325    H   25  pz     Ryd( 2p)     0.00008

   326    H   26  S      Val( 1S)     0.76158
   327    H   26  S      Ryd( 2S)     0.00092
   328    H   26  px     Ryd( 2p)     0.00032
   329    H   26  py     Ryd( 2p)     0.00010
   330    H   26  pz     Ryd( 2p)     0.00010

   331    H   27  S      Val( 1S)     0.76108
   332    H   27  S      Ryd( 2S)     0.00131
   333    H   27  px     Ryd( 2p)     0.00032
   334    H   27  py     Ryd( 2p)     0.00010
   335    H   27  pz     Ryd( 2p)     0.00010

   336    H   28  S      Val( 1S)     0.76337
   337    H   28  S      Ryd( 2S)     0.00077
   338    H   28  px     Ryd( 2p)     0.00009
   339    H   28  py     Ryd( 2p)     0.00011
   340    H   28  pz     Ryd( 2p)     0.00032

   341    H   29  S      Val( 1S)     0.76052
   342    H   29  S      Ryd( 2S)     0.00107
   343    H   29  px     Ryd( 2p)     0.00009
   344    H   29  py     Ryd( 2p)     0.00035
   345    H   29  pz     Ryd( 2p)     0.00008

   346    H   30  S      Val( 1S)     0.75893
   347    H   30  S      Ryd( 2S)     0.00175
   348    H   30  px     Ryd( 2p)     0.00009
   349    H   30  py     Ryd( 2p)     0.00027
   350    H   30  pz     Ryd( 2p)     0.00018

   351    H   31  S      Val( 1S)     0.75505
   352    H   31  S      Ryd( 2S)     0.00135
   353    H   31  px     Ryd( 2p)     0.00019
   354    H   31  py     Ryd( 2p)     0.00010
   355    H   31  pz     Ryd( 2p)     0.00026

   356    H   32  S      Val( 1S)     0.75608
   357    H   32  S      Ryd( 2S)     0.00098
   358    H   32  px     Ryd( 2p)     0.00008
   359    H   32  py     Ryd( 2p)     0.00014
   360    H   32  pz     Ryd( 2p)     0.00039

   361    H   33  S      Val( 1S)     0.75883
   362    H   33  S      Ryd( 2S)     0.00098
   363    H   33  px     Ryd( 2p)     0.00025
   364    H   33  py     Ryd( 2p)     0.00013
   365    H   33  pz     Ryd( 2p)     0.00021

   366    H   34  S      Val( 1S)     0.58389
   367    H   34  S      Ryd( 2S)     0.00115
   368    H   34  px     Ryd( 2p)     0.00023
   369    H   34  py     Ryd( 2p)     0.00057
   370    H   34  pz     Ryd( 2p)     0.00047

   371    H   35  S      Val( 1S)     0.58411
   372    H   35  S      Ryd( 2S)     0.00121
   373    H   35  px     Ryd( 2p)     0.00039
   374    H   35  py     Ryd( 2p)     0.00047
   375    H   35  pz     Ryd( 2p)     0.00040

   376    H   36  S      Val( 1S)     0.75809
   377    H   36  S      Ryd( 2S)     0.00101
   378    H   36  px     Ryd( 2p)     0.00007
   379    H   36  py     Ryd( 2p)     0.00014
   380    H   36  pz     Ryd( 2p)     0.00039

   381    H   37  S      Val( 1S)     0.75660
   382    H   37  S      Ryd( 2S)     0.00148
   383    H   37  px     Ryd( 2p)     0.00027
   384    H   37  py     Ryd( 2p)     0.00013
   385    H   37  pz     Ryd( 2p)     0.00021

   386    H   38  S      Val( 1S)     0.76624
   387    H   38  S      Ryd( 2S)     0.00128
   388    H   38  px     Ryd( 2p)     0.00016
   389    H   38  py     Ryd( 2p)     0.00025
   390    H   38  pz     Ryd( 2p)     0.00011

   391    H   39  S      Val( 1S)     0.76034
   392    H   39  S      Ryd( 2S)     0.00078
   393    H   39  px     Ryd( 2p)     0.00032
   394    H   39  py     Ryd( 2p)     0.00010
   395    H   39  pz     Ryd( 2p)     0.00010

   396    H   40  S      Val( 1S)     0.76092
   397    H   40  S      Ryd( 2S)     0.00135
   398    H   40  px     Ryd( 2p)     0.00011
   399    H   40  py     Ryd( 2p)     0.00027
   400    H   40  pz     Ryd( 2p)     0.00015

   401    H   41  S      Val( 1S)     0.76678
   402    H   41  S      Ryd( 2S)     0.00095
   403    H   41  px     Ryd( 2p)     0.00031
   404    H   41  py     Ryd( 2p)     0.00011
   405    H   41  pz     Ryd( 2p)     0.00025

   406    H   42  S      Val( 1S)     0.76537
   407    H   42  S      Ryd( 2S)     0.00115
   408    H   42  px     Ryd( 2p)     0.00027
   409    H   42  py     Ryd( 2p)     0.00017
   410    H   42  pz     Ryd( 2p)     0.00021

 WARNING:  1 low occupancy (<1.9990e) core orbital  found on  C    2
           1 low occupancy (<1.9990e) core orbital  found on  C    3
           1 low occupancy (<1.9990e) core orbital  found on  C    4
           1 low occupancy (<1.9990e) core orbital  found on  C    5
           1 low occupancy (<1.9990e) core orbital  found on  C   14


 Summary of Natural Population Analysis:                  
                                                          
                                       Natural Population 
                Natural  -----------------------------------------------
    Atom  No    Charge         Core      Valence    Rydberg      Total
 -----------------------------------------------------------------------
      N    1   -0.70191      1.99947     5.69218    0.01026     7.70191
      C    2    0.18364      1.99898     3.79880    0.01858     5.81636
      C    3   -0.36028      1.99895     4.34184    0.01949     6.36028
      C    4   -0.07252      1.99897     4.05306    0.02050     6.07252
      C    5    0.06446      1.99894     3.91773    0.01887     5.93554
      C    6   -0.07329      1.99908     4.06019    0.01402     6.07329
      C    7   -0.67555      1.99938     4.66693    0.00924     6.67555
      C    8   -0.67204      1.99936     4.66347    0.00921     6.67204
      C    9   -0.43271      1.99925     4.41874    0.01472     6.43271
      C   10   -0.07144      1.99905     4.05499    0.01740     6.07144
      C   11   -0.06035      1.99900     4.04339    0.01796     6.06035
      C   12   -0.23016      1.99905     4.21850    0.01261     6.23016
      C   13   -0.29831      1.99904     4.28598    0.01329     6.29831
      C   14    0.16097      1.99898     3.82278    0.01727     5.83903
      N   15   -0.85327      1.99952     5.84188    0.01186     7.85327
      C   16   -0.28895      1.99903     4.27679    0.01313     6.28895
      C   17   -0.23350      1.99906     4.22081    0.01363     6.23350
      C   18   -0.67870      1.99939     4.66984    0.00947     6.67870
      C   19   -0.34609      1.99904     4.32780    0.01925     6.34609
      C   20   -0.31425      1.99907     4.29688    0.01830     6.31425
      H   21    0.42629      0.00000     0.57042    0.00329     0.57371
      H   22    0.42739      0.00000     0.56975    0.00286     0.57261
      H   23    0.23297      0.00000     0.76497    0.00206     0.76703
      H   24    0.23741      0.00000     0.76097    0.00163     0.76259
      H   25    0.23848      0.00000     0.75999    0.00153     0.76152
      H   26    0.23698      0.00000     0.76158    0.00144     0.76302
      H   27    0.23709      0.00000     0.76108    0.00183     0.76291
      H   28    0.23533      0.00000     0.76337    0.00130     0.76467
      H   29    0.23789      0.00000     0.76052    0.00159     0.76211
      H   30    0.23877      0.00000     0.75893    0.00230     0.76123
      H   31    0.24305      0.00000     0.75505    0.00191     0.75695
      H   32    0.24232      0.00000     0.75608    0.00159     0.75768
      H   33    0.23959      0.00000     0.75883    0.00158     0.76041
      H   34    0.41369      0.00000     0.58389    0.00242     0.58631
      H   35    0.41342      0.00000     0.58411    0.00247     0.58658
      H   36    0.24030      0.00000     0.75809    0.00161     0.75970
      H   37    0.24131      0.00000     0.75660    0.00209     0.75869
      H   38    0.23195      0.00000     0.76624    0.00180     0.76805
      H   39    0.23836      0.00000     0.76034    0.00130     0.76164
      H   40    0.23720      0.00000     0.76092    0.00188     0.76280
      H   41    0.23161      0.00000     0.76678    0.00162     0.76839
      H   42    0.23283      0.00000     0.76537    0.00180     0.76717
 =======================================================================
   * Total *    0.00000     39.98262   103.67644    0.34094   144.00000

                                 Natural Population      
 --------------------------------------------------------
   Core                      39.98262 ( 99.9566% of  40)
   Valence                  103.67644 ( 99.6889% of 104)
   Natural Minimal Basis    143.65906 ( 99.7632% of 144)
   Natural Rydberg Basis      0.34094 (  0.2368% of 144)
 --------------------------------------------------------

    Atom  No          Natural Electron Configuration
 ----------------------------------------------------------------------------
      N    1      [core]2S( 1.38)2p( 4.32)3p( 0.01)
      C    2      [core]2S( 0.85)2p( 2.94)3p( 0.01)3d( 0.01)
      C    3      [core]2S( 0.93)2p( 3.41)3p( 0.02)
      C    4      [core]2S( 0.86)2p( 3.20)3p( 0.02)
      C    5      [core]2S( 0.87)2p( 3.05)3p( 0.01)
      C    6      [core]2S( 0.91)2p( 3.15)3p( 0.01)
      C    7      [core]2S( 1.09)2p( 3.57)3p( 0.01)
      C    8      [core]2S( 1.10)2p( 3.57)3p( 0.01)
      C    9      [core]2S( 1.03)2p( 3.39)3p( 0.01)
      C   10      [core]2S( 0.90)2p( 3.16)3p( 0.01)
      C   11      [core]2S( 0.87)2p( 3.17)3p( 0.01)
      C   12      [core]2S( 0.95)2p( 3.27)3p( 0.01)
      C   13      [core]2S( 0.95)2p( 3.33)3p( 0.01)
      C   14      [core]2S( 0.84)2p( 2.98)3p( 0.01)
      N   15      [core]2S( 1.37)2p( 4.48)3p( 0.01)
      C   16      [core]2S( 0.95)2p( 3.32)3p( 0.01)
      C   17      [core]2S( 0.95)2p( 3.27)3p( 0.01)
      C   18      [core]2S( 1.09)2p( 3.58)3p( 0.01)
      C   19      [core]2S( 0.94)2p( 3.39)3p( 0.02)
      C   20      [core]2S( 0.95)2p( 3.34)3p( 0.01)
      H   21            1S( 0.57)
      H   22            1S( 0.57)
      H   23            1S( 0.76)
      H   24            1S( 0.76)
      H   25            1S( 0.76)
      H   26            1S( 0.76)
      H   27            1S( 0.76)
      H   28            1S( 0.76)
      H   29            1S( 0.76)
      H   30            1S( 0.76)
      H   31            1S( 0.76)
      H   32            1S( 0.76)
      H   33            1S( 0.76)
      H   34            1S( 0.58)
      H   35            1S( 0.58)
      H   36            1S( 0.76)
      H   37            1S( 0.76)
      H   38            1S( 0.77)
      H   39            1S( 0.76)
      H   40            1S( 0.76)
      H   41            1S( 0.77)
      H   42            1S( 0.77)


 NBO analysis skipped by request.
 1\1\GINC-DRG2-W002\SP\RB3LYP TD-FC\6-31G(d,p)\C18H22N2\QDUEZ\17-Jul-20
 24\0\\# TD(NStates=10, Root=1) B3LYP/6-31G** SCRF=(Solvent=water) volu
 me pop=NPA density=current Geom=AllCheck Guess=Read\\GDGWSSXWLLHGGV-SF
 HVURJKSA-N_conf_1\\0,1\N,0,-2.1561540207,-3.569721292,1.5775540845\C,0
 ,-2.0972654602,-2.2871967295,1.0178571265\C,0,-0.9262957296,-1.8345574
 546,0.3838889444\C,0,-0.8610565689,-0.5310730716,-0.1041118238\C,0,-1.
 9435161774,0.3452386683,0.0223058622\C,0,-1.6650765024,1.7058766093,-0
 .6052679532\C,0,-1.9701038569,2.8672858178,0.3608543221\C,0,-2.4977124
 034,1.9030906044,-1.8924815065\C,0,-0.1330501055,1.6164978043,-0.90553
 57557\C,0,0.3011618923,0.1058665037,-0.8715241843\C,0,1.6450460353,-0.
 0776620365,-0.1499088804\C,0,2.8074328685,-0.5387512147,-0.7814572232\
 C,0,4.0169815209,-0.6727711864,-0.0965620846\C,0,4.1138895203,-0.34729
 79133,1.2646212468\N,0,5.3348215878,-0.416218293,1.9422526435\C,0,2.95
 20363724,0.1136840677,1.9121547374\C,0,1.7555873318,0.2404037227,1.215
 9190393\C,0,0.3317835024,-0.4787244789,-2.3019698323\C,0,-3.1102919346
 ,-0.1007633065,0.6481207215\C,0,-3.1873881295,-1.4026434348,1.14238353
 99\H,0,-1.538821748,-4.2425254624,1.1398280616\H,0,-3.0928041006,-3.94
 62615061,1.6565357671\H,0,-0.073419288,-2.5029491816,0.2887595223\H,0,
 -1.4216917305,2.7528280756,1.3015812963\H,0,-1.6840743708,3.8271200591
 ,-0.084756018\H,0,-3.0389125284,2.9179511069,0.5969185889\H,0,-3.56967
 92906,1.896681573,-1.6657855773\H,0,-2.308971285,1.1125474837,-2.62463
 97038\H,0,-2.2601132904,2.8640502718,-2.3634215779\H,0,0.1263156481,2.
 083922026,-1.8614854992\H,0,0.4134529114,2.1610495214,-0.1302666786\H,
 0,2.7893662141,-0.8079608544,-1.8317641256\H,0,4.8959787371,-1.0346134
 669,-0.6244339987\H,0,5.2514920081,-0.5444530377,2.9431002067\H,0,5.99
 42414721,-1.0769848221,1.5502972688\H,0,2.9937163059,0.3697218465,2.96
 81073483\H,0,0.8778660168,0.5898468019,1.7532878709\H,0,1.0656090565,0
 .0381940054,-2.9288355644\H,0,-0.645886181,-0.3683456936,-2.7772917985
 \H,0,0.5773690211,-1.545370663,-2.2927038366\H,0,-3.9675982615,0.55923
 37049,0.7574792699\H,0,-4.094265059,-1.7442451748,1.6352087241\\Versio
 n=ES64L-G16RevA.03\State=1-A\HF=-808.7326885\RMSD=5.967e-09\Dipole=0.0
 074514,-1.8760652,0.4377195\Quadrupole=1.3443645,5.3419168,-6.6862813,
 -0.0547536,2.6854459,-4.6361244\PG=C01 [X(C18H22N2)]\\@


 IT IS A SIMPLE TASK TO MAKE THINGS COMPLEX,
 BUT A COMPLEX TASK TO MAKE THEM SIMPLE.
 Job cpu time:       0 days  2 hours 13 minutes 40.9 seconds.
 Elapsed time:       0 days  0 hours 44 minutes 43.2 seconds.
 File lengths (MBytes):  RWF=   1315 Int=      0 D2E=      0 Chk=     83 Scr=      1
 Normal termination of Gaussian 16 at Wed Jul 17 20:19:48 2024.
