 Entering Gaussian System, Link 0=g16
 Initial command:
 /opt/sw/arch/manual/gaussian/G16_A03/g16/l1.exe "/scratch/1380826/Gau-35519.inp" -scrdir="/scratch/1380826/"
 Entering Link 1 = /opt/sw/arch/manual/gaussian/G16_A03/g16/l1.exe PID=     35520.
  
 Copyright (c) 1988,1990,1992,1993,1995,1998,2003,2009,2016,
            Gaussian, Inc.  All Rights Reserved.
  
 This is part of the Gaussian(R) 16 program.  It is based on
 the Gaussian(R) 09 system (copyright 2009, Gaussian, Inc.),
 the Gaussian(R) 03 system (copyright 2003, Gaussian, Inc.),
 the Gaussian(R) 98 system (copyright 1998, Gaussian, Inc.),
 the Gaussian(R) 94 system (copyright 1995, Gaussian, Inc.),
 the Gaussian 92(TM) system (copyright 1992, Gaussian, Inc.),
 the Gaussian 90(TM) system (copyright 1990, Gaussian, Inc.),
 the Gaussian 88(TM) system (copyright 1988, Gaussian, Inc.),
 the Gaussian 86(TM) system (copyright 1986, Carnegie Mellon
 University), and the Gaussian 82(TM) system (copyright 1983,
 Carnegie Mellon University). Gaussian is a federally registered
 trademark of Gaussian, Inc.
  
 This software contains proprietary and confidential information,
 including trade secrets, belonging to Gaussian, Inc.
  
 This software is provided under written license and may be
 used, copied, transmitted, or stored only in accord with that
 written license.
  
 The following legend is applicable only to US Government
 contracts under FAR:
  
                    RESTRICTED RIGHTS LEGEND
  
 Use, reproduction and disclosure by the US Government is
 subject to restrictions as set forth in subparagraphs (a)
 and (c) of the Commercial Computer Software - Restricted
 Rights clause in FAR 52.227-19.
  
 Gaussian, Inc.
 340 Quinnipiac St., Bldg. 40, Wallingford CT 06492
  
  
 ---------------------------------------------------------------
 Warning -- This program may not be used in any manner that
 competes with the business of Gaussian, Inc. or will provide
 assistance to any competitor of Gaussian, Inc.  The licensee
 of this program is prohibited from giving any competitor of
 Gaussian, Inc. access to this program.  By using this program,
 the user acknowledges that Gaussian, Inc. is engaged in the
 business of creating and licensing software in the field of
 computational chemistry and represents and warrants to the
 licensee that it is not a competitor of Gaussian, Inc. and that
 it will not use this program in any manner prohibited above.
 ---------------------------------------------------------------
  

 Cite this work as:
 Gaussian 16, Revision A.03,
 M. J. Frisch, G. W. Trucks, H. B. Schlegel, G. E. Scuseria, 
 M. A. Robb, J. R. Cheeseman, G. Scalmani, V. Barone, 
 G. A. Petersson, H. Nakatsuji, X. Li, M. Caricato, A. V. Marenich, 
 J. Bloino, B. G. Janesko, R. Gomperts, B. Mennucci, H. P. Hratchian, 
 J. V. Ortiz, A. F. Izmaylov, J. L. Sonnenberg, D. Williams-Young, 
 F. Ding, F. Lipparini, F. Egidi, J. Goings, B. Peng, A. Petrone, 
 T. Henderson, D. Ranasinghe, V. G. Zakrzewski, J. Gao, N. Rega, 
 G. Zheng, W. Liang, M. Hada, M. Ehara, K. Toyota, R. Fukuda, 
 J. Hasegawa, M. Ishida, T. Nakajima, Y. Honda, O. Kitao, H. Nakai, 
 T. Vreven, K. Throssell, J. A. Montgomery, Jr., J. E. Peralta, 
 F. Ogliaro, M. J. Bearpark, J. J. Heyd, E. N. Brothers, K. N. Kudin, 
 V. N. Staroverov, T. A. Keith, R. Kobayashi, J. Normand, 
 K. Raghavachari, A. P. Rendell, J. C. Burant, S. S. Iyengar, 
 J. Tomasi, M. Cossi, J. M. Millam, M. Klene, C. Adamo, R. Cammi, 
 J. W. Ochterski, R. L. Martin, K. Morokuma, O. Farkas, 
 J. B. Foresman, and D. J. Fox, Gaussian, Inc., Wallingford CT, 2016.
 
 ******************************************
 Gaussian 16:  ES64L-G16RevA.03 25-Dec-2016
                17-Jul-2024 
 ******************************************
 %nprocshared=7
 Will use up to    7 processors via shared memory.
 %mem=14GB
 %Chk=GDGWSSXWLLHGGV-SFHVURJKSA-N_conf_3_0.chk
 -------------------------------------------------------
 # opt=CalcFc B3LYP/6-31G** SCRF=(Solvent=water) scf=xqc
 -------------------------------------------------------
 1/10=4,18=20,19=15,26=3,38=1/1,3;
 2/9=110,12=2,17=6,18=5,40=1/2;
 3/5=1,6=6,7=101,11=2,25=1,30=1,70=2201,71=2,72=1,74=-5,140=1/1,2,3;
 4//1;
 5/5=2,8=3,13=1,38=5,53=1/2,8;
 8/6=4,10=90,11=11/1;
 11/6=1,8=1,9=11,15=111,16=1/1,2,10;
 10/6=1,13=1/2;
 6/7=2,8=2,9=2,10=2,28=1/1;
 7/10=1,18=20,25=1/1,2,3,16;
 1/10=4,18=20,19=15,26=3/3(2);
 2/9=110/2;
 99//99;
 2/9=110/2;
 3/5=1,6=6,7=101,11=2,25=1,30=1,70=2205,71=1,72=1,74=-5/1,2,3;
 4/5=5,16=3,69=1/1;
 5/5=2,8=3,13=1,38=5,53=1/2,8;
 7//1,2,3,16;
 1/18=20,19=15,26=3/3(-5);
 2/9=110/2;
 6/7=2,8=2,9=2,10=2,19=2,28=1/1;
 99/9=1/99;
 ----------------------------------
 GDGWSSXWLLHGGV-SFHVURJKSA-N_conf_3
 ----------------------------------
 Symbolic Z-matrix:
 Charge =  0 Multiplicity = 1
 N                    -2.41353   3.42183   1.55777 
 C                    -2.27045   2.10575   1.09815 
 C                    -1.17047   1.75345   0.31145 
 C                    -0.96995   0.4175   -0.03397 
 C                    -1.84271  -0.57661   0.42068 
 C                    -1.46411  -1.9409   -0.09829 
 C                    -1.39881  -2.99141   1.01943 
 C                    -2.44502  -2.40945  -1.18066 
 C                    -0.04499  -1.6811   -0.67791 
 C                     0.13223  -0.14674  -0.91643 
 C                     1.54781   0.27765  -0.48885 
 C                     2.56042   0.56728  -1.4162 
 C                     3.84675   0.93373  -0.99672 
 C                     4.15351   1.0558    0.35724 
 N                     5.46788   1.30834   0.76627 
 C                     3.18127   0.69886   1.28804 
 C                     1.89515   0.33244   0.87483 
 C                    -0.2078    0.21892  -2.37678 
 C                    -2.91048  -0.24604   1.24364 
 C                    -3.10293   1.09317   1.5985 
 H                    -2.00091   4.11402   0.94057 
 H                    -3.36284   3.65862   1.82675 
 H                    -0.47038   2.51098  -0.02832 
 H                    -0.74835  -2.66574   1.83989 
 H                    -2.38838  -3.18642   1.44819 
 H                    -1.00892  -3.94246   0.63942 
 H                    -2.11845  -3.35847  -1.6205 
 H                    -2.54539  -1.68387  -1.99319 
 H                    -3.44819  -2.56363  -0.76577 
 H                     0.70527  -2.04259   0.03995 
 H                     0.13768  -2.25944  -1.5927 
 H                     2.38418   0.50115  -2.48592 
 H                     4.60974   1.12217  -1.74738 
 H                     6.00419   1.85337   0.09905 
 H                     5.53422   1.67984   1.7087 
 H                     3.41015   0.70229   2.35019 
 H                     1.16387   0.0769    1.64041 
 H                    -1.2534    0.0096   -2.62561 
 H                    -0.04917   1.28764  -2.56723 
 H                     0.40661  -0.34421  -3.0882 
 H                    -3.58672  -1.00748   1.61929 
 H                    -3.91856   1.34526   2.2712 
 

 GradGradGradGradGradGradGradGradGradGradGradGradGradGradGradGradGradGrad
 Berny optimization.
 Initialization pass.
                           ----------------------------
                           !    Initial Parameters    !
                           ! (Angstroms and Degrees)  !
 --------------------------                            --------------------------
 ! Name  Definition              Value          Derivative Info.                !
 --------------------------------------------------------------------------------
 ! R1    R(1,2)                  1.4013         calculate D2E/DX2 analytically  !
 ! R2    R(1,21)                 1.015          calculate D2E/DX2 analytically  !
 ! R3    R(1,22)                 1.0147         calculate D2E/DX2 analytically  !
 ! R4    R(2,3)                  1.3975         calculate D2E/DX2 analytically  !
 ! R5    R(2,20)                 1.4031         calculate D2E/DX2 analytically  !
 ! R6    R(3,4)                  1.3944         calculate D2E/DX2 analytically  !
 ! R7    R(3,23)                 1.086          calculate D2E/DX2 analytically  !
 ! R8    R(4,5)                  1.3988         calculate D2E/DX2 analytically  !
 ! R9    R(4,10)                 1.5205         calculate D2E/DX2 analytically  !
 ! R10   R(5,6)                  1.508          calculate D2E/DX2 analytically  !
 ! R11   R(5,19)                 1.388          calculate D2E/DX2 analytically  !
 ! R12   R(6,7)                  1.5353         calculate D2E/DX2 analytically  !
 ! R13   R(6,8)                  1.534          calculate D2E/DX2 analytically  !
 ! R14   R(6,9)                  1.5548         calculate D2E/DX2 analytically  !
 ! R15   R(7,24)                 1.0965         calculate D2E/DX2 analytically  !
 ! R16   R(7,25)                 1.096          calculate D2E/DX2 analytically  !
 ! R17   R(7,26)                 1.0959         calculate D2E/DX2 analytically  !
 ! R18   R(8,27)                 1.0958         calculate D2E/DX2 analytically  !
 ! R19   R(8,28)                 1.094          calculate D2E/DX2 analytically  !
 ! R20   R(8,29)                 1.0965         calculate D2E/DX2 analytically  !
 ! R21   R(9,10)                 1.5629         calculate D2E/DX2 analytically  !
 ! R22   R(9,30)                 1.0995         calculate D2E/DX2 analytically  !
 ! R23   R(9,31)                 1.0976         calculate D2E/DX2 analytically  !
 ! R24   R(10,11)                1.5384         calculate D2E/DX2 analytically  !
 ! R25   R(10,18)                1.5434         calculate D2E/DX2 analytically  !
 ! R26   R(11,12)                1.4033         calculate D2E/DX2 analytically  !
 ! R27   R(11,17)                1.4083         calculate D2E/DX2 analytically  !
 ! R28   R(12,13)                1.4017         calculate D2E/DX2 analytically  !
 ! R29   R(12,32)                1.0862         calculate D2E/DX2 analytically  !
 ! R30   R(13,14)                1.3936         calculate D2E/DX2 analytically  !
 ! R31   R(13,33)                1.0868         calculate D2E/DX2 analytically  !
 ! R32   R(14,15)                1.3995         calculate D2E/DX2 analytically  !
 ! R33   R(14,16)                1.3925         calculate D2E/DX2 analytically  !
 ! R34   R(15,34)                1.0148         calculate D2E/DX2 analytically  !
 ! R35   R(15,35)                1.0152         calculate D2E/DX2 analytically  !
 ! R36   R(16,17)                1.3997         calculate D2E/DX2 analytically  !
 ! R37   R(16,36)                1.0865         calculate D2E/DX2 analytically  !
 ! R38   R(17,37)                1.0891         calculate D2E/DX2 analytically  !
 ! R39   R(18,38)                1.095          calculate D2E/DX2 analytically  !
 ! R40   R(18,39)                1.0971         calculate D2E/DX2 analytically  !
 ! R41   R(18,40)                1.0958         calculate D2E/DX2 analytically  !
 ! R42   R(19,20)                1.3987         calculate D2E/DX2 analytically  !
 ! R43   R(19,41)                1.0855         calculate D2E/DX2 analytically  !
 ! R44   R(20,42)                1.0869         calculate D2E/DX2 analytically  !
 ! A1    A(2,1,21)             113.5467         calculate D2E/DX2 analytically  !
 ! A2    A(2,1,22)             113.6802         calculate D2E/DX2 analytically  !
 ! A3    A(21,1,22)            112.48           calculate D2E/DX2 analytically  !
 ! A4    A(1,2,3)              120.1162         calculate D2E/DX2 analytically  !
 ! A5    A(1,2,20)             120.0141         calculate D2E/DX2 analytically  !
 ! A6    A(3,2,20)             119.0668         calculate D2E/DX2 analytically  !
 ! A7    A(2,3,4)              119.6153         calculate D2E/DX2 analytically  !
 ! A8    A(2,3,23)             120.5099         calculate D2E/DX2 analytically  !
 ! A9    A(4,3,23)             119.8743         calculate D2E/DX2 analytically  !
 ! A10   A(3,4,5)              120.7078         calculate D2E/DX2 analytically  !
 ! A11   A(3,4,10)             127.1253         calculate D2E/DX2 analytically  !
 ! A12   A(5,4,10)             112.1593         calculate D2E/DX2 analytically  !
 ! A13   A(4,5,6)              111.9907         calculate D2E/DX2 analytically  !
 ! A14   A(4,5,19)             120.2265         calculate D2E/DX2 analytically  !
 ! A15   A(6,5,19)             127.7814         calculate D2E/DX2 analytically  !
 ! A16   A(5,6,7)              112.2826         calculate D2E/DX2 analytically  !
 ! A17   A(5,6,8)              111.0155         calculate D2E/DX2 analytically  !
 ! A18   A(5,6,9)              101.9051         calculate D2E/DX2 analytically  !
 ! A19   A(7,6,8)              109.3819         calculate D2E/DX2 analytically  !
 ! A20   A(7,6,9)              110.2986         calculate D2E/DX2 analytically  !
 ! A21   A(8,6,9)              111.8172         calculate D2E/DX2 analytically  !
 ! A22   A(6,7,24)             111.5147         calculate D2E/DX2 analytically  !
 ! A23   A(6,7,25)             111.602          calculate D2E/DX2 analytically  !
 ! A24   A(6,7,26)             110.8854         calculate D2E/DX2 analytically  !
 ! A25   A(24,7,25)            107.2026         calculate D2E/DX2 analytically  !
 ! A26   A(24,7,26)            107.829          calculate D2E/DX2 analytically  !
 ! A27   A(25,7,26)            107.6074         calculate D2E/DX2 analytically  !
 ! A28   A(6,8,27)             110.927          calculate D2E/DX2 analytically  !
 ! A29   A(6,8,28)             112.3421         calculate D2E/DX2 analytically  !
 ! A30   A(6,8,29)             111.1612         calculate D2E/DX2 analytically  !
 ! A31   A(27,8,28)            107.676          calculate D2E/DX2 analytically  !
 ! A32   A(27,8,29)            107.6244         calculate D2E/DX2 analytically  !
 ! A33   A(28,8,29)            106.8794         calculate D2E/DX2 analytically  !
 ! A34   A(6,9,10)             108.9317         calculate D2E/DX2 analytically  !
 ! A35   A(6,9,30)             108.9351         calculate D2E/DX2 analytically  !
 ! A36   A(6,9,31)             111.9982         calculate D2E/DX2 analytically  !
 ! A37   A(10,9,30)            110.1848         calculate D2E/DX2 analytically  !
 ! A38   A(10,9,31)            111.7915         calculate D2E/DX2 analytically  !
 ! A39   A(30,9,31)            104.9133         calculate D2E/DX2 analytically  !
 ! A40   A(4,10,9)             101.1601         calculate D2E/DX2 analytically  !
 ! A41   A(4,10,11)            113.7857         calculate D2E/DX2 analytically  !
 ! A42   A(4,10,18)            107.5497         calculate D2E/DX2 analytically  !
 ! A43   A(9,10,11)            109.4355         calculate D2E/DX2 analytically  !
 ! A44   A(9,10,18)            110.6118         calculate D2E/DX2 analytically  !
 ! A45   A(11,10,18)           113.6001         calculate D2E/DX2 analytically  !
 ! A46   A(10,11,12)           122.4954         calculate D2E/DX2 analytically  !
 ! A47   A(10,11,17)           120.4512         calculate D2E/DX2 analytically  !
 ! A48   A(12,11,17)           116.9944         calculate D2E/DX2 analytically  !
 ! A49   A(11,12,13)           121.2233         calculate D2E/DX2 analytically  !
 ! A50   A(11,12,32)           121.4117         calculate D2E/DX2 analytically  !
 ! A51   A(13,12,32)           117.3578         calculate D2E/DX2 analytically  !
 ! A52   A(12,13,14)           121.0395         calculate D2E/DX2 analytically  !
 ! A53   A(12,13,33)           118.8736         calculate D2E/DX2 analytically  !
 ! A54   A(14,13,33)           120.0868         calculate D2E/DX2 analytically  !
 ! A55   A(13,14,15)           120.4296         calculate D2E/DX2 analytically  !
 ! A56   A(13,14,16)           118.2466         calculate D2E/DX2 analytically  !
 ! A57   A(15,14,16)           120.4387         calculate D2E/DX2 analytically  !
 ! A58   A(14,15,34)           113.6459         calculate D2E/DX2 analytically  !
 ! A59   A(14,15,35)           113.4993         calculate D2E/DX2 analytically  !
 ! A60   A(34,15,35)           112.2894         calculate D2E/DX2 analytically  !
 ! A61   A(14,16,17)           120.7523         calculate D2E/DX2 analytically  !
 ! A62   A(14,16,36)           120.3675         calculate D2E/DX2 analytically  !
 ! A63   A(17,16,36)           118.8801         calculate D2E/DX2 analytically  !
 ! A64   A(11,17,16)           121.5121         calculate D2E/DX2 analytically  !
 ! A65   A(11,17,37)           120.3932         calculate D2E/DX2 analytically  !
 ! A66   A(16,17,37)           118.0912         calculate D2E/DX2 analytically  !
 ! A67   A(10,18,38)           112.3402         calculate D2E/DX2 analytically  !
 ! A68   A(10,18,39)           111.297          calculate D2E/DX2 analytically  !
 ! A69   A(10,18,40)           111.6553         calculate D2E/DX2 analytically  !
 ! A70   A(38,18,39)           106.5495         calculate D2E/DX2 analytically  !
 ! A71   A(38,18,40)           106.8369         calculate D2E/DX2 analytically  !
 ! A72   A(39,18,40)           107.8689         calculate D2E/DX2 analytically  !
 ! A73   A(5,19,20)            118.9654         calculate D2E/DX2 analytically  !
 ! A74   A(5,19,41)            121.1561         calculate D2E/DX2 analytically  !
 ! A75   A(20,19,41)           119.8762         calculate D2E/DX2 analytically  !
 ! A76   A(2,20,19)            121.2554         calculate D2E/DX2 analytically  !
 ! A77   A(2,20,42)            119.9055         calculate D2E/DX2 analytically  !
 ! A78   A(19,20,42)           118.8383         calculate D2E/DX2 analytically  !
 ! D1    D(21,1,2,3)            29.4082         calculate D2E/DX2 analytically  !
 ! D2    D(21,1,2,20)         -160.9472         calculate D2E/DX2 analytically  !
 ! D3    D(22,1,2,3)           159.6905         calculate D2E/DX2 analytically  !
 ! D4    D(22,1,2,20)          -30.6649         calculate D2E/DX2 analytically  !
 ! D5    D(1,2,3,4)            173.9193         calculate D2E/DX2 analytically  !
 ! D6    D(1,2,3,23)            -5.8298         calculate D2E/DX2 analytically  !
 ! D7    D(20,2,3,4)             4.1771         calculate D2E/DX2 analytically  !
 ! D8    D(20,2,3,23)         -175.572          calculate D2E/DX2 analytically  !
 ! D9    D(1,2,20,19)         -174.5705         calculate D2E/DX2 analytically  !
 ! D10   D(1,2,20,42)            5.7464         calculate D2E/DX2 analytically  !
 ! D11   D(3,2,20,19)           -4.8176         calculate D2E/DX2 analytically  !
 ! D12   D(3,2,20,42)          175.4993         calculate D2E/DX2 analytically  !
 ! D13   D(2,3,4,5)             -1.2901         calculate D2E/DX2 analytically  !
 ! D14   D(2,3,4,10)           177.6329         calculate D2E/DX2 analytically  !
 ! D15   D(23,3,4,5)           178.4606         calculate D2E/DX2 analytically  !
 ! D16   D(23,3,4,10)           -2.6164         calculate D2E/DX2 analytically  !
 ! D17   D(3,4,5,6)            178.4933         calculate D2E/DX2 analytically  !
 ! D18   D(3,4,5,19)            -1.1065         calculate D2E/DX2 analytically  !
 ! D19   D(10,4,5,6)            -0.5795         calculate D2E/DX2 analytically  !
 ! D20   D(10,4,5,19)          179.8206         calculate D2E/DX2 analytically  !
 ! D21   D(3,4,10,9)           169.721          calculate D2E/DX2 analytically  !
 ! D22   D(3,4,10,11)           52.489          calculate D2E/DX2 analytically  !
 ! D23   D(3,4,10,18)          -74.2564         calculate D2E/DX2 analytically  !
 ! D24   D(5,4,10,9)           -11.2789         calculate D2E/DX2 analytically  !
 ! D25   D(5,4,10,11)         -128.5108         calculate D2E/DX2 analytically  !
 ! D26   D(5,4,10,18)          104.7438         calculate D2E/DX2 analytically  !
 ! D27   D(4,5,6,7)            130.2506         calculate D2E/DX2 analytically  !
 ! D28   D(4,5,6,8)           -106.955          calculate D2E/DX2 analytically  !
 ! D29   D(4,5,6,9)             12.246          calculate D2E/DX2 analytically  !
 ! D30   D(19,5,6,7)           -50.1869         calculate D2E/DX2 analytically  !
 ! D31   D(19,5,6,8)            72.6076         calculate D2E/DX2 analytically  !
 ! D32   D(19,5,6,9)          -168.1915         calculate D2E/DX2 analytically  !
 ! D33   D(4,5,19,20)            0.5318         calculate D2E/DX2 analytically  !
 ! D34   D(4,5,19,41)         -178.9153         calculate D2E/DX2 analytically  !
 ! D35   D(6,5,19,20)         -178.9988         calculate D2E/DX2 analytically  !
 ! D36   D(6,5,19,41)            1.5541         calculate D2E/DX2 analytically  !
 ! D37   D(5,6,7,24)           -53.1438         calculate D2E/DX2 analytically  !
 ! D38   D(5,6,7,25)            66.7247         calculate D2E/DX2 analytically  !
 ! D39   D(5,6,7,26)          -173.3207         calculate D2E/DX2 analytically  !
 ! D40   D(8,6,7,24)          -176.8549         calculate D2E/DX2 analytically  !
 ! D41   D(8,6,7,25)           -56.9864         calculate D2E/DX2 analytically  !
 ! D42   D(8,6,7,26)            62.9683         calculate D2E/DX2 analytically  !
 ! D43   D(9,6,7,24)            59.7653         calculate D2E/DX2 analytically  !
 ! D44   D(9,6,7,25)           179.6338         calculate D2E/DX2 analytically  !
 ! D45   D(9,6,7,26)           -60.4115         calculate D2E/DX2 analytically  !
 ! D46   D(5,6,8,27)           174.8742         calculate D2E/DX2 analytically  !
 ! D47   D(5,6,8,28)            54.302          calculate D2E/DX2 analytically  !
 ! D48   D(5,6,8,29)           -65.4149         calculate D2E/DX2 analytically  !
 ! D49   D(7,6,8,27)           -60.6714         calculate D2E/DX2 analytically  !
 ! D50   D(7,6,8,28)           178.7564         calculate D2E/DX2 analytically  !
 ! D51   D(7,6,8,29)            59.0395         calculate D2E/DX2 analytically  !
 ! D52   D(9,6,8,27)            61.8055         calculate D2E/DX2 analytically  !
 ! D53   D(9,6,8,28)           -58.7667         calculate D2E/DX2 analytically  !
 ! D54   D(9,6,8,29)          -178.4836         calculate D2E/DX2 analytically  !
 ! D55   D(5,6,9,10)           -19.1861         calculate D2E/DX2 analytically  !
 ! D56   D(5,6,9,30)           101.0337         calculate D2E/DX2 analytically  !
 ! D57   D(5,6,9,31)          -143.3694         calculate D2E/DX2 analytically  !
 ! D58   D(7,6,9,10)          -138.6023         calculate D2E/DX2 analytically  !
 ! D59   D(7,6,9,30)           -18.3825         calculate D2E/DX2 analytically  !
 ! D60   D(7,6,9,31)            97.2144         calculate D2E/DX2 analytically  !
 ! D61   D(8,6,9,10)            99.4457         calculate D2E/DX2 analytically  !
 ! D62   D(8,6,9,30)          -140.3345         calculate D2E/DX2 analytically  !
 ! D63   D(8,6,9,31)           -24.7376         calculate D2E/DX2 analytically  !
 ! D64   D(6,9,10,4)            18.7477         calculate D2E/DX2 analytically  !
 ! D65   D(6,9,10,11)          139.1151         calculate D2E/DX2 analytically  !
 ! D66   D(6,9,10,18)          -94.9909         calculate D2E/DX2 analytically  !
 ! D67   D(30,9,10,4)         -100.6978         calculate D2E/DX2 analytically  !
 ! D68   D(30,9,10,11)          19.6696         calculate D2E/DX2 analytically  !
 ! D69   D(30,9,10,18)         145.5636         calculate D2E/DX2 analytically  !
 ! D70   D(31,9,10,4)          143.053          calculate D2E/DX2 analytically  !
 ! D71   D(31,9,10,11)         -96.5796         calculate D2E/DX2 analytically  !
 ! D72   D(31,9,10,18)          29.3144         calculate D2E/DX2 analytically  !
 ! D73   D(4,10,11,12)        -142.6257         calculate D2E/DX2 analytically  !
 ! D74   D(4,10,11,17)          40.252          calculate D2E/DX2 analytically  !
 ! D75   D(9,10,11,12)         105.0517         calculate D2E/DX2 analytically  !
 ! D76   D(9,10,11,17)         -72.0705         calculate D2E/DX2 analytically  !
 ! D77   D(18,10,11,12)        -19.1104         calculate D2E/DX2 analytically  !
 ! D78   D(18,10,11,17)        163.7673         calculate D2E/DX2 analytically  !
 ! D79   D(4,10,18,38)         -46.775          calculate D2E/DX2 analytically  !
 ! D80   D(4,10,18,39)          72.6134         calculate D2E/DX2 analytically  !
 ! D81   D(4,10,18,40)        -166.7816         calculate D2E/DX2 analytically  !
 ! D82   D(9,10,18,38)          62.8479         calculate D2E/DX2 analytically  !
 ! D83   D(9,10,18,39)        -177.7636         calculate D2E/DX2 analytically  !
 ! D84   D(9,10,18,40)         -57.1587         calculate D2E/DX2 analytically  !
 ! D85   D(11,10,18,38)       -173.6293         calculate D2E/DX2 analytically  !
 ! D86   D(11,10,18,39)        -54.2409         calculate D2E/DX2 analytically  !
 ! D87   D(11,10,18,40)         66.3641         calculate D2E/DX2 analytically  !
 ! D88   D(10,11,12,13)       -179.1042         calculate D2E/DX2 analytically  !
 ! D89   D(10,11,12,32)         -0.1069         calculate D2E/DX2 analytically  !
 ! D90   D(17,11,12,13)         -1.8882         calculate D2E/DX2 analytically  !
 ! D91   D(17,11,12,32)        177.1091         calculate D2E/DX2 analytically  !
 ! D92   D(10,11,17,16)        179.1668         calculate D2E/DX2 analytically  !
 ! D93   D(10,11,17,37)         -0.1376         calculate D2E/DX2 analytically  !
 ! D94   D(12,11,17,16)          1.8906         calculate D2E/DX2 analytically  !
 ! D95   D(12,11,17,37)       -177.4138         calculate D2E/DX2 analytically  !
 ! D96   D(11,12,13,14)         -1.6543         calculate D2E/DX2 analytically  !
 ! D97   D(11,12,13,33)        178.2721         calculate D2E/DX2 analytically  !
 ! D98   D(32,12,13,14)        179.3092         calculate D2E/DX2 analytically  !
 ! D99   D(32,12,13,33)         -0.7644         calculate D2E/DX2 analytically  !
 ! D100  D(12,13,14,15)        174.4394         calculate D2E/DX2 analytically  !
 ! D101  D(12,13,14,16)          5.1599         calculate D2E/DX2 analytically  !
 ! D102  D(33,13,14,15)         -5.4862         calculate D2E/DX2 analytically  !
 ! D103  D(33,13,14,16)       -174.7656         calculate D2E/DX2 analytically  !
 ! D104  D(13,14,15,34)         30.7902         calculate D2E/DX2 analytically  !
 ! D105  D(13,14,15,35)        160.7213         calculate D2E/DX2 analytically  !
 ! D106  D(16,14,15,34)       -160.1663         calculate D2E/DX2 analytically  !
 ! D107  D(16,14,15,35)        -30.2352         calculate D2E/DX2 analytically  !
 ! D108  D(13,14,16,17)         -5.1479         calculate D2E/DX2 analytically  !
 ! D109  D(13,14,16,36)        174.9565         calculate D2E/DX2 analytically  !
 ! D110  D(15,14,16,17)       -174.4264         calculate D2E/DX2 analytically  !
 ! D111  D(15,14,16,36)          5.6781         calculate D2E/DX2 analytically  !
 ! D112  D(14,16,17,11)          1.6561         calculate D2E/DX2 analytically  !
 ! D113  D(14,16,17,37)       -179.0241         calculate D2E/DX2 analytically  !
 ! D114  D(36,16,17,11)       -178.4468         calculate D2E/DX2 analytically  !
 ! D115  D(36,16,17,37)          0.873          calculate D2E/DX2 analytically  !
 ! D116  D(5,19,20,2)            2.4507         calculate D2E/DX2 analytically  !
 ! D117  D(5,19,20,42)        -177.8628         calculate D2E/DX2 analytically  !
 ! D118  D(41,19,20,2)        -178.0949         calculate D2E/DX2 analytically  !
 ! D119  D(41,19,20,42)          1.5915         calculate D2E/DX2 analytically  !
 --------------------------------------------------------------------------------
 Trust Radius=3.00D-01 FncErr=1.00D-07 GrdErr=1.00D-06 EigMax=2.50D+02 EigMin=1.00D-04
 Number of steps in this run=    251 maximum allowed number of steps=    252.
 GradGradGradGradGradGradGradGradGradGradGradGradGradGradGradGradGradGrad

                          Input orientation:                          
 ---------------------------------------------------------------------
 Center     Atomic      Atomic             Coordinates (Angstroms)
 Number     Number       Type             X           Y           Z
 ---------------------------------------------------------------------
      1          7           0       -2.413535    3.421826    1.557766
      2          6           0       -2.270448    2.105750    1.098146
      3          6           0       -1.170466    1.753455    0.311453
      4          6           0       -0.969951    0.417504   -0.033975
      5          6           0       -1.842714   -0.576607    0.420680
      6          6           0       -1.464106   -1.940896   -0.098294
      7          6           0       -1.398809   -2.991415    1.019431
      8          6           0       -2.445019   -2.409454   -1.180659
      9          6           0       -0.044991   -1.681103   -0.677906
     10          6           0        0.132228   -0.146744   -0.916433
     11          6           0        1.547814    0.277648   -0.488849
     12          6           0        2.560420    0.567283   -1.416202
     13          6           0        3.846749    0.933727   -0.996724
     14          6           0        4.153515    1.055799    0.357240
     15          7           0        5.467877    1.308345    0.766270
     16          6           0        3.181269    0.698859    1.288035
     17          6           0        1.895154    0.332440    0.874831
     18          6           0       -0.207803    0.218918   -2.376782
     19          6           0       -2.910482   -0.246038    1.243638
     20          6           0       -3.102934    1.093174    1.598500
     21          1           0       -2.000908    4.114017    0.940569
     22          1           0       -3.362844    3.658618    1.826746
     23          1           0       -0.470380    2.510982   -0.028321
     24          1           0       -0.748352   -2.665743    1.839885
     25          1           0       -2.388381   -3.186417    1.448187
     26          1           0       -1.008922   -3.942459    0.639422
     27          1           0       -2.118448   -3.358469   -1.620505
     28          1           0       -2.545392   -1.683867   -1.993194
     29          1           0       -3.448191   -2.563625   -0.765769
     30          1           0        0.705265   -2.042588    0.039945
     31          1           0        0.137685   -2.259439   -1.592697
     32          1           0        2.384178    0.501149   -2.485919
     33          1           0        4.609738    1.122173   -1.747377
     34          1           0        6.004190    1.853368    0.099052
     35          1           0        5.534225    1.679841    1.708698
     36          1           0        3.410154    0.702286    2.350189
     37          1           0        1.163867    0.076897    1.640410
     38          1           0       -1.253404    0.009598   -2.625606
     39          1           0       -0.049170    1.287639   -2.567231
     40          1           0        0.406612   -0.344211   -3.088199
     41          1           0       -3.586722   -1.007483    1.619289
     42          1           0       -3.918563    1.345262    2.271199
 ---------------------------------------------------------------------
                    Distance matrix (angstroms):
                    1          2          3          4          5
     1  N    0.000000
     2  C    1.401350   0.000000
     3  C    2.425280   1.397484   0.000000
     4  C    3.693714   2.413123   1.394378   0.000000
     5  C    4.195983   2.799457   2.427558   1.398815   0.000000
     6  C    5.692340   4.296161   3.728584   2.410472   1.507966
     7  C    6.515300   5.171754   4.802828   3.593649   2.527222
     8  C    6.442343   5.060681   4.602248   3.388569   2.507266
     9  C    6.053769   4.737856   3.747227   2.382090   2.378784
    10  C    5.033614   3.860714   2.610646   1.520496   2.423438
    11  C    5.455893   4.521022   3.194923   2.562345   3.612849
    12  C    6.460118   5.659162   4.279171   3.794273   4.906141
    13  C    7.204666   6.571318   5.249354   4.939025   6.054761
    14  C    7.082760   6.551232   5.369691   5.177873   6.214784
    15  N    8.198166   7.786377   6.668776   6.548253   7.557594
    16  C    6.228092   5.633526   4.582955   4.365719   5.255428
    17  C    5.345606   4.532851   3.425595   3.006991   3.873536
    18  C    5.532137   4.459795   3.241624   2.471650   3.336404
    19  C    3.714681   2.441663   2.809732   2.416245   1.388043
    20  C    2.428899   1.403102   2.413896   2.769679   2.400746
    21  H    1.015048   2.032393   2.580247   3.959396   4.721998
    22  H    1.014696   2.033614   3.276017   4.437684   4.714335
    23  H    2.668551   2.161803   1.086009   2.152267   3.408536
    24  H    6.317509   5.063013   4.695060   3.614813   2.752501
    25  H    6.609200   5.305042   5.213235   4.146926   2.857382
    26  H    7.553078   6.195378   5.707635   4.411832   3.474481
    27  H    7.494056   6.105068   5.546430   4.253715   3.461390
    28  H    6.220515   4.898283   4.360849   3.276632   2.747102
    29  H    6.503457   5.163751   4.998562   3.945165   2.816639
    30  H    6.472289   5.213767   4.242879   2.977225   2.964162
    31  H    6.979321   5.665211   4.630374   3.289757   3.287490
    32  H    6.920967   6.089812   4.693511   4.155624   5.241802
    33  H    8.095600   7.510086   6.168310   5.879221   7.015730
    34  H    8.685966   8.338557   7.178495   7.121661   8.220836
    35  H    8.137824   7.840095   6.849130   6.850891   7.821111
    36  H    6.476047   5.983859   5.122839   4.995064   5.740314
    37  H    4.898284   4.025520   3.166399   2.733634   3.309734
    38  H    5.521757   4.392557   3.416756   2.638803   3.157654
    39  H    5.211581   4.363299   3.124277   2.832377   3.952193
    40  H    6.612205   5.540257   4.294765   3.435610   4.174411
    41  H    4.582459   3.419998   3.895062   3.407545   2.159602
    42  H    2.661995   2.161175   3.399893   3.856018   3.380407
                    6          7          8          9         10
     6  C    0.000000
     7  C    1.535306   0.000000
     8  C    1.534031   2.504722   0.000000
     9  C    1.554777   2.535882   2.558005   0.000000
    10  C    2.537048   3.766138   3.439749   1.562869   0.000000
    11  C    3.761134   4.652340   4.862287   2.531694   1.538447
    12  C    4.921855   5.854241   5.828453   3.519728   2.579868
    13  C    6.105392   6.854743   7.127204   4.699427   3.869306
    14  C    6.383208   6.902661   7.610109   5.117578   4.386240
    15  N    7.704377   8.105764   8.956924   6.435383   5.780824
    16  C    5.519938   5.887902   6.885577   4.465187   3.856342
    17  C    4.171289   4.681785   5.529930   3.198361   2.558545
    18  C    3.381509   4.822758   3.652969   2.553971   1.543357
    19  C    2.601025   3.142056   3.282414   3.736681   3.732807
    20  C    3.843234   4.463544   4.519400   4.714834   4.281187
    21  H    6.166795   7.131332   6.874046   6.326808   5.113982
    22  H    6.218162   6.980840   6.834354   6.767131   5.849902
    23  H    4.561974   5.677688   5.425659   4.263391   2.866250
    24  H    2.189576   1.096495   3.473910   2.793476   3.836413
    25  H    2.190254   1.095951   2.741844   3.503958   4.602663
    26  H    2.181209   1.095858   2.779420   2.788951   4.257976
    27  H    2.180551   2.760774   1.095784   2.828652   3.984524
    28  H    2.196791   3.478541   1.093968   2.825243   3.269833
    29  H    2.184012   2.751347   1.096475   3.516865   4.322432
    30  H    2.176148   2.507348   3.398346   1.099485   2.199376
    31  H    2.213695   3.117662   2.619664   1.097581   2.218297
    32  H    5.145252   6.228681   5.787612   3.732558   2.820342
    33  H    6.999532   7.789703   7.909687   5.537926   4.727443
    34  H    8.379190   8.895135   9.549788   7.049024   6.285825
    35  H    8.084032   8.388246   9.420140   6.936820   6.277682
    36  H    6.061344   6.208097   7.512181   5.175706   4.704941
    37  H    3.741766   4.045672   5.211950   3.150633   2.766178
    38  H    3.199395   4.723718   3.059351   2.848204   2.205831
    39  H    4.303618   5.744212   4.618568   3.518948   2.194424
    40  H    3.871500   5.209592   4.004464   2.792979   2.197918
    41  H    2.885629   3.013765   3.332975   4.274896   4.582723
    42  H    4.736845   5.169415   5.308913   5.732424   5.366190
                   11         12         13         14         15
    11  C    0.000000
    12  C    1.403297   0.000000
    13  C    2.444070   1.401743   0.000000
    14  C    2.847992   2.433453   1.393638   0.000000
    15  N    4.243178   3.710211   2.424159   1.399512   0.000000
    16  C    2.450084   2.777709   2.391266   1.392497   2.423281
    17  C    1.408287   2.397199   2.770016   2.427209   3.705202
    18  C    2.578746   2.950785   4.342223   5.215011   6.578676
    19  C    4.811669   6.137346   7.216040   7.237440   8.534687
    20  C    5.162516   6.437280   7.420155   7.361941   8.613809
    21  H    5.417969   6.240145   6.932708   6.897093   7.980284
    22  H    6.395897   7.426852   8.208242   8.088867   9.199458
    23  H    3.045155   3.858747   4.697141   4.862778   6.110696
    24  H    4.399879   5.657079   6.489799   6.330593   7.455704
    25  H    5.589767   6.840002   7.863207   7.872926   9.076821
    26  H    5.061541   6.107665   7.073309   7.191172   8.338822
    27  H    5.286158   6.111062   7.375338   7.920527   9.221072
    28  H    4.781729   5.609805   6.978840   7.609577   8.987795
    29  H    5.754093   6.806546   8.093266   8.493957   9.840506
    30  H    2.524482   3.517584   4.449950   4.646623   5.868456
    31  H    3.105440   3.727084   4.930380   5.560571   6.834088
    32  H    2.176636   1.086153   2.131651   3.394369   4.553844
    33  H    3.416503   2.148786   1.086804   2.154520   2.662608
    34  H    4.763172   3.976124   2.588633   2.031693   1.014821
    35  H    4.763070   4.454919   3.274687   2.030327   1.015176
    36  H    3.421808   3.863415   3.383195   2.156247   2.666520
    37  H    2.172892   3.396132   3.858301   3.397465   4.561259
    38  H    3.533327   4.039669   5.433123   6.263120   7.639842
    39  H    2.808934   2.941724   4.215439   5.125313   6.445965
    40  H    2.906143   2.874941   4.223971   5.279238   6.572996
    41  H    5.697304   7.034306   8.115930   8.109326   9.384906
    42  H    6.216024   7.495292   8.434972   8.300932   9.506389
                   16         17         18         19         20
    16  C    0.000000
    17  C    1.399675   0.000000
    18  C    5.014682   3.874056   0.000000
    19  C    6.164757   4.854358   4.541817   0.000000
    20  C    6.304211   5.107181   4.994895   1.398733   0.000000
    21  H    6.216027   5.429912   5.421424   4.464219   3.282199
    22  H    7.202485   6.294136   6.281359   3.973787   2.588659
    23  H    4.283821   3.340282   3.292077   3.895272   3.403979
    24  H    5.202596   4.112001   5.137484   3.299287   4.442047
    25  H    6.792792   5.573129   5.566113   2.993370   4.341438
    26  H    6.286512   5.173377   5.201571   4.200541   5.537357
    27  H    7.280694   5.996541   4.125556   4.303238   5.581069
    28  H    7.017015   5.657695   3.038429   3.560579   4.574175
    29  H    7.668876   6.295244   4.564869   3.114170   4.368197
    30  H    3.899213   2.784534   3.433464   4.213087   5.173440
    31  H    5.129674   3.986883   2.622290   4.624922   5.650254
    32  H    3.862276   3.400331   2.609584   6.519303   6.865957
    33  H    3.381338   3.855985   4.941733   8.208038   8.407202
    34  H    3.273447   4.449633   6.884043   9.229787   9.260991
    35  H    2.583734   3.969088   7.196967   8.674005   8.657762
    36  H    1.086540   2.146786   5.972229   6.486465   6.567964
    37  H    2.140307   1.089125   4.247291   4.106341   4.386361
    38  H    5.954661   4.719185   1.094993   4.216907   4.736873
    39  H    5.064136   4.067013   1.097087   5.006195   5.168811
    40  H    5.285654   4.287099   1.095780   5.456882   6.028941
    41  H    6.987634   5.692151   5.374918   1.085455   2.155746
    42  H    7.196670   6.064236   6.053274   2.145774   1.086887
                   21         22         23         24         25
    21  H    0.000000
    22  H    1.687474   0.000000
    23  H    2.418881   3.622802   0.000000
    24  H    6.952900   6.843485   5.510531   0.000000
    25  H    7.328312   6.924406   6.190248   1.764716   0.000000
    26  H    8.122902   8.045313   6.510209   1.771726   1.768787
    27  H    7.900061   7.916538   6.300923   3.785674   3.085342
    28  H    6.520651   6.618332   5.075743   4.345795   3.758379
    29  H    7.042522   6.741271   5.929826   3.753531   2.532325
    30  H    6.785152   7.228134   4.703383   2.396061   3.586382
    31  H    7.184146   7.679173   5.057068   3.568300   4.060452
    32  H    6.634954   7.848373   4.269393   6.209229   7.200878
    33  H    7.738012   9.097801   5.539995   7.478361   8.817553
    34  H    8.360639   9.694596   6.509127   8.309614   9.882047
    35  H    7.955719   9.115225   6.305815   7.640162   9.301398
    36  H    6.550308   7.408603   4.897677   5.375612   7.039789
    37  H    5.177250   5.775341   3.373455   3.349395   4.827487
    38  H    5.488407   6.130948   3.689978   5.230023   5.300799
    39  H    4.909415   5.992413   2.849570   5.961607   6.450788
    40  H    6.473246   7.374831   4.275990   5.568614   6.038950
    41  H    5.404186   4.676073   4.980543   3.294668   2.492600
    42  H    3.621323   2.420326   4.305424   5.130734   4.853342
                   26         27         28         29         30
    26  H    0.000000
    27  H    2.584446   0.000000
    28  H    3.793765   1.767900   0.000000
    29  H    3.134610   1.769341   1.759430   0.000000
    30  H    2.628178   3.530154   3.850858   4.262846   0.000000
    31  H    3.021526   2.509735   2.773190   3.692539   1.742037
    32  H    6.405196   5.993265   5.414585   6.809426   3.958451
    33  H    7.932001   8.084598   7.689615   8.915093   5.334336
    34  H    9.114129   9.802926   9.486036  10.469253   6.577277
    35  H    8.692892   9.748413   9.502565  10.237860   6.321397
    36  H    6.635406   7.926006   7.747725   8.210498   4.493104
    37  H    4.677415   5.762715   5.482880   5.833792   2.695184
    38  H    5.132147   3.619724   2.221937   3.859736   3.892688
    39  H    6.209483   5.173444   3.923072   5.443422   4.296156
    40  H    5.370873   4.197118   3.421701   5.017866   3.571969
    41  H    4.027317   4.263711   3.819935   2.851188   4.689022
    42  H    6.252096   6.364815   5.407983   4.972306   6.151083
                   31         32         33         34         35
    31  H    0.000000
    32  H    3.669526   0.000000
    33  H    5.608787   2.425744   0.000000
    34  H    7.361595   4.649200   2.426611   0.000000
    35  H    7.452502   5.376516   3.620790   1.685806   0.000000
    36  H    5.918380   4.947830   4.290145   3.622379   2.424623
    37  H    4.118798   4.323856   4.944060   5.381483   4.655547
    38  H    2.854918   3.673301   6.032043   7.968433   8.224829
    39  H    3.683259   2.558586   4.733388   6.638696   7.043557
    40  H    2.444779   2.233415   4.649124   6.805939   7.307491
    41  H    5.074984   7.401375   9.113278  10.123300   9.509016
    42  H    6.661585   7.941489   9.430305  10.170420   9.475418
                   36         37         38         39         40
    36  H    0.000000
    37  H    2.437357   0.000000
    38  H    6.854715   4.903735   0.000000
    39  H    6.040744   4.543302   1.756979   0.000000
    40  H    6.300197   4.807338   1.759212   1.772591   0.000000
    41  H    7.239738   4.872825   4.949542   5.942122   6.208630
    42  H    7.357293   5.276148   5.732868   6.195639   7.091164
                   41         42
    41  H    0.000000
    42  H    2.463841   0.000000
 Stoichiometry    C18H22N2
 Framework group  C1[X(C18H22N2)]
 Deg. of freedom   120
 Full point group                 C1      NOp   1
 Largest Abelian subgroup         C1      NOp   1
 Largest concise Abelian subgroup C1      NOp   1
                         Standard orientation:                         
 ---------------------------------------------------------------------
 Center     Atomic      Atomic             Coordinates (Angstroms)
 Number     Number       Type             X           Y           Z
 ---------------------------------------------------------------------
      1          7           0        1.948625    3.887916    0.314573
      2          6           0        2.029272    2.494190    0.192904
      3          6           0        0.964832    1.691057    0.611122
      4          6           0        1.001158    0.318212    0.369734
      5          6           0        2.078743   -0.259287   -0.309964
      6          6           0        1.933947   -1.755445   -0.430408
      7          6           0        2.151065   -2.247436   -1.868451
      8          6           0        2.907724   -2.479700    0.507923
      9          6           0        0.454032   -1.969762   -0.004671
     10          6           0       -0.031425   -0.715301    0.791079
     11          6           0       -1.468404   -0.365066    0.367706
     12          6           0       -2.580740   -0.636538    1.179036
     13          6           0       -3.880630   -0.322756    0.758669
     14          6           0       -4.108732    0.301274   -0.466395
     15          7           0       -5.414890    0.504257   -0.926158
     16          6           0       -3.022710    0.507752   -1.313138
     17          6           0       -1.722590    0.196553   -0.898488
     18          6           0        0.127900   -0.940041    2.309650
     19          6           0        3.118392    0.534572   -0.774272
     20          6           0        3.074214    1.913061   -0.541318
     21          1           0        1.368009    4.194468    1.088675
     22          1           0        2.851239    4.351237    0.299357
     23          1           0        0.109884    2.128736    1.117991
     24          1           0        1.509717   -1.711286   -2.578040
     25          1           0        3.187433   -2.100277   -2.193098
     26          1           0        1.925553   -3.316433   -1.953864
     27          1           0        2.739567   -3.562297    0.486688
     28          1           0        2.808999   -2.148513    1.545869
     29          1           0        3.948570   -2.299575    0.213896
     30          1           0       -0.160061   -2.108242   -0.906103
     31          1           0        0.321867   -2.894292    0.571924
     32          1           0       -2.471075   -1.112028    2.149402
     33          1           0       -4.716700   -0.575525    1.405383
     34          1           0       -6.091792    0.639716   -0.182306
     35          1           0       -5.484723    1.217743   -1.644938
     36          1           0       -3.172373    0.916029   -2.308869
     37          1           0       -0.903589    0.390529   -1.589721
     38          1           0        1.174002   -1.077449    2.602566
     39          1           0       -0.246399   -0.081487    2.880950
     40          1           0       -0.415403   -1.830273    2.645868
     41          1           0        3.953288    0.104692   -1.318668
     42          1           0        3.871558    2.537289   -0.936167
 ---------------------------------------------------------------------
 Rotational constants (GHZ):           0.5034832           0.2375237           0.1954289
 Standard basis: 6-31G(d,p) (6D, 7F)
 There are   410 symmetry adapted cartesian basis functions of A   symmetry.
 There are   410 symmetry adapted basis functions of A   symmetry.
   410 basis functions,   714 primitive gaussians,   410 cartesian basis functions
    72 alpha electrons       72 beta electrons
       nuclear repulsion energy      1538.4088698285 Hartrees.
 NAtoms=   42 NActive=   42 NUniq=   42 SFac= 1.00D+00 NAtFMM=   60 NAOKFM=F Big=F
 Integral buffers will be    131072 words long.
 Raffenetti 2 integral format.
 Two-electron integral symmetry is turned on.
 Force inversion solution in PCM.
 ------------------------------------------------------------------------------
 Polarizable Continuum Model (PCM)
 =================================
 Model                : PCM.
 Atomic radii         : UFF (Universal Force Field).
 Polarization charges : Total charges.
 Charge compensation  : None.
 Solution method      : Matrix inversion.
 Cavity type          : Scaled VdW (van der Waals Surface) (Alpha=1.100).
 Cavity algorithm     : GePol (No added spheres)
                        Default sphere list used, NSphG=   42.
                        Lebedev-Laikov grids with approx.  5.0 points / Ang**2.
                        Smoothing algorithm: York/Karplus (Gamma=1.0000).
                        Polarization charges: spherical gaussians, with
                                              point-specific exponents (IZeta= 3).
                        Self-potential: point-specific (ISelfS= 7).
                        Self-field    : sphere-specific E.n sum rule (ISelfD= 2).
 1st derivatives      : Analytical E(r).r(x)/FMM algorithm (CHGder, D1EAlg=3).
                        Cavity 1st derivative terms included.
 2nd derivatives      : Analytical E(r).r(xy)/FMM algorithm (CHGder, D2EAlg=3).
                        Cavity 2nd derivative terms included.
 Solvent              : Water, Eps=  78.355300 Eps(inf)=   1.777849
 ------------------------------------------------------------------------------
 One-electron integrals computed using PRISM.
 NBasis=   410 RedAO= T EigKep=  3.69D-04  NBF=   410
 NBsUse=   410 1.00D-06 EigRej= -1.00D+00 NBFU=   410
 ExpMin= 1.61D-01 ExpMax= 4.17D+03 ExpMxC= 6.27D+02 IAcc=3 IRadAn=         5 AccDes= 0.00D+00
 Harris functional with IExCor=  402 and IRadAn=       5 diagonalized for initial guess.
 HarFok:  IExCor=  402 AccDes= 0.00D+00 IRadAn=         5 IDoV= 1 UseB2=F ITyADJ=14
 ICtDFT=  3500011 ScaDFX=  1.000000  1.000000  1.000000  1.000000
 FoFCou: FMM=F IPFlag=           0 FMFlag=      100000 FMFlg1=           0
         NFxFlg=           0 DoJE=T BraDBF=F KetDBF=T FulRan=T
         wScrn=  0.000000 ICntrl=       500 IOpCl=  0 I1Cent=   200000004 NGrid=           0
         NMat0=    1 NMatS0=      1 NMatT0=    0 NMatD0=    1 NMtDS0=    0 NMtDT0=    0
 Petite list used in FoFCou.
 Requested convergence on RMS density matrix=1.00D-08 within  32 cycles.
 Requested convergence on MAX density matrix=1.00D-06.
 Requested convergence on             energy=1.00D-06.
 No special actions if energy rises.
 Inv3:  Mode=1 IEnd=    23051952.
 Iteration    1 A*A^-1 deviation from unit magnitude is 3.11D-15 for    781.
 Iteration    1 A*A^-1 deviation from orthogonality  is 2.19D-15 for   1623   1415.
 Iteration    1 A^-1*A deviation from unit magnitude is 2.89D-15 for   2024.
 Iteration    1 A^-1*A deviation from orthogonality  is 2.96D-15 for    806    482.
 Error on total polarization charges =  0.01129
 SCF Done:  E(RB3LYP) =  -808.728411521     A.U. after   12 cycles
            NFock= 12  Conv=0.92D-08     -V/T= 2.0096
 QCSCF skips out because SCF is already converged.
 DoSCS=F DFT=T ScalE2(SS,OS)=  1.000000  1.000000
 Range of M.O.s used for correlation:     1   410
 NBasis=   410 NAE=    72 NBE=    72 NFC=     0 NFV=     0
 NROrb=    410 NOA=    72 NOB=    72 NVA=   338 NVB=   338
 Symmetrizing basis deriv contribution to polar:
 IMax=3 JMax=2 DiffMx= 0.00D+00
 G2DrvN: will do    43 centers at a time, making    1 passes.
 Calling FoFCou, ICntrl=  3107 FMM=F I1Cent=   0 AccDes= 0.00D+00.
 NEqPCM:  Using equilibrium solvation (IEInf=0, Eps=  78.3553, EpsInf=   1.7778)
 G2PCM: DoFxE=T DoFxN=T DoGrad=T DoDP/DQ/DG/TGxP=FFFF NFrqRd=   0 IEInf=0 SqF1=F DoCFld=F IF1Alg=4.
 End of G2Drv F.D. properties file   721 does not exist.
 End of G2Drv F.D. properties file   722 does not exist.
 End of G2Drv F.D. properties file   788 does not exist.
          IDoAtm=111111111111111111111111111111111111111111
 NEqPCM:  Using equilibrium solvation (IEInf=0, Eps=  78.3553, EpsInf=   1.7778)
          Differentiating once with respect to nuclear coordinates.
 CalDSu exits because no D1Ps are significant.
          There are   129 degrees of freedom in the 1st order CPHF.  IDoFFX=6 NUNeed=     0.
    123 vectors produced by pass  0 Test12= 2.43D-14 1.00D-09 XBig12= 1.36D-01 1.54D-01.
 AX will form   123 AO Fock derivatives at one time.
    123 vectors produced by pass  1 Test12= 2.43D-14 1.00D-09 XBig12= 1.87D-02 3.34D-02.
    123 vectors produced by pass  2 Test12= 2.43D-14 1.00D-09 XBig12= 1.65D-04 2.10D-03.
    123 vectors produced by pass  3 Test12= 2.43D-14 1.00D-09 XBig12= 4.46D-07 7.10D-05.
    123 vectors produced by pass  4 Test12= 2.43D-14 1.00D-09 XBig12= 5.15D-10 1.67D-06.
     77 vectors produced by pass  5 Test12= 2.43D-14 1.00D-09 XBig12= 4.30D-13 5.85D-08.
     13 vectors produced by pass  6 Test12= 2.43D-14 1.00D-09 XBig12= 3.95D-16 2.06D-09.
 InvSVY:  IOpt=1 It=  1 EMax= 5.00D-16
 Solved reduced A of dimension   705 with   129 vectors.
 End of Minotr F.D. properties file   721 does not exist.
 End of Minotr F.D. properties file   722 does not exist.
 End of Minotr F.D. properties file   788 does not exist.

 **********************************************************************

            Population analysis using the SCF density.

 **********************************************************************

 Orbital symmetries:
       Occupied  (A) (A) (A) (A) (A) (A) (A) (A) (A) (A) (A) (A)
                 (A) (A) (A) (A) (A) (A) (A) (A) (A) (A) (A) (A)
                 (A) (A) (A) (A) (A) (A) (A) (A) (A) (A) (A) (A)
                 (A) (A) (A) (A) (A) (A) (A) (A) (A) (A) (A) (A)
                 (A) (A) (A) (A) (A) (A) (A) (A) (A) (A) (A) (A)
                 (A) (A) (A) (A) (A) (A) (A) (A) (A) (A) (A) (A)
       Virtual   (A) (A) (A) (A) (A) (A) (A) (A) (A) (A) (A) (A)
                 (A) (A) (A) (A) (A) (A) (A) (A) (A) (A) (A) (A)
                 (A) (A) (A) (A) (A) (A) (A) (A) (A) (A) (A) (A)
                 (A) (A) (A) (A) (A) (A) (A) (A) (A) (A) (A) (A)
                 (A) (A) (A) (A) (A) (A) (A) (A) (A) (A) (A) (A)
                 (A) (A) (A) (A) (A) (A) (A) (A) (A) (A) (A) (A)
                 (A) (A) (A) (A) (A) (A) (A) (A) (A) (A) (A) (A)
                 (A) (A) (A) (A) (A) (A) (A) (A) (A) (A) (A) (A)
                 (A) (A) (A) (A) (A) (A) (A) (A) (A) (A) (A) (A)
                 (A) (A) (A) (A) (A) (A) (A) (A) (A) (A) (A) (A)
                 (A) (A) (A) (A) (A) (A) (A) (A) (A) (A) (A) (A)
                 (A) (A) (A) (A) (A) (A) (A) (A) (A) (A) (A) (A)
                 (A) (A) (A) (A) (A) (A) (A) (A) (A) (A) (A) (A)
                 (A) (A) (A) (A) (A) (A) (A) (A) (A) (A) (A) (A)
                 (A) (A) (A) (A) (A) (A) (A) (A) (A) (A) (A) (A)
                 (A) (A) (A) (A) (A) (A) (A) (A) (A) (A) (A) (A)
                 (A) (A) (A) (A) (A) (A) (A) (A) (A) (A) (A) (A)
                 (A) (A) (A) (A) (A) (A) (A) (A) (A) (A) (A) (A)
                 (A) (A) (A) (A) (A) (A) (A) (A) (A) (A) (A) (A)
                 (A) (A) (A) (A) (A) (A) (A) (A) (A) (A) (A) (A)
                 (A) (A) (A) (A) (A) (A) (A) (A) (A) (A) (A) (A)
                 (A) (A) (A) (A) (A) (A) (A) (A) (A) (A) (A) (A)
                 (A) (A) (A) (A) (A) (A) (A) (A) (A) (A) (A) (A)
                 (A) (A) (A) (A) (A) (A) (A) (A) (A) (A) (A) (A)
                 (A) (A) (A) (A) (A) (A) (A) (A) (A) (A) (A) (A)
                 (A) (A) (A) (A) (A) (A) (A) (A) (A) (A) (A) (A)
                 (A) (A) (A) (A) (A) (A) (A) (A) (A) (A) (A) (A)
                 (A) (A) (A) (A) (A) (A) (A) (A) (A) (A) (A) (A)
                 (A) (A)
 The electronic state is 1-A.
 Alpha  occ. eigenvalues --  -14.33362 -14.33253 -10.22124 -10.22083 -10.19933
 Alpha  occ. eigenvalues --  -10.19040 -10.18443 -10.18382 -10.18347 -10.18208
 Alpha  occ. eigenvalues --  -10.18068 -10.17922 -10.17819 -10.17734 -10.17536
 Alpha  occ. eigenvalues --  -10.17308 -10.17153 -10.16958 -10.16869 -10.16862
 Alpha  occ. eigenvalues --   -0.91157  -0.91000  -0.86814  -0.83246  -0.80069
 Alpha  occ. eigenvalues --   -0.78288  -0.73828  -0.72842  -0.71333  -0.70416
 Alpha  occ. eigenvalues --   -0.68146  -0.67655  -0.62155  -0.60730  -0.60425
 Alpha  occ. eigenvalues --   -0.58686  -0.55045  -0.54297  -0.51398  -0.50209
 Alpha  occ. eigenvalues --   -0.50051  -0.48654  -0.46004  -0.45872  -0.44160
 Alpha  occ. eigenvalues --   -0.43922  -0.42919  -0.42701  -0.42293  -0.41343
 Alpha  occ. eigenvalues --   -0.40879  -0.40084  -0.39345  -0.38682  -0.38387
 Alpha  occ. eigenvalues --   -0.37971  -0.37684  -0.36941  -0.35967  -0.34249
 Alpha  occ. eigenvalues --   -0.33887  -0.33183  -0.32508  -0.31825  -0.31366
 Alpha  occ. eigenvalues --   -0.30694  -0.28977  -0.28867  -0.24574  -0.23808
 Alpha  occ. eigenvalues --   -0.19803  -0.19586
 Alpha virt. eigenvalues --   -0.00205   0.00212   0.01669   0.02445   0.08696
 Alpha virt. eigenvalues --    0.09481   0.09622   0.10711   0.11945   0.12066
 Alpha virt. eigenvalues --    0.13031   0.13300   0.14063   0.14321   0.14751
 Alpha virt. eigenvalues --    0.15487   0.15949   0.16424   0.16850   0.17909
 Alpha virt. eigenvalues --    0.18332   0.18647   0.20147   0.20251   0.20438
 Alpha virt. eigenvalues --    0.20954   0.21286   0.22814   0.23227   0.24077
 Alpha virt. eigenvalues --    0.24891   0.25935   0.26899   0.27532   0.29080
 Alpha virt. eigenvalues --    0.29676   0.30330   0.31961   0.33981   0.34516
 Alpha virt. eigenvalues --    0.35302   0.36129   0.36858   0.37405   0.39216
 Alpha virt. eigenvalues --    0.40551   0.47331   0.48305   0.49600   0.50766
 Alpha virt. eigenvalues --    0.51464   0.52277   0.53007   0.53530   0.53912
 Alpha virt. eigenvalues --    0.54919   0.55294   0.55829   0.56479   0.57537
 Alpha virt. eigenvalues --    0.58274   0.58927   0.59413   0.59741   0.60096
 Alpha virt. eigenvalues --    0.60340   0.60667   0.61666   0.62272   0.62727
 Alpha virt. eigenvalues --    0.63109   0.63967   0.64807   0.65502   0.67626
 Alpha virt. eigenvalues --    0.68750   0.69476   0.69833   0.70451   0.71034
 Alpha virt. eigenvalues --    0.71913   0.72484   0.73938   0.75600   0.75958
 Alpha virt. eigenvalues --    0.77043   0.77491   0.78574   0.80020   0.80511
 Alpha virt. eigenvalues --    0.81037   0.82203   0.82591   0.82959   0.83436
 Alpha virt. eigenvalues --    0.84201   0.85335   0.85760   0.86033   0.86541
 Alpha virt. eigenvalues --    0.86906   0.87212   0.87865   0.88785   0.89101
 Alpha virt. eigenvalues --    0.89400   0.89678   0.90545   0.91118   0.91736
 Alpha virt. eigenvalues --    0.92719   0.93592   0.94514   0.95398   0.96342
 Alpha virt. eigenvalues --    0.97304   0.97571   0.98964   0.99686   0.99864
 Alpha virt. eigenvalues --    1.01002   1.01794   1.02772   1.03986   1.04511
 Alpha virt. eigenvalues --    1.06107   1.07067   1.08889   1.10528   1.11501
 Alpha virt. eigenvalues --    1.14538   1.16726   1.17276   1.18034   1.19168
 Alpha virt. eigenvalues --    1.21038   1.22601   1.26327   1.27518   1.28234
 Alpha virt. eigenvalues --    1.30490   1.31781   1.33362   1.36571   1.36805
 Alpha virt. eigenvalues --    1.39362   1.40651   1.40746   1.41475   1.41976
 Alpha virt. eigenvalues --    1.43352   1.44418   1.44962   1.46805   1.48947
 Alpha virt. eigenvalues --    1.49899   1.52640   1.54663   1.55011   1.58390
 Alpha virt. eigenvalues --    1.60188   1.62255   1.70850   1.71027   1.73445
 Alpha virt. eigenvalues --    1.76510   1.76698   1.76892   1.77848   1.78997
 Alpha virt. eigenvalues --    1.79573   1.80454   1.80668   1.81327   1.82478
 Alpha virt. eigenvalues --    1.83267   1.83790   1.85472   1.85907   1.86936
 Alpha virt. eigenvalues --    1.87512   1.88147   1.88734   1.90586   1.91307
 Alpha virt. eigenvalues --    1.92309   1.93127   1.93963   1.94545   1.95802
 Alpha virt. eigenvalues --    1.97478   1.97720   1.98772   1.99548   2.00186
 Alpha virt. eigenvalues --    2.00964   2.03085   2.04436   2.05535   2.05831
 Alpha virt. eigenvalues --    2.06098   2.06786   2.07982   2.08792   2.10059
 Alpha virt. eigenvalues --    2.10785   2.11987   2.12468   2.14254   2.14907
 Alpha virt. eigenvalues --    2.14992   2.16384   2.16468   2.16868   2.17391
 Alpha virt. eigenvalues --    2.19477   2.20827   2.23817   2.24357   2.24547
 Alpha virt. eigenvalues --    2.25695   2.26022   2.27290   2.28050   2.28791
 Alpha virt. eigenvalues --    2.31030   2.32878   2.33878   2.34844   2.35229
 Alpha virt. eigenvalues --    2.35556   2.36575   2.37601   2.38003   2.39303
 Alpha virt. eigenvalues --    2.40966   2.41960   2.42276   2.44473   2.45509
 Alpha virt. eigenvalues --    2.46824   2.46916   2.47434   2.48609   2.49395
 Alpha virt. eigenvalues --    2.50661   2.52677   2.53164   2.54976   2.55837
 Alpha virt. eigenvalues --    2.56741   2.57775   2.58994   2.59805   2.60117
 Alpha virt. eigenvalues --    2.60584   2.62714   2.64385   2.66277   2.66478
 Alpha virt. eigenvalues --    2.66710   2.68546   2.69442   2.71113   2.72824
 Alpha virt. eigenvalues --    2.74147   2.75093   2.76093   2.77876   2.79213
 Alpha virt. eigenvalues --    2.79588   2.80432   2.81301   2.82390   2.84421
 Alpha virt. eigenvalues --    2.85242   2.86671   2.87213   2.88706   2.89893
 Alpha virt. eigenvalues --    2.90788   2.92745   2.94892   2.97469   2.97803
 Alpha virt. eigenvalues --    2.99623   2.99740   3.01354   3.04962   3.06852
 Alpha virt. eigenvalues --    3.08571   3.11412   3.19782   3.19960   3.22015
 Alpha virt. eigenvalues --    3.23511   3.24330   3.26626   3.28766   3.28926
 Alpha virt. eigenvalues --    3.29588   3.31352   3.32559   3.33792   3.38824
 Alpha virt. eigenvalues --    3.43952   3.44108   3.46034   3.46508   3.48008
 Alpha virt. eigenvalues --    3.48838   3.49882   3.51282   3.52288   3.53622
 Alpha virt. eigenvalues --    3.54527   3.79069   3.82567   4.04432   4.04708
 Alpha virt. eigenvalues --    4.14413   4.14803   4.16610   4.20328   4.23261
 Alpha virt. eigenvalues --    4.26396   4.37105   4.43705   4.44349   4.45731
 Alpha virt. eigenvalues --    4.48372   4.54231   4.55749   4.63019   4.73508
 Alpha virt. eigenvalues --    4.83725   4.86794   4.90810
          Condensed to atoms (all electrons):
               1          2          3          4          5          6
     1  N    6.837733   0.288792  -0.064288   0.002936   0.000979   0.000002
     2  C    0.288792   4.619761   0.493936  -0.005325  -0.033927   0.000048
     3  C   -0.064288   0.493936   5.137318   0.486139  -0.060159   0.012493
     4  C    0.002936  -0.005325   0.486139   4.868370   0.544253  -0.049342
     5  C    0.000979  -0.033927  -0.060159   0.544253   4.872087   0.363483
     6  C    0.000002   0.000048   0.012493  -0.049342   0.363483   4.971559
     7  C    0.000000   0.000039  -0.000304   0.002130  -0.049239   0.374464
     8  C   -0.000000  -0.000001  -0.000243  -0.004726  -0.051502   0.371916
     9  C    0.000001  -0.000291   0.008748  -0.057472  -0.073998   0.339639
    10  C   -0.000098   0.005863  -0.082190   0.331806  -0.030139  -0.062055
    11  C   -0.000002   0.000247  -0.002153  -0.046889  -0.000692   0.003496
    12  C   -0.000000   0.000002   0.000867   0.003748  -0.000307  -0.000097
    13  C    0.000000  -0.000000  -0.000021  -0.000102   0.000002   0.000003
    14  C   -0.000000   0.000000   0.000000  -0.000028   0.000000  -0.000001
    15  N   -0.000000   0.000000   0.000000  -0.000000   0.000000  -0.000000
    16  C    0.000000  -0.000008  -0.000101   0.000341   0.000033   0.000001
    17  C    0.000001  -0.000091  -0.002076  -0.009843   0.001764   0.000692
    18  C   -0.000002  -0.000168  -0.004300  -0.058366  -0.003312   0.002705
    19  C    0.004102  -0.016206  -0.061878  -0.029359   0.493217  -0.083203
    20  C   -0.068342   0.533048  -0.047206  -0.042749  -0.027464   0.007142
    21  H    0.343232  -0.025579  -0.009478   0.000035  -0.000007  -0.000000
    22  H    0.343215  -0.024976   0.005396  -0.000100  -0.000022  -0.000000
    23  H   -0.006631  -0.046725   0.354807  -0.031738   0.005609  -0.000235
    24  H   -0.000000  -0.000012  -0.000037   0.000386  -0.001045  -0.029778
    25  H   -0.000000  -0.000002   0.000005  -0.000051  -0.007225  -0.027524
    26  H   -0.000000  -0.000001   0.000006  -0.000019   0.004752  -0.028318
    27  H    0.000000   0.000000   0.000006   0.000140   0.004924  -0.027960
    28  H    0.000000  -0.000002  -0.000142   0.001055  -0.002229  -0.030529
    29  H    0.000000  -0.000002   0.000005  -0.000029  -0.006221  -0.028619
    30  H   -0.000000   0.000001  -0.000185   0.000350   0.000804  -0.032503
    31  H   -0.000000   0.000003  -0.000169   0.004599   0.004652  -0.027204
    32  H    0.000000  -0.000000  -0.000025   0.000167  -0.000000  -0.000008
    33  H    0.000000  -0.000000   0.000000   0.000002  -0.000000  -0.000000
    34  H   -0.000000   0.000000   0.000000  -0.000000  -0.000000  -0.000000
    35  H    0.000000   0.000000   0.000000  -0.000000   0.000000  -0.000000
    36  H    0.000000  -0.000000   0.000001   0.000007  -0.000000   0.000000
    37  H   -0.000003  -0.000239   0.002134   0.007679   0.000809  -0.000334
    38  H    0.000001  -0.000021   0.000135  -0.002488   0.000854   0.001123
    39  H   -0.000001  -0.000040   0.002901  -0.006204  -0.000002  -0.000256
    40  H   -0.000000   0.000007   0.000078   0.005494   0.000126  -0.000121
    41  H   -0.000108   0.003547   0.000776   0.004880  -0.038430  -0.008159
    42  H   -0.007030  -0.042257   0.005147   0.000985   0.003012  -0.000179
               7          8          9         10         11         12
     1  N    0.000000  -0.000000   0.000001  -0.000098  -0.000002  -0.000000
     2  C    0.000039  -0.000001  -0.000291   0.005863   0.000247   0.000002
     3  C   -0.000304  -0.000243   0.008748  -0.082190  -0.002153   0.000867
     4  C    0.002130  -0.004726  -0.057472   0.331806  -0.046889   0.003748
     5  C   -0.049239  -0.051502  -0.073998  -0.030139  -0.000692  -0.000307
     6  C    0.374464   0.371916   0.339639  -0.062055   0.003496  -0.000097
     7  C    4.993961  -0.063750  -0.046399   0.003844  -0.000010   0.000001
     8  C   -0.063750   4.993608  -0.046189   0.001483  -0.000037   0.000000
     9  C   -0.046399  -0.046189   5.132569   0.335178  -0.051262   0.001520
    10  C    0.003844   0.001483   0.335178   5.122058   0.350452  -0.047944
    11  C   -0.000010  -0.000037  -0.051262   0.350452   4.796615   0.522962
    12  C    0.000001   0.000000   0.001520  -0.047944   0.522962   4.957224
    13  C   -0.000000  -0.000000  -0.000131   0.006229  -0.030626   0.500982
    14  C    0.000000   0.000000   0.000057   0.000364  -0.030205  -0.023617
    15  N    0.000000   0.000000   0.000000   0.000001   0.000602   0.004476
    16  C   -0.000001  -0.000000  -0.000122   0.005928  -0.030661  -0.044839
    17  C   -0.000148   0.000000  -0.011729  -0.056851   0.520954  -0.056003
    18  C   -0.000122  -0.000070  -0.051082   0.345886  -0.033389  -0.012852
    19  C   -0.004408  -0.002699   0.007597   0.011250  -0.000146   0.000003
    20  C    0.000022   0.000115  -0.000337   0.000023   0.000031   0.000000
    21  H    0.000000  -0.000000  -0.000000  -0.000001   0.000001   0.000000
    22  H    0.000000  -0.000000  -0.000000   0.000003   0.000000  -0.000000
    23  H    0.000003   0.000002   0.000174  -0.008576   0.004307   0.000102
    24  H    0.373196   0.005718  -0.005869   0.000147  -0.000041   0.000001
    25  H    0.373025  -0.004699   0.005139  -0.000153   0.000002  -0.000000
    26  H    0.371323  -0.003286  -0.006582  -0.000032  -0.000010  -0.000000
    27  H   -0.003620   0.369134  -0.006850  -0.000077   0.000001  -0.000000
    28  H    0.005731   0.375579  -0.004562   0.000808   0.000007  -0.000000
    29  H   -0.005851   0.372478   0.005312  -0.000199   0.000001  -0.000000
    30  H   -0.010437   0.004988   0.365741  -0.033797  -0.005750   0.000005
    31  H    0.001405  -0.008527   0.355583  -0.027079   0.001403   0.000590
    32  H    0.000000   0.000001   0.000238  -0.013501  -0.040337   0.367452
    33  H   -0.000000   0.000000   0.000000  -0.000154   0.003727  -0.032620
    34  H    0.000000   0.000000   0.000000  -0.000000  -0.000003  -0.000019
    35  H    0.000000   0.000000   0.000000  -0.000000  -0.000007  -0.000164
    36  H   -0.000000  -0.000000  -0.000002  -0.000165   0.003646   0.000702
    37  H   -0.000047   0.000018   0.000821  -0.011902  -0.042535   0.005856
    38  H    0.000010  -0.001142  -0.003403  -0.027791   0.004222   0.000232
    39  H    0.000003   0.000042   0.005362  -0.026179  -0.005069   0.002146
    40  H    0.000003  -0.000051  -0.007598  -0.020878  -0.007221   0.001936
    41  H    0.001689   0.000395   0.000093  -0.000189   0.000002  -0.000000
    42  H    0.000000   0.000002   0.000004   0.000007   0.000000   0.000000
              13         14         15         16         17         18
     1  N    0.000000  -0.000000  -0.000000   0.000000   0.000001  -0.000002
     2  C   -0.000000   0.000000   0.000000  -0.000008  -0.000091  -0.000168
     3  C   -0.000021   0.000000   0.000000  -0.000101  -0.002076  -0.004300
     4  C   -0.000102  -0.000028  -0.000000   0.000341  -0.009843  -0.058366
     5  C    0.000002   0.000000   0.000000   0.000033   0.001764  -0.003312
     6  C    0.000003  -0.000001  -0.000000   0.000001   0.000692   0.002705
     7  C   -0.000000   0.000000   0.000000  -0.000001  -0.000148  -0.000122
     8  C   -0.000000   0.000000   0.000000  -0.000000   0.000000  -0.000070
     9  C   -0.000131   0.000057   0.000000  -0.000122  -0.011729  -0.051082
    10  C    0.006229   0.000364   0.000001   0.005928  -0.056851   0.345886
    11  C   -0.030626  -0.030205   0.000602  -0.030661   0.520954  -0.033389
    12  C    0.500982  -0.023617   0.004476  -0.044839  -0.056003  -0.012852
    13  C    4.969674   0.541193  -0.070854  -0.049086  -0.046730   0.000123
    14  C    0.541193   4.578609   0.295216   0.536461  -0.023536  -0.000010
    15  N   -0.070854   0.295216   6.837718  -0.070910   0.004467  -0.000000
    16  C   -0.049086   0.536461  -0.070910   4.959252   0.508034  -0.000158
    17  C   -0.046730  -0.023536   0.004467   0.508034   4.963290   0.006361
    18  C    0.000123  -0.000010  -0.000000  -0.000158   0.006361   5.020103
    19  C   -0.000000  -0.000000   0.000000   0.000000  -0.000078  -0.000523
    20  C   -0.000000   0.000000   0.000000  -0.000001   0.000002   0.000076
    21  H    0.000000   0.000000   0.000000  -0.000000  -0.000001  -0.000002
    22  H    0.000000   0.000000  -0.000000  -0.000000  -0.000000  -0.000000
    23  H   -0.000033  -0.000002   0.000000  -0.000088   0.002231   0.000527
    24  H   -0.000000   0.000000  -0.000000   0.000001  -0.000073   0.000006
    25  H    0.000000  -0.000000   0.000000   0.000000   0.000002   0.000004
    26  H    0.000000  -0.000000   0.000000   0.000000   0.000002   0.000004
    27  H    0.000000  -0.000000  -0.000000  -0.000000  -0.000000  -0.000015
    28  H   -0.000000   0.000000   0.000000  -0.000000  -0.000001  -0.001036
    29  H    0.000000  -0.000000  -0.000000   0.000000   0.000000   0.000030
    30  H   -0.000097  -0.000011  -0.000000  -0.000281   0.005935   0.005087
    31  H    0.000000  -0.000004  -0.000000   0.000011   0.000044  -0.009266
    32  H   -0.041997   0.004281  -0.000120   0.000531   0.005935   0.005450
    33  H    0.362865  -0.044380  -0.007409   0.005410   0.000667   0.000007
    34  H   -0.009402  -0.025195   0.343375   0.005537  -0.000177   0.000000
    35  H    0.005533  -0.025518   0.343313  -0.009408  -0.000013   0.000000
    36  H    0.005346  -0.043889  -0.007397   0.362969  -0.032947   0.000002
    37  H    0.000526   0.004059  -0.000119  -0.038733   0.362830   0.000241
    38  H   -0.000005   0.000000  -0.000000   0.000002  -0.000089   0.375763
    39  H   -0.000084  -0.000002   0.000000  -0.000006  -0.000043   0.369685
    40  H    0.000192  -0.000005  -0.000000   0.000003  -0.000317   0.365584
    41  H    0.000000   0.000000   0.000000  -0.000000  -0.000000   0.000000
    42  H   -0.000000  -0.000000   0.000000   0.000000  -0.000000   0.000000
              19         20         21         22         23         24
     1  N    0.004102  -0.068342   0.343232   0.343215  -0.006631  -0.000000
     2  C   -0.016206   0.533048  -0.025579  -0.024976  -0.046725  -0.000012
     3  C   -0.061878  -0.047206  -0.009478   0.005396   0.354807  -0.000037
     4  C   -0.029359  -0.042749   0.000035  -0.000100  -0.031738   0.000386
     5  C    0.493217  -0.027464  -0.000007  -0.000022   0.005609  -0.001045
     6  C   -0.083203   0.007142  -0.000000  -0.000000  -0.000235  -0.029778
     7  C   -0.004408   0.000022   0.000000   0.000000   0.000003   0.373196
     8  C   -0.002699   0.000115  -0.000000  -0.000000   0.000002   0.005718
     9  C    0.007597  -0.000337  -0.000000  -0.000000   0.000174  -0.005869
    10  C    0.011250   0.000023  -0.000001   0.000003  -0.008576   0.000147
    11  C   -0.000146   0.000031   0.000001   0.000000   0.004307  -0.000041
    12  C    0.000003   0.000000   0.000000  -0.000000   0.000102   0.000001
    13  C   -0.000000  -0.000000   0.000000   0.000000  -0.000033  -0.000000
    14  C   -0.000000   0.000000   0.000000   0.000000  -0.000002   0.000000
    15  N    0.000000   0.000000   0.000000  -0.000000   0.000000  -0.000000
    16  C    0.000000  -0.000001  -0.000000  -0.000000  -0.000088   0.000001
    17  C   -0.000078   0.000002  -0.000001  -0.000000   0.002231  -0.000073
    18  C   -0.000523   0.000076  -0.000002  -0.000000   0.000527   0.000006
    19  C    5.002622   0.495081  -0.000165  -0.000034   0.000455   0.000864
    20  C    0.495081   4.974635   0.005450  -0.009512   0.004944  -0.000064
    21  H   -0.000165   0.005450   0.435793  -0.028450   0.004712  -0.000000
    22  H   -0.000034  -0.009512  -0.028450   0.435641  -0.000084  -0.000000
    23  H    0.000455   0.004944   0.004712  -0.000084   0.630617   0.000000
    24  H    0.000864  -0.000064  -0.000000  -0.000000   0.000000   0.612666
    25  H    0.002069  -0.000023   0.000000   0.000000   0.000000  -0.031762
    26  H    0.000036   0.000003  -0.000000  -0.000000  -0.000000  -0.030399
    27  H   -0.000015   0.000002   0.000000   0.000000  -0.000000  -0.000080
    28  H    0.000084  -0.000025   0.000000   0.000000   0.000002  -0.000219
    29  H    0.002913  -0.000073   0.000000   0.000000   0.000000  -0.000022
    30  H   -0.000233   0.000008  -0.000000   0.000000  -0.000003   0.004706
    31  H   -0.000146   0.000005  -0.000000   0.000000  -0.000004  -0.000057
    32  H    0.000000   0.000000  -0.000000   0.000000  -0.000004   0.000000
    33  H    0.000000  -0.000000  -0.000000   0.000000  -0.000000   0.000000
    34  H    0.000000   0.000000  -0.000000  -0.000000   0.000000   0.000000
    35  H   -0.000000  -0.000000  -0.000000  -0.000000   0.000000   0.000000
    36  H   -0.000000  -0.000000  -0.000000   0.000000  -0.000001  -0.000001
    37  H    0.000030  -0.000001  -0.000001   0.000000   0.000066   0.000727
    38  H   -0.000199  -0.000017   0.000000  -0.000000   0.000115  -0.000000
    39  H    0.000014  -0.000002  -0.000000  -0.000000   0.001365  -0.000000
    40  H    0.000009  -0.000001   0.000000   0.000000  -0.000063  -0.000000
    41  H    0.364718  -0.040685   0.000003  -0.000005   0.000021   0.000133
    42  H   -0.033093   0.361689  -0.000055   0.004627  -0.000179   0.000001
              25         26         27         28         29         30
     1  N   -0.000000  -0.000000   0.000000   0.000000   0.000000  -0.000000
     2  C   -0.000002  -0.000001   0.000000  -0.000002  -0.000002   0.000001
     3  C    0.000005   0.000006   0.000006  -0.000142   0.000005  -0.000185
     4  C   -0.000051  -0.000019   0.000140   0.001055  -0.000029   0.000350
     5  C   -0.007225   0.004752   0.004924  -0.002229  -0.006221   0.000804
     6  C   -0.027524  -0.028318  -0.027960  -0.030529  -0.028619  -0.032503
     7  C    0.373025   0.371323  -0.003620   0.005731  -0.005851  -0.010437
     8  C   -0.004699  -0.003286   0.369134   0.375579   0.372478   0.004988
     9  C    0.005139  -0.006582  -0.006850  -0.004562   0.005312   0.365741
    10  C   -0.000153  -0.000032  -0.000077   0.000808  -0.000199  -0.033797
    11  C    0.000002  -0.000010   0.000001   0.000007   0.000001  -0.005750
    12  C   -0.000000  -0.000000  -0.000000  -0.000000  -0.000000   0.000005
    13  C    0.000000   0.000000   0.000000  -0.000000   0.000000  -0.000097
    14  C   -0.000000  -0.000000  -0.000000   0.000000  -0.000000  -0.000011
    15  N    0.000000   0.000000  -0.000000   0.000000  -0.000000  -0.000000
    16  C    0.000000   0.000000  -0.000000  -0.000000   0.000000  -0.000281
    17  C    0.000002   0.000002  -0.000000  -0.000001   0.000000   0.005935
    18  C    0.000004   0.000004  -0.000015  -0.001036   0.000030   0.005087
    19  C    0.002069   0.000036  -0.000015   0.000084   0.002913  -0.000233
    20  C   -0.000023   0.000003   0.000002  -0.000025  -0.000073   0.000008
    21  H    0.000000  -0.000000   0.000000   0.000000   0.000000  -0.000000
    22  H    0.000000  -0.000000   0.000000   0.000000   0.000000   0.000000
    23  H    0.000000  -0.000000  -0.000000   0.000002   0.000000  -0.000003
    24  H   -0.031762  -0.030399  -0.000080  -0.000219  -0.000022   0.004706
    25  H    0.617427  -0.031926  -0.000219  -0.000018   0.004069   0.000348
    26  H   -0.031926   0.618665   0.003148  -0.000060  -0.000315   0.001012
    27  H   -0.000219   0.003148   0.619672  -0.030675  -0.031207   0.000157
    28  H   -0.000018  -0.000060  -0.030675   0.608633  -0.031032  -0.000071
    29  H    0.004069  -0.000315  -0.031207  -0.031032   0.618536  -0.000212
    30  H    0.000348   0.001012   0.000157  -0.000071  -0.000212   0.629960
    31  H   -0.000237   0.001351   0.003128   0.000823   0.000172  -0.034000
    32  H   -0.000000  -0.000000  -0.000000   0.000000  -0.000000   0.000049
    33  H   -0.000000   0.000000  -0.000000  -0.000000  -0.000000   0.000001
    34  H   -0.000000  -0.000000   0.000000   0.000000  -0.000000   0.000000
    35  H   -0.000000  -0.000000  -0.000000   0.000000  -0.000000  -0.000000
    36  H   -0.000000   0.000000   0.000000  -0.000000  -0.000000   0.000010
    37  H   -0.000004  -0.000001  -0.000000  -0.000000  -0.000000   0.001942
    38  H    0.000001  -0.000000   0.000004   0.004533   0.000034  -0.000044
    39  H   -0.000000   0.000000  -0.000001   0.000029  -0.000002  -0.000207
    40  H    0.000000  -0.000001  -0.000001   0.000092   0.000000   0.000150
    41  H    0.002113  -0.000129  -0.000059   0.000045   0.000955  -0.000007
    42  H    0.000003  -0.000000  -0.000000   0.000000   0.000002  -0.000000
              31         32         33         34         35         36
     1  N   -0.000000   0.000000   0.000000  -0.000000   0.000000   0.000000
     2  C    0.000003  -0.000000  -0.000000   0.000000   0.000000  -0.000000
     3  C   -0.000169  -0.000025   0.000000   0.000000   0.000000   0.000001
     4  C    0.004599   0.000167   0.000002  -0.000000  -0.000000   0.000007
     5  C    0.004652  -0.000000  -0.000000  -0.000000   0.000000  -0.000000
     6  C   -0.027204  -0.000008  -0.000000  -0.000000  -0.000000   0.000000
     7  C    0.001405   0.000000  -0.000000   0.000000   0.000000  -0.000000
     8  C   -0.008527   0.000001   0.000000   0.000000   0.000000  -0.000000
     9  C    0.355583   0.000238   0.000000   0.000000   0.000000  -0.000002
    10  C   -0.027079  -0.013501  -0.000154  -0.000000  -0.000000  -0.000165
    11  C    0.001403  -0.040337   0.003727  -0.000003  -0.000007   0.003646
    12  C    0.000590   0.367452  -0.032620  -0.000019  -0.000164   0.000702
    13  C    0.000000  -0.041997   0.362865  -0.009402   0.005533   0.005346
    14  C   -0.000004   0.004281  -0.044380  -0.025195  -0.025518  -0.043889
    15  N   -0.000000  -0.000120  -0.007409   0.343375   0.343313  -0.007397
[...]
   173    C   12  py     Ryd( 3p)     0.00088
   174    C   12  pz     Val( 2p)     1.19225
   175    C   12  pz     Ryd( 3p)     0.00479
   176    C   12  dxy    Ryd( 3d)     0.00067
   177    C   12  dxz    Ryd( 3d)     0.00059
   178    C   12  dyz    Ryd( 3d)     0.00035
   179    C   12  dx2y2  Ryd( 3d)     0.00041
   180    C   12  dz2    Ryd( 3d)     0.00069

   181    C   13  S      Cor( 1S)     1.99904
   182    C   13  S      Val( 2S)     0.95119
   183    C   13  S      Ryd( 3S)     0.00069
   184    C   13  S      Ryd( 4S)     0.00004
   185    C   13  px     Val( 2p)     1.14643
   186    C   13  px     Ryd( 3p)     0.00435
   187    C   13  py     Val( 2p)     1.07793
   188    C   13  py     Ryd( 3p)     0.00157
   189    C   13  pz     Val( 2p)     1.11043
   190    C   13  pz     Ryd( 3p)     0.00421
   191    C   13  dxy    Ryd( 3d)     0.00039
   192    C   13  dxz    Ryd( 3d)     0.00066
   193    C   13  dyz    Ryd( 3d)     0.00040
   194    C   13  dx2y2  Ryd( 3d)     0.00045
   195    C   13  dz2    Ryd( 3d)     0.00054

   196    C   14  S      Cor( 1S)     1.99898
   197    C   14  S      Val( 2S)     0.84490
   198    C   14  S      Ryd( 3S)     0.00113
   199    C   14  S      Ryd( 4S)     0.00009
   200    C   14  px     Val( 2p)     0.92837
   201    C   14  px     Ryd( 3p)     0.00568
   202    C   14  py     Val( 2p)     0.97808
   203    C   14  py     Ryd( 3p)     0.00121
   204    C   14  pz     Val( 2p)     1.07144
   205    C   14  pz     Ryd( 3p)     0.00443
   206    C   14  dxy    Ryd( 3d)     0.00140
   207    C   14  dxz    Ryd( 3d)     0.00106
   208    C   14  dyz    Ryd( 3d)     0.00068
   209    C   14  dx2y2  Ryd( 3d)     0.00086
   210    C   14  dz2    Ryd( 3d)     0.00074

   211    N   15  S      Cor( 1S)     1.99952
   212    N   15  S      Val( 2S)     1.36647
   213    N   15  S      Ryd( 3S)     0.00012
   214    N   15  S      Ryd( 4S)     0.00001
   215    N   15  px     Val( 2p)     1.35514
   216    N   15  px     Ryd( 3p)     0.00261
   217    N   15  py     Val( 2p)     1.68699
   218    N   15  py     Ryd( 3p)     0.00351
   219    N   15  pz     Val( 2p)     1.43329
   220    N   15  pz     Ryd( 3p)     0.00219
   221    N   15  dxy    Ryd( 3d)     0.00082
   222    N   15  dxz    Ryd( 3d)     0.00054
   223    N   15  dyz    Ryd( 3d)     0.00103
   224    N   15  dx2y2  Ryd( 3d)     0.00076
   225    N   15  dz2    Ryd( 3d)     0.00028

   226    C   16  S      Cor( 1S)     1.99903
   227    C   16  S      Val( 2S)     0.95228
   228    C   16  S      Ryd( 3S)     0.00069
   229    C   16  S      Ryd( 4S)     0.00004
   230    C   16  px     Val( 2p)     1.06689
   231    C   16  px     Ryd( 3p)     0.00419
   232    C   16  py     Val( 2p)     1.07460
   233    C   16  py     Ryd( 3p)     0.00136
   234    C   16  pz     Val( 2p)     1.18302
   235    C   16  pz     Ryd( 3p)     0.00437
   236    C   16  dxy    Ryd( 3d)     0.00051
   237    C   16  dxz    Ryd( 3d)     0.00065
   238    C   16  dyz    Ryd( 3d)     0.00037
   239    C   16  dx2y2  Ryd( 3d)     0.00038
   240    C   16  dz2    Ryd( 3d)     0.00059

   241    C   17  S      Cor( 1S)     1.99906
   242    C   17  S      Val( 2S)     0.94606
   243    C   17  S      Ryd( 3S)     0.00084
   244    C   17  S      Ryd( 4S)     0.00006
   245    C   17  px     Val( 2p)     1.14153
   246    C   17  px     Ryd( 3p)     0.00373
   247    C   17  py     Val( 2p)     1.01160
   248    C   17  py     Ryd( 3p)     0.00165
   249    C   17  pz     Val( 2p)     1.12162
   250    C   17  pz     Ryd( 3p)     0.00468
   251    C   17  dxy    Ryd( 3d)     0.00046
   252    C   17  dxz    Ryd( 3d)     0.00077
   253    C   17  dyz    Ryd( 3d)     0.00044
   254    C   17  dx2y2  Ryd( 3d)     0.00046
   255    C   17  dz2    Ryd( 3d)     0.00053

   256    C   18  S      Cor( 1S)     1.99939
   257    C   18  S      Val( 2S)     1.09295
   258    C   18  S      Ryd( 3S)     0.00063
   259    C   18  S      Ryd( 4S)     0.00001
   260    C   18  px     Val( 2p)     1.25011
   261    C   18  px     Ryd( 3p)     0.00225
   262    C   18  py     Val( 2p)     1.24609
   263    C   18  py     Ryd( 3p)     0.00161
   264    C   18  pz     Val( 2p)     1.08069
   265    C   18  pz     Ryd( 3p)     0.00203
   266    C   18  dxy    Ryd( 3d)     0.00052
   267    C   18  dxz    Ryd( 3d)     0.00047
   268    C   18  dyz    Ryd( 3d)     0.00072
   269    C   18  dx2y2  Ryd( 3d)     0.00058
   270    C   18  dz2    Ryd( 3d)     0.00064

   271    C   19  S      Cor( 1S)     1.99904
   272    C   19  S      Val( 2S)     0.93617
   273    C   19  S      Ryd( 3S)     0.00080
   274    C   19  S      Ryd( 4S)     0.00004
   275    C   19  px     Val( 2p)     1.16360
   276    C   19  px     Ryd( 3p)     0.00534
   277    C   19  py     Val( 2p)     1.07562
   278    C   19  py     Ryd( 3p)     0.00440
   279    C   19  pz     Val( 2p)     1.15240
   280    C   19  pz     Ryd( 3p)     0.00613
   281    C   19  dxy    Ryd( 3d)     0.00063
   282    C   19  dxz    Ryd( 3d)     0.00044
   283    C   19  dyz    Ryd( 3d)     0.00055
   284    C   19  dx2y2  Ryd( 3d)     0.00057
   285    C   19  dz2    Ryd( 3d)     0.00035

   286    C   20  S      Cor( 1S)     1.99907
   287    C   20  S      Val( 2S)     0.95236
   288    C   20  S      Ryd( 3S)     0.00065
   289    C   20  S      Ryd( 4S)     0.00004
   290    C   20  px     Val( 2p)     1.12551
   291    C   20  px     Ryd( 3p)     0.00482
   292    C   20  py     Val( 2p)     1.11467
   293    C   20  py     Ryd( 3p)     0.00444
   294    C   20  pz     Val( 2p)     1.10433
   295    C   20  pz     Ryd( 3p)     0.00569
   296    C   20  dxy    Ryd( 3d)     0.00072
   297    C   20  dxz    Ryd( 3d)     0.00041
   298    C   20  dyz    Ryd( 3d)     0.00063
   299    C   20  dx2y2  Ryd( 3d)     0.00050
   300    C   20  dz2    Ryd( 3d)     0.00041

   301    H   21  S      Val( 1S)     0.57042
   302    H   21  S      Ryd( 2S)     0.00206
   303    H   21  px     Ryd( 2p)     0.00038
   304    H   21  py     Ryd( 2p)     0.00026
   305    H   21  pz     Ryd( 2p)     0.00059

   306    H   22  S      Val( 1S)     0.56975
   307    H   22  S      Ryd( 2S)     0.00163
   308    H   22  px     Ryd( 2p)     0.00056
   309    H   22  py     Ryd( 2p)     0.00032
   310    H   22  pz     Ryd( 2p)     0.00035

   311    H   23  S      Val( 1S)     0.76497
   312    H   23  S      Ryd( 2S)     0.00139
   313    H   23  px     Ryd( 2p)     0.00031
   314    H   23  py     Ryd( 2p)     0.00010
   315    H   23  pz     Ryd( 2p)     0.00025

   316    H   24  S      Val( 1S)     0.76097
   317    H   24  S      Ryd( 2S)     0.00111
   318    H   24  px     Ryd( 2p)     0.00018
   319    H   24  py     Ryd( 2p)     0.00013
   320    H   24  pz     Ryd( 2p)     0.00020

   321    H   25  S      Val( 1S)     0.76158
   322    H   25  S      Ryd( 2S)     0.00092
   323    H   25  px     Ryd( 2p)     0.00032
   324    H   25  py     Ryd( 2p)     0.00010
   325    H   25  pz     Ryd( 2p)     0.00010

   326    H   26  S      Val( 1S)     0.75999
   327    H   26  S      Ryd( 2S)     0.00100
   328    H   26  px     Ryd( 2p)     0.00009
   329    H   26  py     Ryd( 2p)     0.00035
   330    H   26  pz     Ryd( 2p)     0.00008

   331    H   27  S      Val( 1S)     0.76052
   332    H   27  S      Ryd( 2S)     0.00107
   333    H   27  px     Ryd( 2p)     0.00009
   334    H   27  py     Ryd( 2p)     0.00035
   335    H   27  pz     Ryd( 2p)     0.00008

   336    H   28  S      Val( 1S)     0.76337
   337    H   28  S      Ryd( 2S)     0.00077
   338    H   28  px     Ryd( 2p)     0.00009
   339    H   28  py     Ryd( 2p)     0.00011
   340    H   28  pz     Ryd( 2p)     0.00032

   341    H   29  S      Val( 1S)     0.76108
   342    H   29  S      Ryd( 2S)     0.00131
   343    H   29  px     Ryd( 2p)     0.00032
   344    H   29  py     Ryd( 2p)     0.00010
   345    H   29  pz     Ryd( 2p)     0.00010

   346    H   30  S      Val( 1S)     0.75505
   347    H   30  S      Ryd( 2S)     0.00135
   348    H   30  px     Ryd( 2p)     0.00019
   349    H   30  py     Ryd( 2p)     0.00010
   350    H   30  pz     Ryd( 2p)     0.00026

   351    H   31  S      Val( 1S)     0.75893
   352    H   31  S      Ryd( 2S)     0.00175
   353    H   31  px     Ryd( 2p)     0.00009
   354    H   31  py     Ryd( 2p)     0.00027
   355    H   31  pz     Ryd( 2p)     0.00018

   356    H   32  S      Val( 1S)     0.75608
   357    H   32  S      Ryd( 2S)     0.00098
   358    H   32  px     Ryd( 2p)     0.00008
   359    H   32  py     Ryd( 2p)     0.00014
   360    H   32  pz     Ryd( 2p)     0.00039

   361    H   33  S      Val( 1S)     0.75883
   362    H   33  S      Ryd( 2S)     0.00098
   363    H   33  px     Ryd( 2p)     0.00025
   364    H   33  py     Ryd( 2p)     0.00013
   365    H   33  pz     Ryd( 2p)     0.00021

   366    H   34  S      Val( 1S)     0.58411
   367    H   34  S      Ryd( 2S)     0.00121
   368    H   34  px     Ryd( 2p)     0.00039
   369    H   34  py     Ryd( 2p)     0.00047
   370    H   34  pz     Ryd( 2p)     0.00040

   371    H   35  S      Val( 1S)     0.58389
   372    H   35  S      Ryd( 2S)     0.00115
   373    H   35  px     Ryd( 2p)     0.00023
   374    H   35  py     Ryd( 2p)     0.00057
   375    H   35  pz     Ryd( 2p)     0.00047

   376    H   36  S      Val( 1S)     0.75809
   377    H   36  S      Ryd( 2S)     0.00101
   378    H   36  px     Ryd( 2p)     0.00007
   379    H   36  py     Ryd( 2p)     0.00014
   380    H   36  pz     Ryd( 2p)     0.00039

   381    H   37  S      Val( 1S)     0.75660
   382    H   37  S      Ryd( 2S)     0.00148
   383    H   37  px     Ryd( 2p)     0.00027
   384    H   37  py     Ryd( 2p)     0.00013
   385    H   37  pz     Ryd( 2p)     0.00021

   386    H   38  S      Val( 1S)     0.76034
   387    H   38  S      Ryd( 2S)     0.00078
   388    H   38  px     Ryd( 2p)     0.00032
   389    H   38  py     Ryd( 2p)     0.00010
   390    H   38  pz     Ryd( 2p)     0.00010

   391    H   39  S      Val( 1S)     0.76092
   392    H   39  S      Ryd( 2S)     0.00135
   393    H   39  px     Ryd( 2p)     0.00011
   394    H   39  py     Ryd( 2p)     0.00027
   395    H   39  pz     Ryd( 2p)     0.00015

   396    H   40  S      Val( 1S)     0.76624
   397    H   40  S      Ryd( 2S)     0.00128
   398    H   40  px     Ryd( 2p)     0.00016
   399    H   40  py     Ryd( 2p)     0.00025
   400    H   40  pz     Ryd( 2p)     0.00011

   401    H   41  S      Val( 1S)     0.76678
   402    H   41  S      Ryd( 2S)     0.00095
   403    H   41  px     Ryd( 2p)     0.00031
   404    H   41  py     Ryd( 2p)     0.00011
   405    H   41  pz     Ryd( 2p)     0.00025

   406    H   42  S      Val( 1S)     0.76537
   407    H   42  S      Ryd( 2S)     0.00115
   408    H   42  px     Ryd( 2p)     0.00027
   409    H   42  py     Ryd( 2p)     0.00017
   410    H   42  pz     Ryd( 2p)     0.00021

 WARNING:  1 low occupancy (<1.9990e) core orbital  found on  C    2
           1 low occupancy (<1.9990e) core orbital  found on  C    3
           1 low occupancy (<1.9990e) core orbital  found on  C    4
           1 low occupancy (<1.9990e) core orbital  found on  C    5
           1 low occupancy (<1.9990e) core orbital  found on  C   14


 Summary of Natural Population Analysis:                  
                                                          
                                       Natural Population 
                Natural  -----------------------------------------------
    Atom  No    Charge         Core      Valence    Rydberg      Total
 -----------------------------------------------------------------------
      N    1   -0.70191      1.99947     5.69218    0.01026     7.70191
      C    2    0.18364      1.99898     3.79880    0.01858     5.81636
      C    3   -0.36028      1.99895     4.34184    0.01949     6.36028
      C    4   -0.07252      1.99897     4.05306    0.02050     6.07252
      C    5    0.06446      1.99894     3.91773    0.01887     5.93554
      C    6   -0.07329      1.99908     4.06019    0.01402     6.07329
      C    7   -0.67555      1.99938     4.66693    0.00924     6.67555
      C    8   -0.67204      1.99936     4.66347    0.00921     6.67204
      C    9   -0.43271      1.99925     4.41874    0.01472     6.43271
      C   10   -0.07144      1.99905     4.05499    0.01740     6.07144
      C   11   -0.06035      1.99900     4.04339    0.01796     6.06035
      C   12   -0.23016      1.99905     4.21850    0.01261     6.23016
      C   13   -0.29831      1.99904     4.28598    0.01329     6.29831
      C   14    0.16097      1.99898     3.82278    0.01727     5.83903
      N   15   -0.85327      1.99952     5.84188    0.01186     7.85327
      C   16   -0.28895      1.99903     4.27679    0.01313     6.28895
      C   17   -0.23350      1.99906     4.22081    0.01363     6.23350
      C   18   -0.67870      1.99939     4.66984    0.00947     6.67870
      C   19   -0.34609      1.99904     4.32780    0.01925     6.34609
      C   20   -0.31425      1.99907     4.29688    0.01830     6.31425
      H   21    0.42629      0.00000     0.57042    0.00329     0.57371
      H   22    0.42739      0.00000     0.56975    0.00286     0.57261
      H   23    0.23297      0.00000     0.76497    0.00206     0.76703
      H   24    0.23741      0.00000     0.76097    0.00163     0.76259
      H   25    0.23698      0.00000     0.76158    0.00144     0.76302
      H   26    0.23848      0.00000     0.75999    0.00153     0.76152
      H   27    0.23789      0.00000     0.76052    0.00159     0.76211
      H   28    0.23533      0.00000     0.76337    0.00130     0.76467
      H   29    0.23709      0.00000     0.76108    0.00183     0.76291
      H   30    0.24305      0.00000     0.75505    0.00191     0.75695
      H   31    0.23877      0.00000     0.75893    0.00230     0.76123
      H   32    0.24232      0.00000     0.75608    0.00159     0.75768
      H   33    0.23959      0.00000     0.75883    0.00158     0.76041
      H   34    0.41342      0.00000     0.58411    0.00247     0.58658
      H   35    0.41369      0.00000     0.58389    0.00242     0.58631
      H   36    0.24030      0.00000     0.75809    0.00161     0.75970
      H   37    0.24131      0.00000     0.75660    0.00209     0.75869
      H   38    0.23836      0.00000     0.76034    0.00130     0.76164
      H   39    0.23720      0.00000     0.76092    0.00188     0.76280
      H   40    0.23195      0.00000     0.76624    0.00180     0.76805
      H   41    0.23161      0.00000     0.76678    0.00162     0.76839
      H   42    0.23283      0.00000     0.76537    0.00180     0.76717
 =======================================================================
   * Total *   -0.00000     39.98262   103.67644    0.34094   144.00000

                                 Natural Population      
 --------------------------------------------------------
   Core                      39.98262 ( 99.9566% of  40)
   Valence                  103.67644 ( 99.6889% of 104)
   Natural Minimal Basis    143.65906 ( 99.7632% of 144)
   Natural Rydberg Basis      0.34094 (  0.2368% of 144)
 --------------------------------------------------------

    Atom  No          Natural Electron Configuration
 ----------------------------------------------------------------------------
      N    1      [core]2S( 1.38)2p( 4.32)3p( 0.01)
      C    2      [core]2S( 0.85)2p( 2.94)3p( 0.01)3d( 0.01)
      C    3      [core]2S( 0.93)2p( 3.41)3p( 0.02)
      C    4      [core]2S( 0.86)2p( 3.20)3p( 0.02)
      C    5      [core]2S( 0.87)2p( 3.05)3p( 0.01)
      C    6      [core]2S( 0.91)2p( 3.15)3p( 0.01)
      C    7      [core]2S( 1.09)2p( 3.57)3p( 0.01)
      C    8      [core]2S( 1.10)2p( 3.57)3p( 0.01)
      C    9      [core]2S( 1.03)2p( 3.39)3p( 0.01)
      C   10      [core]2S( 0.90)2p( 3.16)3p( 0.01)
      C   11      [core]2S( 0.87)2p( 3.17)3p( 0.01)
      C   12      [core]2S( 0.95)2p( 3.27)3p( 0.01)
      C   13      [core]2S( 0.95)2p( 3.33)3p( 0.01)
      C   14      [core]2S( 0.84)2p( 2.98)3p( 0.01)
      N   15      [core]2S( 1.37)2p( 4.48)3p( 0.01)
      C   16      [core]2S( 0.95)2p( 3.32)3p( 0.01)
      C   17      [core]2S( 0.95)2p( 3.27)3p( 0.01)
      C   18      [core]2S( 1.09)2p( 3.58)3p( 0.01)
      C   19      [core]2S( 0.94)2p( 3.39)3p( 0.02)
      C   20      [core]2S( 0.95)2p( 3.34)3p( 0.01)
      H   21            1S( 0.57)
      H   22            1S( 0.57)
      H   23            1S( 0.76)
      H   24            1S( 0.76)
      H   25            1S( 0.76)
      H   26            1S( 0.76)
      H   27            1S( 0.76)
      H   28            1S( 0.76)
      H   29            1S( 0.76)
      H   30            1S( 0.76)
      H   31            1S( 0.76)
      H   32            1S( 0.76)
      H   33            1S( 0.76)
      H   34            1S( 0.58)
      H   35            1S( 0.58)
      H   36            1S( 0.76)
      H   37            1S( 0.76)
      H   38            1S( 0.76)
      H   39            1S( 0.76)
      H   40            1S( 0.77)
      H   41            1S( 0.77)
      H   42            1S( 0.77)


 NBO analysis skipped by request.
 1\1\GINC-DRG2-W001\SP\RB3LYP TD-FC\6-31G(d,p)\C18H22N2\QDUEZ\17-Jul-20
 24\0\\# TD(NStates=10, Root=1) B3LYP/6-31G** SCRF=(Solvent=water) volu
 me pop=NPA density=current Geom=AllCheck Guess=Read\\GDGWSSXWLLHGGV-SF
 HVURJKSA-N_conf_3\\0,1\N,0,-2.3523152107,3.4642334254,1.5088553873\C,0
 ,-2.2037393571,2.1306184599,1.1076146378\C,0,-1.1110841567,1.738080940
 2,0.3138974425\C,0,-0.9403518079,0.3952198243,-0.0163250972\C,0,-1.839
 3448104,-0.5800907984,0.4266232858\C,0,-1.4777722172,-1.9731819229,-0.
 0746506217\C,0,-1.4277019216,-3.0086933989,1.065750289\C,0,-2.48865646
 9,-2.4589115815,-1.1382644439\C,0,-0.0552034183,-1.7400873739,-0.68063
 67214\C,0,0.147413957,-0.1988810954,-0.9158667837\C,0,1.5561112383,0.2
 535297679,-0.5019436574\C,0,2.5043332091,0.756996054,-1.4019417039\C,0
 ,3.7832191035,1.1388060421,-0.9911830801\C,0,4.1700359991,1.0314453373
 ,0.3530603658\N,0,5.4684158466,1.3497087975,0.7623617007\C,0,3.2251818
 658,0.5304997201,1.2684897175\C,0,1.9559107637,0.1558077058,0.84322616
 55\C,0,-0.1665218749,0.168366541,-2.384005917\C,0,-2.9283913806,-0.194
 7465083,1.2123808916\C,0,-3.1092914791,1.1459938848,1.5512345136\H,0,-
 1.9309977889,4.1365350214,0.8796727016\H,0,-3.3052147332,3.7295044388,
 1.7255297989\H,0,-0.3986640502,2.485543201,-0.0280866113\H,0,-0.742929
 482,-2.6902629848,1.8585380617\H,0,-2.4171301802,-3.1559315135,1.51296
 15864\H,0,-1.0860214973,-3.9807626658,0.6915858319\H,0,-2.1984410811,-
 3.4417990786,-1.5273512837\H,0,-2.5544601141,-1.7673559119,-1.98328390
 99\H,0,-3.4913623039,-2.5519060414,-0.7064332659\H,0,0.6965219861,-2.0
 929467444,0.0311521808\H,0,0.0955135714,-2.3072246052,-1.6054262428\H,
 0,2.2583038323,0.8645855492,-2.4525790667\H,0,4.4892835964,1.525056467
 6,-1.7222769449\H,0,5.9406607943,2.022130544,0.1708300361\H,0,5.547601
 1061,1.6123488807,1.7369558187\H,0,3.4932165458,0.4395875307,2.3183567
 86\H,0,1.2509364427,-0.2167208046,1.581808692\H,0,-1.1859013819,-0.130
 7565835,-2.6396291462\H,0,-0.0854232075,1.2468868863,-2.5523777\H,0,0.
 511932692,-0.3402840867,-3.0765658419\H,0,-3.6438231785,-0.9324270316,
 1.5680693416\H,0,-3.9538494478,1.4414857111,2.1688109009\\Version=ES64
 L-G16RevA.03\State=1-A\HF=-808.7326885\RMSD=5.966e-09\Dipole=-0.194609
 5,1.906379,0.1977899\Quadrupole=1.8474678,6.4692798,-8.3167475,0.41049
 84,0.3380658,2.9553069\PG=C01 [X(C18H22N2)]\\@


 WE DON'T KNOW ONE MILLIONTH OF ONE PERCENT ABOUT
 ANYTHING.
                                     T. A. EDISON.
 Job cpu time:       0 days  2 hours 11 minutes 44.1 seconds.
 Elapsed time:       0 days  0 hours 44 minutes  2.2 seconds.
 File lengths (MBytes):  RWF=   1315 Int=      0 D2E=      0 Chk=     83 Scr=      1
 Normal termination of Gaussian 16 at Wed Jul 17 20:34:34 2024.
