 Entering Gaussian System, Link 0=g16
 Initial command:
 /opt/sw/arch/manual/gaussian/G16_A03/g16/l1.exe "/scratch/1032062.jesse.materianova.be/Gau-15483.inp" -scrdir="/scratch/1032062.jesse.materianova.be/"
 Entering Link 1 = /opt/sw/arch/manual/gaussian/G16_A03/g16/l1.exe PID=     15484.
  
 Copyright (c) 1988,1990,1992,1993,1995,1998,2003,2009,2016,
            Gaussian, Inc.  All Rights Reserved.
  
 This is part of the Gaussian(R) 16 program.  It is based on
 the Gaussian(R) 09 system (copyright 2009, Gaussian, Inc.),
 the Gaussian(R) 03 system (copyright 2003, Gaussian, Inc.),
 the Gaussian(R) 98 system (copyright 1998, Gaussian, Inc.),
 the Gaussian(R) 94 system (copyright 1995, Gaussian, Inc.),
 the Gaussian 92(TM) system (copyright 1992, Gaussian, Inc.),
 the Gaussian 90(TM) system (copyright 1990, Gaussian, Inc.),
 the Gaussian 88(TM) system (copyright 1988, Gaussian, Inc.),
 the Gaussian 86(TM) system (copyright 1986, Carnegie Mellon
 University), and the Gaussian 82(TM) system (copyright 1983,
 Carnegie Mellon University). Gaussian is a federally registered
 trademark of Gaussian, Inc.
  
 This software contains proprietary and confidential information,
 including trade secrets, belonging to Gaussian, Inc.
  
 This software is provided under written license and may be
 used, copied, transmitted, or stored only in accord with that
 written license.
  
 The following legend is applicable only to US Government
 contracts under FAR:
  
                    RESTRICTED RIGHTS LEGEND
  
 Use, reproduction and disclosure by the US Government is
 subject to restrictions as set forth in subparagraphs (a)
 and (c) of the Commercial Computer Software - Restricted
 Rights clause in FAR 52.227-19.
  
 Gaussian, Inc.
 340 Quinnipiac St., Bldg. 40, Wallingford CT 06492
  
  
 ---------------------------------------------------------------
 Warning -- This program may not be used in any manner that
 competes with the business of Gaussian, Inc. or will provide
 assistance to any competitor of Gaussian, Inc.  The licensee
 of this program is prohibited from giving any competitor of
 Gaussian, Inc. access to this program.  By using this program,
 the user acknowledges that Gaussian, Inc. is engaged in the
 business of creating and licensing software in the field of
 computational chemistry and represents and warrants to the
 licensee that it is not a competitor of Gaussian, Inc. and that
 it will not use this program in any manner prohibited above.
 ---------------------------------------------------------------
  

 Cite this work as:
 Gaussian 16, Revision A.03,
 M. J. Frisch, G. W. Trucks, H. B. Schlegel, G. E. Scuseria, 
 M. A. Robb, J. R. Cheeseman, G. Scalmani, V. Barone, 
 G. A. Petersson, H. Nakatsuji, X. Li, M. Caricato, A. V. Marenich, 
 J. Bloino, B. G. Janesko, R. Gomperts, B. Mennucci, H. P. Hratchian, 
 J. V. Ortiz, A. F. Izmaylov, J. L. Sonnenberg, D. Williams-Young, 
 F. Ding, F. Lipparini, F. Egidi, J. Goings, B. Peng, A. Petrone, 
 T. Henderson, D. Ranasinghe, V. G. Zakrzewski, J. Gao, N. Rega, 
 G. Zheng, W. Liang, M. Hada, M. Ehara, K. Toyota, R. Fukuda, 
 J. Hasegawa, M. Ishida, T. Nakajima, Y. Honda, O. Kitao, H. Nakai, 
 T. Vreven, K. Throssell, J. A. Montgomery, Jr., J. E. Peralta, 
 F. Ogliaro, M. J. Bearpark, J. J. Heyd, E. N. Brothers, K. N. Kudin, 
 V. N. Staroverov, T. A. Keith, R. Kobayashi, J. Normand, 
 K. Raghavachari, A. P. Rendell, J. C. Burant, S. S. Iyengar, 
 J. Tomasi, M. Cossi, J. M. Millam, M. Klene, C. Adamo, R. Cammi, 
 J. W. Ochterski, R. L. Martin, K. Morokuma, O. Farkas, 
 J. B. Foresman, and D. J. Fox, Gaussian, Inc., Wallingford CT, 2016.
 
 ******************************************
 Gaussian 16:  EM64L-G16RevA.03 25-Dec-2016
                11-Jul-2024 
 ******************************************
 %nprocshared=2
 Will use up to    2 processors via shared memory.
 %mem=4GB
 %Chk=KFIGICHILYTCJF-UHFFFAOYSA-N_conf_1_0.chk
 -------------------------------------------------------
 # opt=CalcFc B3LYP/6-31G** SCRF=(Solvent=water) scf=xqc
 -------------------------------------------------------
 1/10=4,18=20,19=15,26=3,38=1/1,3;
 2/9=110,12=2,17=6,18=5,40=1/2;
 3/5=1,6=6,7=101,11=2,25=1,30=1,70=2201,71=2,72=1,74=-5,140=1/1,2,3;
 4//1;
 5/5=2,8=3,13=1,38=5,53=1/2,8;
 8/6=4,10=90,11=11/1;
 11/6=1,8=1,9=11,15=111,16=1/1,2,10;
 10/6=1,13=1/2;
 6/7=2,8=2,9=2,10=2,28=1/1;
 7/10=1,18=20,25=1/1,2,3,16;
 1/10=4,18=20,19=15,26=3/3(2);
 2/9=110/2;
 99//99;
 2/9=110/2;
 3/5=1,6=6,7=101,11=2,25=1,30=1,70=2205,71=1,72=1,74=-5/1,2,3;
 4/5=5,16=3,69=1/1;
 5/5=2,8=3,13=1,38=5,53=1/2,8;
 7//1,2,3,16;
 1/18=20,19=15,26=3/3(-5);
 2/9=110/2;
 6/7=2,8=2,9=2,10=2,19=2,28=1/1;
 99/9=1/99;
 ----------------------------------
 KFIGICHILYTCJF-UHFFFAOYSA-N_conf_1
 ----------------------------------
 Symbolic Z-matrix:
 Charge =  0 Multiplicity = 1
 C                     1.66613   0.47045   0.67849 
 N                     0.61345  -0.45204   1.08543 
 C                    -0.12352  -0.99673  -0.07103 
 C                    -1.0905    0.01825  -0.71599 
 N                    -1.96143   0.62958   0.29119 
 H                     2.21536   0.80407   1.56464 
 H                     1.25837   1.36399   0.19697 
 H                     2.38192  -0.00841   0.00256 
 H                     1.03949  -1.23195   1.5869 
 H                     0.56747  -1.39464  -0.82359 
 H                    -0.71518  -1.84716   0.29025 
 H                    -0.51839   0.8038   -1.22153 
 H                    -1.70488  -0.48007  -1.47262 
 H                    -2.24112   1.55721  -0.01845 
 H                    -1.38718   0.76364   1.13032 
 

 GradGradGradGradGradGradGradGradGradGradGradGradGradGradGradGradGradGrad
 Berny optimization.
 Initialization pass.
                           ----------------------------
                           !    Initial Parameters    !
                           ! (Angstroms and Degrees)  !
 --------------------------                            --------------------------
 ! Name  Definition              Value          Derivative Info.                !
 --------------------------------------------------------------------------------
 ! R1    R(1,2)                  1.4576         calculate D2E/DX2 analytically  !
 ! R2    R(1,6)                  1.0946         calculate D2E/DX2 analytically  !
 ! R3    R(1,7)                  1.0939         calculate D2E/DX2 analytically  !
 ! R4    R(1,8)                  1.0948         calculate D2E/DX2 analytically  !
 ! R5    R(2,3)                  1.4755         calculate D2E/DX2 analytically  !
 ! R6    R(2,9)                  1.0204         calculate D2E/DX2 analytically  !
 ! R7    R(3,4)                  1.5431         calculate D2E/DX2 analytically  !
 ! R8    R(3,10)                 1.0964         calculate D2E/DX2 analytically  !
 ! R9    R(3,11)                 1.0972         calculate D2E/DX2 analytically  !
 ! R10   R(4,5)                  1.4651         calculate D2E/DX2 analytically  !
 ! R11   R(4,12)                 1.0954         calculate D2E/DX2 analytically  !
 ! R12   R(4,13)                 1.0947         calculate D2E/DX2 analytically  !
 ! R13   R(5,14)                 1.0172         calculate D2E/DX2 analytically  !
 ! R14   R(5,15)                 1.0256         calculate D2E/DX2 analytically  !
 ! A1    A(2,1,6)              109.2227         calculate D2E/DX2 analytically  !
 ! A2    A(2,1,7)              111.7559         calculate D2E/DX2 analytically  !
 ! A3    A(2,1,8)              111.5758         calculate D2E/DX2 analytically  !
 ! A4    A(6,1,7)              107.1234         calculate D2E/DX2 analytically  !
 ! A5    A(6,1,8)              107.7624         calculate D2E/DX2 analytically  !
 ! A6    A(7,1,8)              109.2221         calculate D2E/DX2 analytically  !
 ! A7    A(1,2,3)              112.0562         calculate D2E/DX2 analytically  !
 ! A8    A(1,2,9)              108.625          calculate D2E/DX2 analytically  !
 ! A9    A(3,2,9)              108.1538         calculate D2E/DX2 analytically  !
 ! A10   A(2,3,4)              113.4379         calculate D2E/DX2 analytically  !
 ! A11   A(2,3,10)             110.9253         calculate D2E/DX2 analytically  !
 ! A12   A(2,3,11)             107.3007         calculate D2E/DX2 analytically  !
 ! A13   A(4,3,10)             110.2885         calculate D2E/DX2 analytically  !
 ! A14   A(4,3,11)             108.0312         calculate D2E/DX2 analytically  !
 ! A15   A(10,3,11)            106.5325         calculate D2E/DX2 analytically  !
 ! A16   A(3,4,5)              111.0771         calculate D2E/DX2 analytically  !
 ! A17   A(3,4,12)             109.7121         calculate D2E/DX2 analytically  !
 ! A18   A(3,4,13)             109.9485         calculate D2E/DX2 analytically  !
 ! A19   A(5,4,12)             109.1772         calculate D2E/DX2 analytically  !
 ! A20   A(5,4,13)             109.3576         calculate D2E/DX2 analytically  !
 ! A21   A(12,4,13)            107.4925         calculate D2E/DX2 analytically  !
 ! A22   A(4,5,14)             109.5552         calculate D2E/DX2 analytically  !
 ! A23   A(4,5,15)             106.5078         calculate D2E/DX2 analytically  !
 ! A24   A(14,5,15)            106.4882         calculate D2E/DX2 analytically  !
 ! D1    D(6,1,2,3)           -177.0197         calculate D2E/DX2 analytically  !
 ! D2    D(6,1,2,9)            -57.5936         calculate D2E/DX2 analytically  !
 ! D3    D(7,1,2,3)             64.6288         calculate D2E/DX2 analytically  !
 ! D4    D(7,1,2,9)           -175.9451         calculate D2E/DX2 analytically  !
 ! D5    D(8,1,2,3)            -57.9869         calculate D2E/DX2 analytically  !
 ! D6    D(8,1,2,9)             61.4392         calculate D2E/DX2 analytically  !
 ! D7    D(1,2,3,4)            -74.3236         calculate D2E/DX2 analytically  !
 ! D8    D(1,2,3,10)            50.4533         calculate D2E/DX2 analytically  !
 ! D9    D(1,2,3,11)           166.4416         calculate D2E/DX2 analytically  !
 ! D10   D(9,2,3,4)            165.9742         calculate D2E/DX2 analytically  !
 ! D11   D(9,2,3,10)           -69.249          calculate D2E/DX2 analytically  !
 ! D12   D(9,2,3,11)            46.7394         calculate D2E/DX2 analytically  !
 ! D13   D(2,3,4,5)            -50.9849         calculate D2E/DX2 analytically  !
 ! D14   D(2,3,4,12)            69.8153         calculate D2E/DX2 analytically  !
 ! D15   D(2,3,4,13)          -172.1689         calculate D2E/DX2 analytically  !
 ! D16   D(10,3,4,5)          -176.1043         calculate D2E/DX2 analytically  !
 ! D17   D(10,3,4,12)          -55.3041         calculate D2E/DX2 analytically  !
 ! D18   D(10,3,4,13)           62.7116         calculate D2E/DX2 analytically  !
 ! D19   D(11,3,4,5)            67.8307         calculate D2E/DX2 analytically  !
 ! D20   D(11,3,4,12)         -171.3691         calculate D2E/DX2 analytically  !
 ! D21   D(11,3,4,13)          -53.3534         calculate D2E/DX2 analytically  !
 ! D22   D(3,4,5,14)           152.3737         calculate D2E/DX2 analytically  !
 ! D23   D(3,4,5,15)            37.5765         calculate D2E/DX2 analytically  !
 ! D24   D(12,4,5,14)           31.2587         calculate D2E/DX2 analytically  !
 ! D25   D(12,4,5,15)          -83.5384         calculate D2E/DX2 analytically  !
 ! D26   D(13,4,5,14)          -86.096          calculate D2E/DX2 analytically  !
 ! D27   D(13,4,5,15)          159.1068         calculate D2E/DX2 analytically  !
 --------------------------------------------------------------------------------
 Trust Radius=3.00D-01 FncErr=1.00D-07 GrdErr=1.00D-06 EigMax=2.50D+02 EigMin=1.00D-04
 Number of steps in this run=     75 maximum allowed number of steps=    100.
 GradGradGradGradGradGradGradGradGradGradGradGradGradGradGradGradGradGrad

                          Input orientation:                          
 ---------------------------------------------------------------------
 Center     Atomic      Atomic             Coordinates (Angstroms)
 Number     Number       Type             X           Y           Z
 ---------------------------------------------------------------------
      1          6           0        1.666126    0.470445    0.678492
      2          7           0        0.613449   -0.452044    1.085427
      3          6           0       -0.123522   -0.996729   -0.071028
      4          6           0       -1.090497    0.018253   -0.715987
      5          7           0       -1.961428    0.629580    0.291188
      6          1           0        2.215360    0.804069    1.564636
      7          1           0        1.258369    1.363986    0.196972
      8          1           0        2.381920   -0.008407    0.002560
      9          1           0        1.039495   -1.231947    1.586902
     10          1           0        0.567468   -1.394637   -0.823592
     11          1           0       -0.715176   -1.847159    0.290251
     12          1           0       -0.518385    0.803799   -1.221532
     13          1           0       -1.704880   -0.480065   -1.472620
     14          1           0       -2.241119    1.557211   -0.018452
     15          1           0       -1.387179    0.763644    1.130319
 ---------------------------------------------------------------------
                    Distance matrix (angstroms):
                    1          2          3          4          5
     1  C    0.000000
     2  N    1.457638   0.000000
     3  C    2.432533   1.475532   0.000000
     4  C    3.122182   2.523827   1.543114   0.000000
     5  N    3.651640   2.903570   2.480722   1.465143   0.000000
     6  H    1.094629   2.091310   3.374705   4.092363   4.370089
     7  H    1.093866   2.122083   2.748530   2.856862   3.303834
     8  H    1.094781   2.120590   2.694334   3.546083   4.399433
     9  H    2.028796   1.020412   2.038790   3.376856   3.761608
    10  H    2.634737   2.129542   1.096426   2.180982   3.425712
    11  H    3.345537   2.084202   1.097182   2.152473   2.772613
    12  H    2.914328   2.860114   2.172896   1.095432   2.097867
    13  H    4.110285   3.452397   2.175338   1.094660   2.099559
    14  H    4.115016   3.661177   3.318071   2.044231   1.017154
    15  H    3.100449   2.341458   2.477696   2.013076   1.025610
                    6          7          8          9         10
     6  H    0.000000
     7  H    1.760637   0.000000
     8  H    1.768598   1.784271   0.000000
     9  H    2.351279   2.952740   2.410248   0.000000
    10  H    3.640534   3.021406   2.428250   2.461658   0.000000
    11  H    4.152241   3.770282   3.613278   2.266861   1.758009
    12  H    3.903344   2.341542   3.251131   3.802440   2.484059
    13  H    5.122715   3.868967   4.370418   4.178229   2.534017
    14  H    4.788904   3.511433   4.880993   4.595540   4.153290
    15  H    3.628850   2.868879   4.009240   3.174838   3.506649
                   11         12         13         14         15
    11  H    0.000000
    12  H    3.058070   0.000000
    13  H    2.440527   1.766104   0.000000
    14  H    3.743465   2.232229   2.559815   0.000000
    15  H    2.823755   2.507513   2.902247   1.636654   0.000000
 Stoichiometry    C3H10N2
 Framework group  C1[X(C3H10N2)]
 Deg. of freedom    39
 Full point group                 C1      NOp   1
 Largest Abelian subgroup         C1      NOp   1
 Largest concise Abelian subgroup C1      NOp   1
                         Standard orientation:                         
 ---------------------------------------------------------------------
 Center     Atomic      Atomic             Coordinates (Angstroms)
 Number     Number       Type             X           Y           Z
 ---------------------------------------------------------------------
      1          6           0        1.788820   -0.602420    0.373790
      2          7           0        1.012907    0.096819   -0.642936
      3          6           0        0.017746    1.010442   -0.049520
      4          6           0       -1.199991    0.281691    0.556484
      5          7           0       -1.778988   -0.663369   -0.401779
      6          1           0        2.545403   -1.224580   -0.114791
      7          1           0        1.162904   -1.268675    0.974519
      8          1           0        2.308745    0.097683    1.035666
      9          1           0        1.650468    0.650140   -1.216168
     10          1           0        0.482340    1.662237    0.699790
     11          1           0       -0.343359    1.665458   -0.852243
     12          1           0       -0.894843   -0.261177    1.457677
     13          1           0       -1.961492    1.009990    0.853096
     14          1           0       -2.234604   -1.421426    0.100581
     15          1           0       -0.992457   -1.082081   -0.909644
 ---------------------------------------------------------------------
 Rotational constants (GHZ):           8.5349658           3.0953195           2.8273208
 Standard basis: 6-31G(d,p) (6D, 7F)
 There are   125 symmetry adapted cartesian basis functions of A   symmetry.
 There are   125 symmetry adapted basis functions of A   symmetry.
   125 basis functions,   210 primitive gaussians,   125 cartesian basis functions
    21 alpha electrons       21 beta electrons
       nuclear repulsion energy       194.7191920503 Hartrees.
 NAtoms=   15 NActive=   15 NUniq=   15 SFac= 1.00D+00 NAtFMM=   60 NAOKFM=F Big=F
 Integral buffers will be    131072 words long.
 Raffenetti 2 integral format.
 Two-electron integral symmetry is turned on.
 Force inversion solution in PCM.
 ------------------------------------------------------------------------------
 Polarizable Continuum Model (PCM)
 =================================
 Model                : PCM.
 Atomic radii         : UFF (Universal Force Field).
 Polarization charges : Total charges.
 Charge compensation  : None.
 Solution method      : Matrix inversion.
 Cavity type          : Scaled VdW (van der Waals Surface) (Alpha=1.100).
 Cavity algorithm     : GePol (No added spheres)
                        Default sphere list used, NSphG=   15.
                        Lebedev-Laikov grids with approx.  5.0 points / Ang**2.
                        Smoothing algorithm: York/Karplus (Gamma=1.0000).
                        Polarization charges: spherical gaussians, with
                                              point-specific exponents (IZeta= 3).
                        Self-potential: point-specific (ISelfS= 7).
                        Self-field    : sphere-specific E.n sum rule (ISelfD= 2).
 1st derivatives      : Analytical E(r).r(x)/FMM algorithm (CHGder, D1EAlg=3).
                        Cavity 1st derivative terms included.
 2nd derivatives      : Analytical E(r).r(xy)/FMM algorithm (CHGder, D2EAlg=3).
                        Cavity 2nd derivative terms included.
 Solvent              : Water, Eps=  78.355300 Eps(inf)=   1.777849
 ------------------------------------------------------------------------------
 Spheres list:
 ISph  on   Nord     Re0    Alpha      Xe            Ye            Ze
    1   C      1    1.9255  1.100      1.788820     -0.602420      0.373790
    2   N      2    1.8300  1.100      1.012907      0.096819     -0.642936
    3   C      3    1.9255  1.100      0.017746      1.010442     -0.049520
    4   C      4    1.9255  1.100     -1.199991      0.281691      0.556484
    5   N      5    1.8300  1.100     -1.778988     -0.663369     -0.401779
    6   H      6    1.4430  1.100      2.545403     -1.224580     -0.114791
    7   H      7    1.4430  1.100      1.162904     -1.268675      0.974519
    8   H      8    1.4430  1.100      2.308745      0.097683      1.035666
    9   H      9    1.4430  1.100      1.650468      0.650140     -1.216168
   10   H     10    1.4430  1.100      0.482340      1.662237      0.699790
   11   H     11    1.4430  1.100     -0.343359      1.665458     -0.852243
   12   H     12    1.4430  1.100     -0.894843     -0.261177      1.457677
   13   H     13    1.4430  1.100     -1.961492      1.009990      0.853096
   14   H     14    1.4430  1.100     -2.234604     -1.421426      0.100581
   15   H     15    1.4430  1.100     -0.992457     -1.082081     -0.909644
 ------------------------------------------------------------------------------
 One-electron integrals computed using PRISM.
 NBasis=   125 RedAO= T EigKep=  4.70D-03  NBF=   125
 NBsUse=   125 1.00D-06 EigRej= -1.00D+00 NBFU=   125
 ExpMin= 1.61D-01 ExpMax= 4.17D+03 ExpMxC= 6.27D+02 IAcc=3 IRadAn=         5 AccDes= 0.00D+00
 Harris functional with IExCor=  402 and IRadAn=       5 diagonalized for initial guess.
 HarFok:  IExCor=  402 AccDes= 0.00D+00 IRadAn=         5 IDoV= 1 UseB2=F ITyADJ=14
 ICtDFT=  3500011 ScaDFX=  1.000000  1.000000  1.000000  1.000000
 FoFCou: FMM=F IPFlag=           0 FMFlag=      100000 FMFlg1=           0
         NFxFlg=           0 DoJE=T BraDBF=F KetDBF=T FulRan=T
         wScrn=  0.000000 ICntrl=       500 IOpCl=  0 I1Cent=   200000004 NGrid=           0
         NMat0=    1 NMatS0=      1 NMatT0=    0 NMatD0=    1 NMtDS0=    0 NMtDT0=    0
 Petite list used in FoFCou.
 Keep R1 ints in memory in canonical form, NReq=32913836.
 Requested convergence on RMS density matrix=1.00D-08 within  32 cycles.
 Requested convergence on MAX density matrix=1.00D-06.
 Requested convergence on             energy=1.00D-06.
 No special actions if energy rises.
 Inv3:  Mode=1 IEnd=     3946827.
 Iteration    1 A*A^-1 deviation from unit magnitude is 4.44D-15 for     78.
 Iteration    1 A*A^-1 deviation from orthogonality  is 3.66D-15 for    925    687.
 Iteration    1 A^-1*A deviation from unit magnitude is 4.66D-15 for    290.
 Iteration    1 A^-1*A deviation from orthogonality  is 2.47D-15 for    978    226.
 Error on total polarization charges =  0.00738
 SCF Done:  E(RB3LYP) =  -229.841728294     A.U. after   11 cycles
            NFock= 11  Conv=0.25D-08     -V/T= 2.0098
 QCSCF skips out because SCF is already converged.
 DoSCS=F DFT=T ScalE2(SS,OS)=  1.000000  1.000000
 Range of M.O.s used for correlation:     1   125
 NBasis=   125 NAE=    21 NBE=    21 NFC=     0 NFV=     0
 NROrb=    125 NOA=    21 NOB=    21 NVA=   104 NVB=   104
 Symmetrizing basis deriv contribution to polar:
 IMax=3 JMax=2 DiffMx= 0.00D+00
 G2DrvN: will do    16 centers at a time, making    1 passes.
 Calling FoFCou, ICntrl=  3107 FMM=F I1Cent=   0 AccDes= 0.00D+00.
 NEqPCM:  Using equilibrium solvation (IEInf=0, Eps=  78.3553, EpsInf=   1.7778)
 G2PCM: DoFxE=T DoFxN=T DoGrad=T DoDP/DQ/DG/TGxP=FFFF NFrqRd=   0 IEInf=0 SqF1=F DoCFld=F IF1Alg=4.
 End of G2Drv F.D. properties file   721 does not exist.
 End of G2Drv F.D. properties file   722 does not exist.
 End of G2Drv F.D. properties file   788 does not exist.
          IDoAtm=111111111111111
 NEqPCM:  Using equilibrium solvation (IEInf=0, Eps=  78.3553, EpsInf=   1.7778)
          Differentiating once with respect to nuclear coordinates.
 Keep R1 ints in memory in canonical form, NReq=35442453.
          There are    48 degrees of freedom in the 1st order CPHF.  IDoFFX=6 NUNeed=     0.
     42 vectors produced by pass  0 Test12= 4.55D-15 2.08D-09 XBig12= 7.57D-02 5.50D-02.
 AX will form    42 AO Fock derivatives at one time.
     42 vectors produced by pass  1 Test12= 4.55D-15 2.08D-09 XBig12= 3.07D-03 1.01D-02.
     42 vectors produced by pass  2 Test12= 4.55D-15 2.08D-09 XBig12= 2.71D-05 7.55D-04.
     42 vectors produced by pass  3 Test12= 4.55D-15 2.08D-09 XBig12= 5.79D-08 3.03D-05.
     42 vectors produced by pass  4 Test12= 4.55D-15 2.08D-09 XBig12= 5.26D-11 1.06D-06.
     16 vectors produced by pass  5 Test12= 4.55D-15 2.08D-09 XBig12= 2.99D-14 2.54D-08.
 InvSVY:  IOpt=1 It=  1 EMax= 2.00D-15
 Solved reduced A of dimension   226 with    42 vectors.
 End of Minotr F.D. properties file   721 does not exist.
 End of Minotr F.D. properties file   722 does not exist.
 End of Minotr F.D. properties file   788 does not exist.

 **********************************************************************

            Population analysis using the SCF density.

 **********************************************************************

 Orbital symmetries:
       Occupied  (A) (A) (A) (A) (A) (A) (A) (A) (A) (A) (A) (A)
                 (A) (A) (A) (A) (A) (A) (A) (A) (A)
       Virtual   (A) (A) (A) (A) (A) (A) (A) (A) (A) (A) (A) (A)
                 (A) (A) (A) (A) (A) (A) (A) (A) (A) (A) (A) (A)
                 (A) (A) (A) (A) (A) (A) (A) (A) (A) (A) (A) (A)
                 (A) (A) (A) (A) (A) (A) (A) (A) (A) (A) (A) (A)
                 (A) (A) (A) (A) (A) (A) (A) (A) (A) (A) (A) (A)
                 (A) (A) (A) (A) (A) (A) (A) (A) (A) (A) (A) (A)
                 (A) (A) (A) (A) (A) (A) (A) (A) (A) (A) (A) (A)
                 (A) (A) (A) (A) (A) (A) (A) (A) (A) (A) (A) (A)
                 (A) (A) (A) (A) (A) (A) (A) (A)
 The electronic state is 1-A.
 Alpha  occ. eigenvalues --  -14.31988 -14.29972 -10.20381 -10.19985 -10.19691
 Alpha  occ. eigenvalues --   -0.90254  -0.86024  -0.71476  -0.65610  -0.57702
 Alpha  occ. eigenvalues --   -0.49792  -0.48009  -0.43688  -0.42671  -0.42008
 Alpha  occ. eigenvalues --   -0.38443  -0.37029  -0.34671  -0.33540  -0.23172
 Alpha  occ. eigenvalues --   -0.22243
 Alpha virt. eigenvalues --    0.07866   0.10673   0.13271   0.14529   0.15426
 Alpha virt. eigenvalues --    0.16902   0.17746   0.18936   0.19956   0.21446
 Alpha virt. eigenvalues --    0.22362   0.23526   0.25328   0.28806   0.51147
 Alpha virt. eigenvalues --    0.53034   0.54986   0.57455   0.58282   0.60490
 Alpha virt. eigenvalues --    0.64746   0.67329   0.72307   0.74626   0.75995
 Alpha virt. eigenvalues --    0.78851   0.80626   0.82980   0.84949   0.85885
 Alpha virt. eigenvalues --    0.88471   0.89121   0.90715   0.91722   0.94486
 Alpha virt. eigenvalues --    0.96195   0.96912   1.00632   1.05748   1.06754
 Alpha virt. eigenvalues --    1.18142   1.28638   1.30555   1.41150   1.41914
 Alpha virt. eigenvalues --    1.47418   1.55350   1.60764   1.67469   1.76803
 Alpha virt. eigenvalues --    1.78588   1.84478   1.85815   1.87978   1.92764
 Alpha virt. eigenvalues --    1.93525   1.96730   2.02216   2.03965   2.06478
 Alpha virt. eigenvalues --    2.08668   2.10905   2.13809   2.14962   2.18082
 Alpha virt. eigenvalues --    2.23752   2.26795   2.32280   2.33307   2.36535
 Alpha virt. eigenvalues --    2.39360   2.41312   2.43480   2.50860   2.56905
 Alpha virt. eigenvalues --    2.57838   2.58845   2.65288   2.71549   2.71962
 Alpha virt. eigenvalues --    2.75407   2.77469   2.83196   2.87016   2.88481
 Alpha virt. eigenvalues --    2.91116   2.94753   2.96123   3.03050   3.19164
 Alpha virt. eigenvalues --    3.28528   3.31782   3.32390   3.34728   3.41392
 Alpha virt. eigenvalues --    3.44927   3.49807   3.53024   3.57131   3.97469
 Alpha virt. eigenvalues --    4.09825   4.42626   4.48233   4.64357
          Condensed to atoms (all electrons):
               1          2          3          4          5          6
     1  C    4.815667   0.307230  -0.057641  -0.003047  -0.000541   0.387835
     2  N    0.307230   6.801909   0.315700  -0.057572  -0.011812  -0.033235
     3  C   -0.057641   0.315700   4.844241   0.364395  -0.044775   0.005774
     4  C   -0.003047  -0.057572   0.364395   4.833536   0.302228   0.000043
     5  N   -0.000541  -0.011812  -0.044775   0.302228   6.828869  -0.000008
     6  H    0.387835  -0.033235   0.005774   0.000043  -0.000008   0.600530
     7  H    0.393523  -0.038690  -0.005719   0.004485   0.001605  -0.028686
     8  H    0.375063  -0.051249  -0.007220  -0.001878   0.000022  -0.037908
     9  H   -0.039220   0.346582  -0.034456   0.005745   0.000287  -0.004173
    10  H   -0.007826  -0.051890   0.374262  -0.049750   0.003549  -0.000094
    11  H    0.006220  -0.038469   0.380166  -0.035671   0.000686  -0.000272
    12  H    0.003312  -0.006161  -0.033818   0.382148  -0.054925  -0.000104
    13  H   -0.000051   0.003745  -0.030102   0.385244  -0.048904  -0.000001
    14  H   -0.000042   0.000401   0.004814  -0.033807   0.340965  -0.000002
    15  H   -0.000671   0.034488  -0.017627  -0.051895   0.337405  -0.000148
               7          8          9         10         11         12
     1  C    0.393523   0.375063  -0.039220  -0.007826   0.006220   0.003312
     2  N   -0.038690  -0.051249   0.346582  -0.051890  -0.038469  -0.006161
     3  C   -0.005719  -0.007220  -0.034456   0.374262   0.380166  -0.033818
     4  C    0.004485  -0.001878   0.005745  -0.049750  -0.035671   0.382148
     5  N    0.001605   0.000022   0.000287   0.003549   0.000686  -0.054925
     6  H   -0.028686  -0.037908  -0.004173  -0.000094  -0.000272  -0.000104
     7  H    0.594897  -0.044268   0.005819  -0.001900  -0.000005  -0.000101
     8  H   -0.044268   0.665209  -0.004745   0.014624  -0.000102  -0.000045
     9  H    0.005819  -0.004745   0.474075  -0.002363  -0.006431  -0.000137
    10  H   -0.001900   0.014624  -0.002363   0.676252  -0.039636  -0.003552
    11  H   -0.000005  -0.000102  -0.006431  -0.039636   0.632574   0.006689
    12  H   -0.000101  -0.000045  -0.000137  -0.003552   0.006689   0.678316
    13  H   -0.000037   0.000026  -0.000138   0.000746  -0.007330  -0.050705
    14  H    0.000056   0.000003   0.000008  -0.000228  -0.000118  -0.009498
    15  H   -0.001125   0.000347  -0.000836   0.001207  -0.000427   0.000281
              13         14         15
     1  C   -0.000051  -0.000042  -0.000671
     2  N    0.003745   0.000401   0.034488
     3  C   -0.030102   0.004814  -0.017627
     4  C    0.385244  -0.033807  -0.051895
     5  N   -0.048904   0.340965   0.337405
     6  H   -0.000001  -0.000002  -0.000148
     7  H   -0.000037   0.000056  -0.001125
     8  H    0.000026   0.000003   0.000347
     9  H   -0.000138   0.000008  -0.000836
    10  H    0.000746  -0.000228   0.001207
    11  H   -0.007330  -0.000118  -0.000427
    12  H   -0.050705  -0.009498   0.000281
    13  H    0.639859   0.001215   0.006503
    14  H    0.001215   0.480633  -0.032245
    15  H    0.006503  -0.032245   0.474609
 Mulliken charges:
               1
     1  C   -0.179809
     2  N   -0.520976
     3  C   -0.057992
     4  C   -0.044202
     5  N   -0.654652
     6  H    0.110450
     7  H    0.120147
     8  H    0.092119
     9  H    0.259981
    10  H    0.086600
    11  H    0.102126
    12  H    0.088300
    13  H    0.099930
    14  H    0.247845
    15  H    0.250133
 Sum of Mulliken charges =  -0.00000
 Mulliken charges with hydrogens summed into heavy atoms:
               1
     1  C    0.142907
     2  N   -0.260995
     3  C    0.130733
     4  C    0.144028
     5  N   -0.156673
 APT charges:
               1
     1  C   -1.009318
     2  N   -0.808534
     3  C   -0.646165
     4  C   -0.604430
     5  N   -0.971397
     6  H    0.501464
     7  H    0.261095
     8  H    0.350269
     9  H    0.613741
    10  H    0.334711
    11  H    0.383219
    12  H    0.280236
    13  H    0.461545
    14  H    0.595303
    15  H    0.258259
 Sum of APT charges =  -0.00000
 APT charges with hydrogens summed into heavy atoms:
               1
     1  C    0.103510
     2  N   -0.194793
     3  C    0.071765
     4  C    0.137352
     5  N   -0.117834
 Electronic spatial extent (au):  <R**2>=            517.2018
 Charge=             -0.0000 electrons
 Dipole moment (field-independent basis, Debye):
    X=              2.1233    Y=              0.0887    Z=              1.4844  Tot=              2.5922
 Quadrupole moment (field-independent basis, Debye-Ang):
   XX=            -33.8011   YY=            -29.8815   ZZ=            -34.0778
   XY=              1.8691   XZ=             -4.0304   YZ=             -1.6967
 Traceless Quadrupole moment (field-independent basis, Debye-Ang):
   XX=             -1.2143   YY=              2.7054   ZZ=             -1.4910
   XY=              1.8691   XZ=             -4.0304   YZ=             -1.6967
 Octapole moment (field-independent basis, Debye-Ang**2):
  XXX=             13.9552  YYY=             -4.4955  ZZZ=             -1.5659  XYY=             -3.3987
  XXY=             -2.2473  XXZ=              4.5607  XZZ=              3.2489  YZZ=              0.9519
  YYZ=             -1.3767  XYZ=             -0.3908
 Hexadecapole moment (field-independent basis, Debye-Ang**3):
 XXXX=           -434.9990 YYYY=           -143.2910 ZZZZ=           -104.8165 XXXY=              9.2961
 XXXZ=            -28.9416 YYYX=             10.6010 YYYZ=             -1.3225 ZZZX=             -6.1236
 ZZZY=             -3.4268 XXYY=            -83.2168 XXZZ=            -90.8156 YYZZ=            -39.1553
 XXYZ=             -4.9457 YYXZ=             -2.3454 ZZXY=              3.5394
 N-N= 1.947191920503D+02 E-N=-9.229418091585D+02  KE= 2.276142731963D+02
  Exact polarizability:   0.000   0.000   0.000   0.000   0.000   0.000
 Approx polarizability:  63.534   0.057  62.346  -2.250   0.608  60.696
 D2PCM: PCM CHGder 2nd derivatives, FixD1E=F FixD2E=F DoIter=F DoCFld=F I1PDM=0
 Calling FoFJK, ICntrl=    100147 FMM=F ISym2X=0 I1Cent= 0 IOpClX= 0 NMat=1 NMatS=1 NMatT=0.
 ***** Axes restored to original set *****
 -------------------------------------------------------------------
 Center     Atomic                   Forces (Hartrees/Bohr)
 Number     Number              X              Y              Z
 -------------------------------------------------------------------
      1        6           0.004938043   -0.000897695    0.007113210
      2        7          -0.009564894    0.001864087   -0.004009633
      3        6          -0.006133241   -0.004082686    0.006059612
      4        6           0.007139635    0.007415855    0.004817791
      5        7          -0.002641148   -0.003879546    0.011430385
      6        1           0.000260518    0.000403676    0.000001751
      7        1          -0.001434835   -0.001608185   -0.000641386
      8        1           0.004629783    0.002026625   -0.005781409
      9        1          -0.002202975    0.002872911   -0.001458223
     10        1           0.000325717    0.000143914   -0.006559000
     11        1           0.000187438    0.000485109    0.000998560
     12        1           0.005066522   -0.002074246   -0.006628636
     13        1           0.002183752   -0.002817302   -0.001707683
     14        1           0.000023134   -0.000630471    0.000392858
     15        1          -0.002777448    0.000777954   -0.004028197
 -------------------------------------------------------------------
 Cartesian Forces:  Max     0.011430385 RMS     0.004211690
 FormGI is forming the generalized inverse of G from B-inverse, IUseBI=4.

 GradGradGradGradGradGradGradGradGradGradGradGradGradGradGradGradGradGrad
 Berny optimization.
 Internal  Forces:  Max     0.008221010 RMS     0.003250687
 Search for a local minimum.
 Step number   1 out of a maximum of   75
 All quantities printed in internal units (Hartrees-Bohrs-Radians)
 Mixed Optimization -- RFO/linear search
 Second derivative matrix not updated -- analytic derivatives used.
 ITU=  0
     Eigenvalues ---    0.00132   0.00287   0.00469   0.00482   0.02486
     Eigenvalues ---    0.03621   0.04364   0.04485   0.04785   0.05336
     Eigenvalues ---    0.06246   0.06421   0.08126   0.08590   0.10222
     Eigenvalues ---    0.11568   0.13056   0.13159   0.15157   0.16553
     Eigenvalues ---    0.17487   0.17873   0.22356   0.23926   0.25512
     Eigenvalues ---    0.29778   0.32114   0.32265   0.32740   0.32925
     Eigenvalues ---    0.33119   0.33715   0.34006   0.35845   0.37528
     Eigenvalues ---    0.38197   0.42387   0.43365   0.44671
 RFO step:  Lambda=-4.35050803D-03 EMin= 1.31607994D-03
 Linear search not attempted -- first point.
 Iteration  1 RMS(Cart)=  0.06559096 RMS(Int)=  0.00229308
 Iteration  2 RMS(Cart)=  0.00298270 RMS(Int)=  0.00023250
 Iteration  3 RMS(Cart)=  0.00000862 RMS(Int)=  0.00023239
 Iteration  4 RMS(Cart)=  0.00000000 RMS(Int)=  0.00023239
 Variable       Old X    -DE/DX   Delta X   Delta X   Delta X     New X
                                 (Linear)    (Quad)   (Total)
    R1        2.75454   0.00583   0.00000   0.01047   0.01047   2.76500
    R2        2.06855   0.00025   0.00000  -0.00137  -0.00137   2.06718
    R3        2.06711  -0.00050   0.00000   0.00063   0.00063   2.06774
    R4        2.06884   0.00571   0.00000   0.01689   0.01689   2.08572
    R5        2.78835  -0.00372   0.00000  -0.01498  -0.01498   2.77337
    R6        1.92830  -0.00383   0.00000  -0.00811  -0.00811   1.92019
    R7        2.91606  -0.00822   0.00000  -0.02319  -0.02319   2.89287
    R8        2.07195   0.00466   0.00000   0.01521   0.01521   2.08716
    R9        2.07337  -0.00015   0.00000  -0.00220  -0.00220   2.07117
   R10        2.76872   0.00702   0.00000   0.00726   0.00726   2.77598
   R11        2.07007   0.00422   0.00000   0.01325   0.01325   2.08332
   R12        2.06861   0.00124   0.00000   0.00550   0.00550   2.07411
   R13        1.92214  -0.00070   0.00000   0.00053   0.00053   1.92267
   R14        1.93812  -0.00475   0.00000  -0.01071  -0.01071   1.92741
    A1        1.90630   0.00059   0.00000   0.00289   0.00260   1.90890
    A2        1.95051  -0.00476   0.00000  -0.02640  -0.02630   1.92421
    A3        1.94736   0.00706   0.00000   0.03664   0.03652   1.98389
    A4        1.86966   0.00098   0.00000   0.00646   0.00641   1.87607
    A5        1.88081  -0.00135   0.00000   0.00786   0.00740   1.88821
    A6        1.90629  -0.00264   0.00000  -0.02732  -0.02710   1.87918
    A7        1.95575   0.00621   0.00000   0.02927   0.02917   1.98492
    A8        1.89586  -0.00174   0.00000  -0.00404  -0.00423   1.89163
    A9        1.88764  -0.00207   0.00000   0.00186   0.00175   1.88939
   A10        1.97987  -0.00665   0.00000  -0.02533  -0.02538   1.95448
   A11        1.93601   0.00507   0.00000   0.02734   0.02688   1.96289
   A12        1.87275   0.00133   0.00000   0.00376   0.00364   1.87639
   A13        1.92490  -0.00163   0.00000  -0.02427  -0.02412   1.90078
   A14        1.88550   0.00237   0.00000   0.00668   0.00675   1.89225
   A15        1.85934  -0.00006   0.00000   0.01479   0.01463   1.87397
   A16        1.93866  -0.00586   0.00000  -0.02123  -0.02154   1.91713
   A17        1.91484  -0.00082   0.00000  -0.00157  -0.00176   1.91307
   A18        1.91896  -0.00171   0.00000  -0.03309  -0.03351   1.88546
   A19        1.90550   0.00762   0.00000   0.07238   0.07228   1.97778
   A20        1.90865   0.00260   0.00000   0.00329   0.00234   1.91099
   A21        1.87610  -0.00161   0.00000  -0.01891  -0.01962   1.85648
   A22        1.91210   0.00017   0.00000   0.00159   0.00158   1.91368
   A23        1.85891   0.00079   0.00000  -0.00500  -0.00500   1.85391
   A24        1.85857  -0.00073   0.00000  -0.00637  -0.00638   1.85219
    D1       -3.08958  -0.00113   0.00000   0.01769   0.01753  -3.07205
    D2       -1.00520  -0.00102   0.00000   0.03537   0.03521  -0.96998
    D3        1.12798   0.00018   0.00000   0.02398   0.02388   1.15186
    D4       -3.07082   0.00029   0.00000   0.04167   0.04156  -3.02926
    D5       -1.01206   0.00194   0.00000   0.05195   0.05221  -0.95985
    D6        1.07232   0.00204   0.00000   0.06963   0.06990   1.14221
    D7       -1.29719   0.00062   0.00000  -0.04575  -0.04554  -1.34273
    D8        0.88058  -0.00263   0.00000  -0.07583  -0.07605   0.80452
    D9        2.90495   0.00077   0.00000  -0.04140  -0.04123   2.86372
   D10        2.89680   0.00035   0.00000  -0.05978  -0.05967   2.83713
   D11       -1.20862  -0.00290   0.00000  -0.08985  -0.09018  -1.29880
   D12        0.81576   0.00050   0.00000  -0.05542  -0.05535   0.76040
   D13       -0.88985  -0.00236   0.00000  -0.10281  -0.10239  -0.99224
   D14        1.21851   0.00285   0.00000  -0.02697  -0.02696   1.19155
   D15       -3.00491  -0.00064   0.00000  -0.07082  -0.07079  -3.07571
   D16       -3.07360  -0.00277   0.00000  -0.10073  -0.10065   3.10894
   D17       -0.96524   0.00244   0.00000  -0.02490  -0.02522  -0.99046
   D18        1.09452  -0.00104   0.00000  -0.06874  -0.06905   1.02547
   D19        1.18387  -0.00317   0.00000  -0.10906  -0.10877   1.07510
   D20       -2.99096   0.00204   0.00000  -0.03323  -0.03334  -3.02429
   D21       -0.93119  -0.00144   0.00000  -0.07707  -0.07717  -1.00836
   D22        2.65942   0.00173   0.00000   0.12235   0.12246   2.78189
   D23        0.65583   0.00208   0.00000   0.13166   0.13177   0.78760
   D24        0.54557   0.00146   0.00000   0.09009   0.09020   0.63576
   D25       -1.45802   0.00181   0.00000   0.09940   0.09950  -1.35852
   D26       -1.50266  -0.00248   0.00000   0.06934   0.06913  -1.43353
   D27        2.77694  -0.00213   0.00000   0.07865   0.07844   2.85537
         Item               Value     Threshold  Converged?
 Maximum Force            0.008221     0.000450     NO 
 RMS     Force            0.003251     0.000300     NO 
 Maximum Displacement     0.261732     0.001800     NO 
 RMS     Displacement     0.065585     0.001200     NO 
 Predicted change in Energy=-2.529411D-03
 GradGradGradGradGradGradGradGradGradGradGradGradGradGradGradGradGradGrad

                          Input orientation:                          
 ---------------------------------------------------------------------
 Center     Atomic      Atomic             Coordinates (Angstroms)
 Number     Number       Type             X           Y           Z
 ---------------------------------------------------------------------
      1          6           0        1.721062    0.449852    0.669025
      2          7           0        0.608188   -0.413177    1.065985
      3          6           0       -0.134260   -0.978108   -0.066928
      4          6           0       -1.074369    0.047932   -0.704830
      5          7           0       -2.001319    0.571793    0.307224
      6          1           0        2.265610    0.773098    1.560993
      7          1           0        1.344535    1.347952    0.170107
      8          1           0        2.437760   -0.037476   -0.014383
      9          1           0        0.979428   -1.181254    1.618015
     10          1           0        0.532523   -1.386190   -0.847143
     11          1           0       -0.737351   -1.809450    0.315697
     12          1           0       -0.482022    0.833440   -1.202308
     13          1           0       -1.643173   -0.457991   -1.495504
     14          1           0       -2.379622    1.463430   -0.004292
     15          1           0       -1.436990    0.776149    1.131878
 ---------------------------------------------------------------------
                    Distance matrix (angstroms):
                    1          2          3          4          5
     1  C    0.000000
     2  N    1.463176   0.000000
     3  C    2.454163   1.467606   0.000000
     4  C    3.140613   2.485840   1.530843   0.000000
     5  N    3.741910   2.890572   2.455218   1.468986   0.000000
     6  H    1.093904   2.097458   3.387658   4.100643   4.451870
     7  H    1.094201   2.108644   2.766509   2.882128   3.437436
     8  H    1.103717   2.157703   2.739131   3.580371   4.492223
     9  H    2.027587   1.016120   2.029926   3.335354   3.698134
    10  H    2.661285   2.147682   1.104475   2.158486   3.403912
    11  H    3.357541   2.079179   1.096016   2.145908   2.695924
    12  H    2.915924   2.808517   2.166042   1.102444   2.157640
    13  H    4.102126   3.410551   2.142001   1.097570   2.106787
    14  H    4.277419   3.687025   3.317633   2.048921   1.017434
    15  H    3.208426   2.366768   2.492320   2.008803   1.019942
                    6          7          8          9         10
     6  H    0.000000
     7  H    1.764483   0.000000
     8  H    1.780022   1.774426   0.000000
     9  H    2.340301   2.937111   2.469754   0.000000
    10  H    3.669501   3.028150   2.478396   2.513707   0.000000
    11  H    4.151878   3.784790   3.651051   2.244547   1.773112
    12  H    3.897301   2.341913   3.270289   3.761522   2.466212
    13  H    5.112371   3.868085   4.361715   4.134627   2.452668
    14  H    4.950238   3.730027   5.045790   4.572685   4.160688
    15  H    3.727384   2.998140   4.121843   3.147512   3.531461
                   11         12         13         14         15
    11  H    0.000000
    12  H    3.058497   0.000000
    13  H    2.434626   1.761258   0.000000
    14  H    3.675757   2.330883   2.541246   0.000000
    15  H    2.800173   2.522632   2.910111   1.628432   0.000000
 Stoichiometry    C3H10N2
 Framework group  C1[X(C3H10N2)]
 Deg. of freedom    39
 Full point group                 C1      NOp   1
 Largest Abelian subgroup         C1      NOp   1
 Largest concise Abelian subgroup C1      NOp   1
                         Standard orientation:                         
 ---------------------------------------------------------------------
 Center     Atomic      Atomic             Coordinates (Angstroms)
 Number     Number       Type             X           Y           Z
 ---------------------------------------------------------------------
      1          6           0        1.852967   -0.549978    0.368580
      2          7           0        0.980749    0.048826   -0.642139
      3          6           0       -0.002387    0.989130   -0.091557
      4          6           0       -1.172199    0.266456    0.581321
      5          7           0       -1.812794   -0.644681   -0.376482
      6          1           0        2.599535   -1.180017   -0.123674
      7          1           0        1.271903   -1.190940    1.038512
      8          1           0        2.383873    0.191030    0.990865
      9          1           0        1.560549    0.549260   -1.309895
     10          1           0        0.446206    1.693818    0.630970
     11          1           0       -0.395125    1.581634   -0.925791
     12          1           0       -0.818575   -0.239056    1.494990
     13          1           0       -1.896842    1.023549    0.907455
     14          1           0       -2.341316   -1.353611    0.126763
     15          1           0       -1.056180   -1.138333   -0.849902
 ---------------------------------------------------------------------
 Rotational constants (GHZ):           8.8153189           3.0182452           2.8072181
 Standard basis: 6-31G(d,p) (6D, 7F)
 There are   125 symmetry adapted cartesian basis functions of A   symmetry.
 There are   125 symmetry adapted basis functions of A   symmetry.
   125 basis functions,   210 primitive gaussians,   125 cartesian basis functions
    21 alpha electrons       21 beta electrons
       nuclear repulsion energy       194.5854952087 Hartrees.
 NAtoms=   15 NActive=   15 NUniq=   15 SFac= 1.00D+00 NAtFMM=   60 NAOKFM=F Big=F
 Integral buffers will be    131072 words long.
 Raffenetti 2 integral format.
 Two-electron integral symmetry is turned on.
 ------------------------------------------------------------------------------
 Polarizable Continuum Model (PCM)
 =================================
 Model                : PCM.
 Atomic radii         : UFF (Universal Force Field).
 Polarization charges : Total charges.
 Charge compensation  : None.
 Solution method      : Matrix inversion.
 Cavity type          : Scaled VdW (van der Waals Surface) (Alpha=1.100).
 Cavity algorithm     : GePol (No added spheres)
                        Default sphere list used, NSphG=   15.
                        Lebedev-Laikov grids with approx.  5.0 points / Ang**2.
                        Smoothing algorithm: York/Karplus (Gamma=1.0000).
                        Polarization charges: spherical gaussians, with
                                              point-specific exponents (IZeta= 3).
                        Self-potential: point-specific (ISelfS= 7).
                        Self-field    : sphere-specific E.n sum rule (ISelfD= 2).
 1st derivatives      : Analytical E(r).r(x)/FMM algorithm (CHGder, D1EAlg=3).
                        Cavity 1st derivative terms included.
 Solvent              : Water, Eps=  78.355300 Eps(inf)=   1.777849
 ------------------------------------------------------------------------------
 Spheres list:
 ISph  on   Nord     Re0    Alpha      Xe            Ye            Ze
    1   C      1    1.9255  1.100      1.852967     -0.549978      0.368580
    2   N      2    1.8300  1.100      0.980749      0.048826     -0.642139
    3   C      3    1.9255  1.100     -0.002387      0.989130     -0.091557
    4   C      4    1.9255  1.100     -1.172199      0.266456      0.581321
    5   N      5    1.8300  1.100     -1.812794     -0.644681     -0.376482
    6   H      6    1.4430  1.100      2.599535     -1.180017     -0.123674
    7   H      7    1.4430  1.100      1.271903     -1.190940      1.038512
    8   H      8    1.4430  1.100      2.383873      0.191030      0.990865
    9   H      9    1.4430  1.100      1.560549      0.549260     -1.309895
   10   H     10    1.4430  1.100      0.446206      1.693818      0.630970
   11   H     11    1.4430  1.100     -0.395125      1.581634     -0.925791
   12   H     12    1.4430  1.100     -0.818575     -0.239056      1.494990
   13   H     13    1.4430  1.100     -1.896842      1.023549      0.907455
   14   H     14    1.4430  1.100     -2.341316     -1.353611      0.126763
   15   H     15    1.4430  1.100     -1.056180     -1.138333     -0.849902
 ------------------------------------------------------------------------------
 One-electron integrals computed using PRISM.
 NBasis=   125 RedAO= T EigKep=  4.69D-03  NBF=   125
 NBsUse=   125 1.00D-06 EigRej= -1.00D+00 NBFU=   125
 Initial guess from the checkpoint file:  "KFIGICHILYTCJF-UHFFFAOYSA-N_conf_1_0.chk"
 B after Tr=     0.000000    0.000000    0.000000
         Rot=    0.999778    0.018335   -0.010066   -0.002553 Ang=   2.41 deg.
 ExpMin= 1.61D-01 ExpMax= 4.17D+03 ExpMxC= 6.27D+02 IAcc=2 IRadAn=         4 AccDes= 0.00D+00
 Harris functional with IExCor=  402 and IRadAn=       4 diagonalized for initial guess.
 HarFok:  IExCor=  402 AccDes= 0.00D+00 IRadAn=         4 IDoV= 1 UseB2=F ITyADJ=14
 ICtDFT=  3500011 ScaDFX=  1.000000  1.000000  1.000000  1.000000
 FoFCou: FMM=F IPFlag=           0 FMFlag=      100000 FMFlg1=           0
         NFxFlg=           0 DoJE=T BraDBF=F KetDBF=T FulRan=T
         wScrn=  0.000000 ICntrl=       500 IOpCl=  0 I1Cent=   200000004 NGrid=           0
         NMat0=    1 NMatS0=      1 NMatT0=    0 NMatD0=    1 NMtDS0=    0 NMtDT0=    0
 Petite list used in FoFCou.
 Keep R1 ints in memory in canonical form, NReq=32913836.
 Requested convergence on RMS density matrix=1.00D-08 within  32 cycles.
 Requested convergence on MAX density matrix=1.00D-06.
 Requested convergence on             energy=1.00D-06.
 No special actions if energy rises.
 Inv3:  Mode=1 IEnd=     3995148.
 Iteration    1 A*A^-1 deviation from unit magnitude is 6.11D-15 for    926.
 Iteration    1 A*A^-1 deviation from orthogonality  is 3.61D-15 for   1087    380.
 Iteration    1 A^-1*A deviation from unit magnitude is 5.88D-15 for    926.
 Iteration    1 A^-1*A deviation from orthogonality  is 1.98D-15 for    981    227.
 Error on total polarization charges =  0.00743
 SCF Done:  E(RB3LYP) =  -229.844243974     A.U. after   10 cycles
            NFock= 10  Conv=0.18D-08     -V/T= 2.0098
 QCSCF skips out because SCF is already converged.
 D1PCM: PCM CHGder 1st derivatives, ID1Alg=3 FixD1E=F DoIter=F DoCFld=F I1PDM=0.
 Calling FoFJK, ICntrl=      2127 FMM=F ISym2X=0 I1Cent= 0 IOpClX= 0 NMat=1 NMatS=1 NMatT=0.
 ***** Axes restored to original set *****
 -------------------------------------------------------------------
 Center     Atomic                   Forces (Hartrees/Bohr)
 Number     Number              X              Y              Z
 -------------------------------------------------------------------
      1        6           0.000531539   -0.000425314    0.000452193
      2        7           0.000047385    0.000607412   -0.000777612
      3        6          -0.000051262   -0.001102290   -0.000005870
      4        6          -0.000325638    0.000493707    0.000019181
      5        7          -0.000203456   -0.000586473    0.000848240
      6        1           0.000093422   -0.000022187   -0.000017003
      7        1          -0.000010135    0.000052819    0.000103208
      8        1           0.000080621    0.000202288   -0.000407451
      9        1          -0.000425257    0.000185957    0.000581475
     10        1          -0.000177348   -0.000036509   -0.000459066
     11        1           0.000155044    0.000090613    0.000261747
     12        1           0.000473571   -0.000193646    0.000139602
     13        1           0.000342799    0.000333435   -0.000570229
     14        1          -0.000436420   -0.000240535   -0.000149083
     15        1          -0.000094865    0.000640725   -0.000019332
 -------------------------------------------------------------------
 Cartesian Forces:  Max     0.001102290 RMS     0.000393739

 GradGradGradGradGradGradGradGradGradGradGradGradGradGradGradGradGradGrad
 Berny optimization.
 Using GEDIIS/GDIIS optimizer.
 FormGI is forming the generalized inverse of G from B-inverse, IUseBI=4.
 Internal  Forces:  Max     0.000863640 RMS     0.000263413
 Search for a local minimum.
 Step number   2 out of a maximum of   75
 All quantities printed in internal units (Hartrees-Bohrs-Radians)
 Mixed Optimization -- En-DIIS/RFO-DIIS
 Update second derivatives using D2CorX and points    1    2
 DE= -2.52D-03 DEPred=-2.53D-03 R= 9.95D-01
 TightC=F SS=  1.41D+00  RLast= 4.04D-01 DXNew= 5.0454D-01 1.2105D+00
 Trust test= 9.95D-01 RLast= 4.04D-01 DXMaxT set to 5.05D-01
 ITU=  1  0
 Use linear search instead of GDIIS.
     Eigenvalues ---    0.00137   0.00288   0.00467   0.00481   0.02487
     Eigenvalues ---    0.03621   0.04361   0.04490   0.04775   0.05353
     Eigenvalues ---    0.06248   0.06411   0.08090   0.08582   0.10219
     Eigenvalues ---    0.11504   0.13046   0.13153   0.15162   0.16541
     Eigenvalues ---    0.17489   0.17793   0.22332   0.23913   0.25499
     Eigenvalues ---    0.29748   0.32127   0.32285   0.32711   0.32970
     Eigenvalues ---    0.33088   0.33710   0.33993   0.35925   0.37043
     Eigenvalues ---    0.38147   0.42431   0.43369   0.44670
 RFO step:  Lambda=-6.67505227D-04 EMin= 1.36799800D-03
 Quartic linear search produced a step of  0.17375.
 Iteration  1 RMS(Cart)=  0.10177050 RMS(Int)=  0.00553496
 Iteration  2 RMS(Cart)=  0.00635664 RMS(Int)=  0.00004962
 Iteration  3 RMS(Cart)=  0.00004643 RMS(Int)=  0.00003806
 Iteration  4 RMS(Cart)=  0.00000000 RMS(Int)=  0.00003806
 Variable       Old X    -DE/DX   Delta X   Delta X   Delta X     New X
                                 (Linear)    (Quad)   (Total)
    R1        2.76500   0.00038   0.00182  -0.00263  -0.00081   2.76419
    R2        2.06718   0.00002  -0.00024   0.00025   0.00001   2.06719
    R3        2.06774  -0.00000   0.00011   0.00046   0.00057   2.06831
    R4        2.08572   0.00022   0.00293  -0.00229   0.00064   2.08637
    R5        2.77337   0.00034  -0.00260   0.00401   0.00141   2.77478
    R6        1.92019   0.00002  -0.00141   0.00120  -0.00021   1.91998
    R7        2.89287   0.00034  -0.00403   0.00093  -0.00310   2.88978
    R8        2.08716   0.00023   0.00264  -0.00209   0.00056   2.08771
    R9        2.07117  -0.00006  -0.00038  -0.00010  -0.00048   2.07069
   R10        2.77598   0.00086   0.00126  -0.00372  -0.00246   2.77352
   R11        2.08332   0.00005   0.00230   0.00023   0.00254   2.08585
   R12        2.07411   0.00008   0.00096  -0.00199  -0.00103   2.07308
   R13        1.92267  -0.00000   0.00009   0.00127   0.00136   1.92403
   R14        1.92741   0.00006  -0.00186   0.00154  -0.00032   1.92709
    A1        1.90890   0.00007   0.00045   0.00044   0.00085   1.90975
    A2        1.92421  -0.00013  -0.00457   0.00728   0.00273   1.92694
    A3        1.98389   0.00033   0.00635  -0.00643  -0.00010   1.98378
    A4        1.87607  -0.00005   0.00111  -0.00205  -0.00094   1.87513
    A5        1.88821  -0.00005   0.00129  -0.00078   0.00042   1.88863
    A6        1.87918  -0.00019  -0.00471   0.00157  -0.00309   1.87609
    A7        1.98492   0.00036   0.00507  -0.00326   0.00178   1.98670
    A8        1.89163  -0.00013  -0.00074   0.00162   0.00084   1.89247
    A9        1.88939  -0.00003   0.00030   0.00424   0.00452   1.89391
   A10        1.95448  -0.00011  -0.00441   0.00000  -0.00442   1.95006
   A11        1.96289   0.00010   0.00467  -0.00597  -0.00137   1.96152
   A12        1.87639   0.00006   0.00063   0.00234   0.00293   1.87932
   A13        1.90078  -0.00004  -0.00419   0.00894   0.00478   1.90556
   A14        1.89225  -0.00003   0.00117  -0.00597  -0.00478   1.88746
   A15        1.87397   0.00002   0.00254   0.00040   0.00292   1.87689
   A16        1.91713   0.00011  -0.00374  -0.00459  -0.00839   1.90874
   A17        1.91307  -0.00027  -0.00031  -0.00269  -0.00302   1.91005
   A18        1.88546  -0.00010  -0.00582   0.01455   0.00863   1.89409
   A19        1.97778   0.00041   0.01256  -0.00370   0.00883   1.98661
   A20        1.91099  -0.00006   0.00041  -0.00567  -0.00541   1.90558
   A21        1.85648  -0.00011  -0.00341   0.00335  -0.00018   1.85630
   A22        1.91368   0.00009   0.00027  -0.00264  -0.00237   1.91131
   A23        1.85391   0.00043  -0.00087   0.00200   0.00113   1.85505
   A24        1.85219  -0.00019  -0.00111   0.00281   0.00170   1.85389
    D1       -3.07205   0.00002   0.00305   0.01755   0.02057  -3.05148
    D2       -0.96998   0.00012   0.00612   0.02197   0.02806  -0.94193
    D3        1.15186   0.00011   0.00415   0.01545   0.01958   1.17144
    D4       -3.02926   0.00021   0.00722   0.01987   0.02707  -3.00219
    D5       -0.95985   0.00023   0.00907   0.01254   0.02166  -0.93819
    D6        1.14221   0.00032   0.01214   0.01695   0.02915   1.17136
    D7       -1.34273  -0.00028  -0.00791  -0.06989  -0.07777  -1.42050
    D8        0.80452  -0.00035  -0.01321  -0.06259  -0.07584   0.72868
    D9        2.86372  -0.00022  -0.00716  -0.06406  -0.07119   2.79254
   D10        2.83713  -0.00032  -0.01037  -0.07284  -0.08319   2.75394
   D11       -1.29880  -0.00039  -0.01567  -0.06554  -0.08127  -1.38007
   D12        0.76040  -0.00026  -0.00962  -0.06701  -0.07661   0.68379
   D13       -0.99224  -0.00041  -0.01779  -0.07795  -0.09569  -1.08793
   D14        1.19155  -0.00000  -0.00468  -0.08767  -0.09236   1.09919
   D15       -3.07571  -0.00034  -0.01230  -0.07713  -0.08943   3.11805
   D16        3.10894  -0.00044  -0.01749  -0.07683  -0.09431   3.01462
   D17       -0.99046  -0.00003  -0.00438  -0.08655  -0.09098  -1.08144
   D18        1.02547  -0.00036  -0.01200  -0.07601  -0.08805   0.93742
   D19        1.07510  -0.00043  -0.01890  -0.07889  -0.09774   0.97736
   D20       -3.02429  -0.00002  -0.00579  -0.08861  -0.09441  -3.11870
   D21       -1.00836  -0.00035  -0.01341  -0.07807  -0.09148  -1.09984
   D22        2.78189   0.00040   0.02128   0.16885   0.19012   2.97201
   D23        0.78760   0.00035   0.02290   0.16580   0.18869   0.97630
   D24        0.63576   0.00038   0.01567   0.17841   0.19411   0.82987
   D25       -1.35852   0.00033   0.01729   0.17536   0.19267  -1.16584
   D26       -1.43353   0.00030   0.01201   0.18043   0.19242  -1.24111
   D27        2.85537   0.00025   0.01363   0.17738   0.19099   3.04636
         Item               Value     Threshold  Converged?
 Maximum Force            0.000864     0.000450     NO 
 RMS     Force            0.000263     0.000300     YES
 Maximum Displacement     0.405514     0.001800     NO 
 RMS     Displacement     0.102155     0.001200     NO 
 Predicted change in Energy=-4.993582D-04
 GradGradGradGradGradGradGradGradGradGradGradGradGradGradGradGradGradGrad

                          Input orientation:                          
 ---------------------------------------------------------------------
 Center     Atomic      Atomic             Coordinates (Angstroms)
 Number     Number       Type             X           Y           Z
 ---------------------------------------------------------------------
      1          6           0        1.794514    0.410411    0.650608
      2          7           0        0.627511   -0.369910    1.061500
      3          6           0       -0.128160   -0.942293   -0.059834
      4          6           0       -1.076015    0.081870   -0.685235
      5          7           0       -2.065952    0.502135    0.313513
      6          1           0        2.353164    0.723694    1.537399
      7          1           0        1.481075    1.316837    0.123269
      8          1           0        2.483178   -0.139205   -0.014679
      9          1           0        0.942715   -1.128856    1.658929
     10          1           0        0.531112   -1.353629   -0.845124
     11          1           0       -0.730284   -1.769475    0.332477
     12          1           0       -0.488868    0.914944   -1.109016
     13          1           0       -1.593569   -0.391750   -1.528611
     14          1           0       -2.594211    1.295588   -0.044272
     15          1           0       -1.536212    0.849640    1.112611
 ---------------------------------------------------------------------
                    Distance matrix (angstroms):
                    1          2          3          4          5
     1  C    0.000000
     2  N    1.462747   0.000000
     3  C    2.455852   1.468350   0.000000
     4  C    3.183135   2.481368   1.529203   0.000000
     5  N    3.876241   2.928257   2.445567   1.467684   0.000000
     6  H    1.093908   2.097696   3.388751   4.136582   4.590814
     7  H    1.094504   2.110441   2.779718   2.952547   3.644356
     8  H    1.104057   2.157518   2.732412   3.628550   4.605823
     9  H    2.027712   1.016009   2.033648   3.322082   3.677275
    10  H    2.635382   2.147606   1.104770   2.160805   3.395739
    11  H    3.350778   2.081793   1.095761   2.140734   2.635257
    12  H    2.926545   2.758313   2.163382   1.103787   2.163607
    13  H    4.107501   3.412089   2.146585   1.097024   2.101333
    14  H    4.530707   3.791584   3.330129   2.046672   1.018153
    15  H    3.391181   2.484273   2.562862   2.008358   1.019775
                    6          7          8          9         10
     6  H    0.000000
     7  H    1.764120   0.000000
     8  H    1.780574   1.772935   0.000000
     9  H    2.331540   2.937600   2.480604   0.000000
    10  H    3.648502   2.995264   2.444387   2.547591   0.000000
    11  H    4.144319   3.802525   3.620032   2.229079   1.775047
    12  H    3.888089   2.358118   3.337943   3.726670   2.501284
    13  H    5.120678   3.886054   4.356104   4.139623   2.430358
    14  H    5.225445   4.078784   5.276305   4.613965   4.174609
    15  H    3.914531   3.209532   4.289999   3.218383   3.600132
                   11         12         13         14         15
    11  H    0.000000
    12  H    3.056516   0.000000
    13  H    2.471242   1.761782   0.000000
    14  H    3.607045   2.389779   2.460012   0.000000
    15  H    2.849191   2.456995   2.918972   1.629911   0.000000
 Stoichiometry    C3H10N2
 Framework group  C1[X(C3H10N2)]
 Deg. of freedom    39
 Full point group                 C1      NOp   1
 Largest Abelian subgroup         C1      NOp   1
 Largest concise Abelian subgroup C1      NOp   1
                         Standard orientation:                         
 ---------------------------------------------------------------------
 Center     Atomic      Atomic             Coordinates (Angstroms)
 Number     Number       Type             X           Y           Z
 ---------------------------------------------------------------------
      1          6           0        1.925879   -0.487232    0.374480
      2          7           0        0.975328   -0.031143   -0.639454
      3          6           0        0.000119    0.946941   -0.141085
      4          6           0       -1.158634    0.268637    0.590802
      5          7           0       -1.881493   -0.602001   -0.343842
      6          1           0        2.670942   -1.138232   -0.092120
      7          1           0        1.412360   -1.074227    1.142383
      8          1           0        2.457348    0.334733    0.885221
      9          1           0        1.497044    0.392875   -1.401224
     10          1           0        0.460551    1.697995    0.525577
     11          1           0       -0.408485    1.480148   -1.006778
     12          1           0       -0.773187   -0.256414    1.481924
     13          1           0       -1.839777    1.045172    0.960260
     14          1           0       -2.547756   -1.174567    0.170840
     15          1           0       -1.190074   -1.245545   -0.728200
 ---------------------------------------------------------------------
 Rotational constants (GHZ):           9.3459759           2.8735293           2.7323763
 Standard basis: 6-31G(d,p) (6D, 7F)
 There are   125 symmetry adapted cartesian basis functions of A   symmetry.
 There are   125 symmetry adapted basis functions of A   symmetry.
   125 basis functions,   210 primitive gaussians,   125 cartesian basis functions
    21 alpha electrons       21 beta electrons
       nuclear repulsion energy       193.8786231342 Hartrees.
 NAtoms=   15 NActive=   15 NUniq=   15 SFac= 1.00D+00 NAtFMM=   60 NAOKFM=F Big=F
 Integral buffers will be    131072 words long.
 Raffenetti 2 integral format.
 Two-electron integral symmetry is turned on.
 ------------------------------------------------------------------------------
 Polarizable Continuum Model (PCM)
 =================================
 Model                : PCM.
 Atomic radii         : UFF (Universal Force Field).
 Polarization charges : Total charges.
 Charge compensation  : None.
 Solution method      : Matrix inversion.
 Cavity type          : Scaled VdW (van der Waals Surface) (Alpha=1.100).
 Cavity algorithm     : GePol (No added spheres)
                        Default sphere list used, NSphG=   15.
                        Lebedev-Laikov grids with approx.  5.0 points / Ang**2.
                        Smoothing algorithm: York/Karplus (Gamma=1.0000).
                        Polarization charges: spherical gaussians, with
                                              point-specific exponents (IZeta= 3).
                        Self-potential: point-specific (ISelfS= 7).
                        Self-field    : sphere-specific E.n sum rule (ISelfD= 2).
 1st derivatives      : Analytical E(r).r(x)/FMM algorithm (CHGder, D1EAlg=3).
                        Cavity 1st derivative terms included.
 Solvent              : Water, Eps=  78.355300 Eps(inf)=   1.777849
 ------------------------------------------------------------------------------
 Spheres list:
 ISph  on   Nord     Re0    Alpha      Xe            Ye            Ze
    1   C      1    1.9255  1.100      1.925879     -0.487232      0.374480
    2   N      2    1.8300  1.100      0.975328     -0.031143     -0.639454
    3   C      3    1.9255  1.100      0.000119      0.946941     -0.141085
    4   C      4    1.9255  1.100     -1.158634      0.268637      0.590802
    5   N      5    1.8300  1.100     -1.881493     -0.602001     -0.343842
    6   H      6    1.4430  1.100      2.670942     -1.138232     -0.092120
    7   H      7    1.4430  1.100      1.412360     -1.074227      1.142383
    8   H      8    1.4430  1.100      2.457348      0.334733      0.885221
    9   H      9    1.4430  1.100      1.497044      0.392875     -1.401224
   10   H     10    1.4430  1.100      0.460551      1.697995      0.525577
   11   H     11    1.4430  1.100     -0.408485      1.480148     -1.006778
   12   H     12    1.4430  1.100     -0.773187     -0.256414      1.481924
   13   H     13    1.4430  1.100     -1.839777      1.045172      0.960260
   14   H     14    1.4430  1.100     -2.547756     -1.174567      0.170840
   15   H     15    1.4430  1.100     -1.190074     -1.245545     -0.728200
 ------------------------------------------------------------------------------
 One-electron integrals computed using PRISM.
 NBasis=   125 RedAO= T EigKep=  4.72D-03  NBF=   125
 NBsUse=   125 1.00D-06 EigRej= -1.00D+00 NBFU=   125
 Initial guess from the checkpoint file:  "KFIGICHILYTCJF-UHFFFAOYSA-N_conf_1_0.chk"
 B after Tr=    -0.000000    0.000000    0.000000
         Rot=    0.999542    0.028800   -0.008840    0.002952 Ang=   3.47 deg.
 ExpMin= 1.61D-01 ExpMax= 4.17D+03 ExpMxC= 6.27D+02 IAcc=2 IRadAn=         4 AccDes= 0.00D+00
 Harris functional with IExCor=  402 and IRadAn=       4 diagonalized for initial guess.
 HarFok:  IExCor=  402 AccDes= 0.00D+00 IRadAn=         4 IDoV= 1 UseB2=F ITyADJ=14
 ICtDFT=  3500011 ScaDFX=  1.000000  1.000000  1.000000  1.000000
 FoFCou: FMM=F IPFlag=           0 FMFlag=      100000 FMFlg1=           0
         NFxFlg=           0 DoJE=T BraDBF=F KetDBF=T FulRan=T
         wScrn=  0.000000 ICntrl=       500 IOpCl=  0 I1Cent=   200000004 NGrid=           0
         NMat0=    1 NMatS0=      1 NMatT0=    0 NMatD0=    1 NMtDS0=    0 NMtDT0=    0
 Petite list used in FoFCou.
 Keep R1 ints in memory in canonical form, NReq=32913836.
 Requested convergence on RMS density matrix=1.00D-08 within  32 cycles.
 Requested convergence on MAX density matrix=1.00D-06.
 Requested convergence on             energy=1.00D-06.
 No special actions if energy rises.
 Inv3:  Mode=1 IEnd=     3995148.
 Iteration    1 A*A^-1 deviation from unit magnitude is 5.77D-15 for    494.
 Iteration    1 A*A^-1 deviation from orthogonality  is 2.80D-15 for    789     81.
 Iteration    1 A^-1*A deviation from unit magnitude is 5.77D-15 for    208.
 Iteration    1 A^-1*A deviation from orthogonality  is 1.12D-14 for   1021    981.
 Error on total polarization charges =  0.00743
 SCF Done:  E(RB3LYP) =  -229.844544267     A.U. after   10 cycles
            NFock= 10  Conv=0.15D-08     -V/T= 2.0098
 QCSCF skips out because SCF is already converged.
 D1PCM: PCM CHGder 1st derivatives, ID1Alg=3 FixD1E=F DoIter=F DoCFld=F I1PDM=0.
 Calling FoFJK, ICntrl=      2127 FMM=F ISym2X=0 I1Cent= 0 IOpClX= 0 NMat=1 NMatS=1 NMatT=0.
 ***** Axes restored to original set *****
 -------------------------------------------------------------------
 Center     Atomic                   Forces (Hartrees/Bohr)
 Number     Number              X              Y              Z
 -------------------------------------------------------------------
      1        6           0.000244725   -0.000286349    0.000179730
      2        7          -0.000183905    0.000361263   -0.000084995
      3        6           0.000662788   -0.000549059   -0.000276701
      4        6          -0.000096840   -0.000770597   -0.000221981
      5        7          -0.000022078    0.001105640    0.000162371
      6        1           0.000047865    0.000017433    0.000021874
      7        1          -0.000179842   -0.000016135   -0.000014925
      8        1           0.000155716    0.000052733   -0.000165416
      9        1          -0.000106757    0.000122714    0.000035227
     10        1           0.000191375   -0.000061613   -0.000112393
     11        1           0.000139689    0.000010436   -0.000202408
     12        1          -0.000164083   -0.000089147    0.000180148
     13        1           0.000006860   -0.000078828   -0.000048223
     14        1           0.000275090    0.000166541    0.000329799
     15        1          -0.000970604    0.000014967    0.000217893
 -------------------------------------------------------------------
 Cartesian Forces:  Max     0.001105640 RMS     0.000318828

 GradGradGradGradGradGradGradGradGradGradGradGradGradGradGradGradGradGrad
 Berny optimization.
 Using GEDIIS/GDIIS optimizer.
 FormGI is forming the generalized inverse of G from B-inverse, IUseBI=4.
 Internal  Forces:  Max     0.001658397 RMS     0.000391966
 Search for a local minimum.
 Step number   3 out of a maximum of   75
 All quantities printed in internal units (Hartrees-Bohrs-Radians)
 Mixed Optimization -- En-DIIS/RFO-DIIS
 Swapping is turned off.
 Update second derivatives using D2CorX and points    2    3
 DE= -3.00D-04 DEPred=-4.99D-04 R= 6.01D-01
 TightC=F SS=  1.41D+00  RLast= 5.81D-01 DXNew= 8.4853D-01 1.7437D+00
 Trust test= 6.01D-01 RLast= 5.81D-01 DXMaxT set to 8.49D-01
 ITU=  1  1  0
     Eigenvalues ---    0.00242   0.00303   0.00421   0.00474   0.02487
     Eigenvalues ---    0.03620   0.04366   0.04494   0.04775   0.05365
     Eigenvalues ---    0.06247   0.06404   0.08082   0.08584   0.10218
     Eigenvalues ---    0.11478   0.13038   0.13153   0.15214   0.16540
     Eigenvalues ---    0.17627   0.17859   0.22331   0.23996   0.25555
     Eigenvalues ---    0.29826   0.32128   0.32305   0.32706   0.32974
     Eigenvalues ---    0.33088   0.33708   0.33992   0.35924   0.36857
     Eigenvalues ---    0.38177   0.42427   0.43373   0.44670
 En-DIIS/RFO-DIIS/Sim-DIIS IScMMF=       -3 using points:     3    2
 RFO step:  Lambda=-8.71904474D-05.
 DidBck=F Rises=F RFO-DIIS coefs:    0.84690    0.15310
 Iteration  1 RMS(Cart)=  0.01387973 RMS(Int)=  0.00025703
 Iteration  2 RMS(Cart)=  0.00026528 RMS(Int)=  0.00000399
 Iteration  3 RMS(Cart)=  0.00000008 RMS(Int)=  0.00000399
 Variable       Old X    -DE/DX   Delta X   Delta X   Delta X     New X
                                 (Linear)    (Quad)   (Total)
    R1        2.76419   0.00009   0.00012  -0.00030  -0.00018   2.76401
    R2        2.06719   0.00005  -0.00000   0.00001   0.00001   2.06720
    R3        2.06831   0.00005  -0.00009   0.00041   0.00032   2.06864
    R4        2.08637   0.00017  -0.00010   0.00073   0.00063   2.08700
    R5        2.77478   0.00008  -0.00022  -0.00049  -0.00071   2.77407
    R6        1.91998  -0.00011   0.00003  -0.00040  -0.00037   1.91961
    R7        2.88978   0.00058   0.00047   0.00179   0.00227   2.89204
    R8        2.08771   0.00022  -0.00009   0.00068   0.00059   2.08830
    R9        2.07069  -0.00016   0.00007  -0.00048  -0.00041   2.07028
   R10        2.77352   0.00133   0.00038   0.00288   0.00326   2.77678
   R11        2.08585  -0.00022  -0.00039  -0.00049  -0.00088   2.08498
   R12        2.07308   0.00007   0.00016   0.00029   0.00044   2.07352
   R13        1.92403  -0.00013  -0.00021  -0.00025  -0.00046   1.92357
   R14        1.92709  -0.00033   0.00005  -0.00063  -0.00058   1.92651
    A1        1.90975   0.00006  -0.00013   0.00073   0.00060   1.91034
    A2        1.92694  -0.00033  -0.00042  -0.00191  -0.00232   1.92461
    A3        1.98378   0.00026   0.00002   0.00155   0.00157   1.98535
    A4        1.87513   0.00008   0.00014   0.00026   0.00041   1.87553
    A5        1.88863  -0.00006  -0.00007   0.00048   0.00041   1.88905
    A6        1.87609  -0.00001   0.00047  -0.00115  -0.00068   1.87541
    A7        1.98670  -0.00002  -0.00027   0.00095   0.00067   1.98738
    A8        1.89247  -0.00003  -0.00013   0.00155   0.00142   1.89389
    A9        1.89391   0.00004  -0.00069   0.00235   0.00166   1.89557
   A10        1.95006  -0.00044   0.00068  -0.00254  -0.00187   1.94820
   A11        1.96152   0.00005   0.00021   0.00075   0.00096   1.96248
   A12        1.87932   0.00021  -0.00045   0.00126   0.00081   1.88013
   A13        1.90556   0.00024  -0.00073  -0.00078  -0.00151   1.90405
   A14        1.88746   0.00006   0.00073   0.00170   0.00244   1.88990
   A15        1.87689  -0.00011  -0.00045  -0.00021  -0.00066   1.87623
   A16        1.90874   0.00166   0.00128   0.00678   0.00806   1.91680
   A17        1.91005  -0.00061   0.00046  -0.00431  -0.00384   1.90620
   A18        1.89409  -0.00035  -0.00132   0.00030  -0.00104   1.89305
   A19        1.98661  -0.00062  -0.00135  -0.00288  -0.00422   1.98239
   A20        1.90558  -0.00038   0.00083   0.00095   0.00176   1.90734
   A21        1.85630   0.00026   0.00003  -0.00095  -0.00093   1.85537
   A22        1.91131   0.00001   0.00036  -0.00108  -0.00071   1.91060
   A23        1.85505   0.00154  -0.00017   0.00525   0.00508   1.86013
   A24        1.85389  -0.00059  -0.00026  -0.00448  -0.00474   1.84914
    D1       -3.05148  -0.00006  -0.00315   0.00883   0.00568  -3.04580
    D2       -0.94193  -0.00004  -0.00430   0.01355   0.00926  -0.93267
    D3        1.17144   0.00001  -0.00300   0.00921   0.00621   1.17765
    D4       -3.00219   0.00002  -0.00414   0.01393   0.00979  -2.99241
    D5       -0.93819   0.00008  -0.00332   0.01102   0.00771  -0.93049
    D6        1.17136   0.00009  -0.00446   0.01574   0.01128   1.18264
    D7       -1.42050  -0.00012   0.01191  -0.02153  -0.00963  -1.43013
    D8        0.72868  -0.00010   0.01161  -0.02391  -0.01230   0.71638
    D9        2.79254  -0.00007   0.01090  -0.02293  -0.01203   2.78051
   D10        2.75394  -0.00009   0.01274  -0.02581  -0.01307   2.74087
   D11       -1.38007  -0.00007   0.01244  -0.02818  -0.01574  -1.39581
   D12        0.68379  -0.00004   0.01173  -0.02720  -0.01548   0.66832
   D13       -1.08793   0.00010   0.01465  -0.00314   0.01152  -1.07642
   D14        1.09919   0.00003   0.01414  -0.00508   0.00906   1.10825
   D15        3.11805  -0.00019   0.01369  -0.00838   0.00531   3.12336
   D16        3.01462   0.00017   0.01444  -0.00175   0.01269   3.02731
   D17       -1.08144   0.00010   0.01393  -0.00369   0.01023  -1.07121
   D18        0.93742  -0.00012   0.01348  -0.00699   0.00648   0.94391
   D19        0.97736   0.00014   0.01496  -0.00202   0.01295   0.99031
   D20       -3.11870   0.00006   0.01445  -0.00396   0.01048  -3.10821
   D21       -1.09984  -0.00016   0.01401  -0.00726   0.00674  -1.09310
   D22        2.97201  -0.00019  -0.02911  -0.01909  -0.04821   2.92380
   D23        0.97630  -0.00031  -0.02889  -0.01609  -0.04498   0.93131
   D24        0.82987  -0.00020  -0.02972  -0.01657  -0.04628   0.78358
   D25       -1.16584  -0.00032  -0.02950  -0.01356  -0.04306  -1.20891
   D26       -1.24111   0.00014  -0.02946  -0.01419  -0.04364  -1.28475
   D27        3.04636   0.00002  -0.02924  -0.01118  -0.04042   3.00595
         Item               Value     Threshold  Converged?
 Maximum Force            0.001658     0.000450     NO 
 RMS     Force            0.000392     0.000300     NO 
 Maximum Displacement     0.058367     0.001800     NO 
 RMS     Displacement     0.013856     0.001200     NO 
 Predicted change in Energy=-4.421734D-05
 GradGradGradGradGradGradGradGradGradGradGradGradGradGradGradGradGradGrad

                          Input orientation:                          
 ---------------------------------------------------------------------
 Center     Atomic      Atomic             Coordinates (Angstroms)
 Number     Number       Type             X           Y           Z
 ---------------------------------------------------------------------
      1          6           0        1.793330    0.412008    0.650752
      2          7           0        0.624260   -0.366223    1.059388
      3          6           0       -0.126205   -0.944140   -0.062113
      4          6           0       -1.080868    0.075770   -0.687044
      5          7           0       -2.070069    0.508364    0.309704
      6          1           0        2.351118    0.724859    1.538246
      7          1           0        1.479988    1.318588    0.123264
      8          1           0        2.482658   -0.137002   -0.014902
      9          1           0        0.934535   -1.120609    1.664788
     10          1           0        0.535965   -1.348825   -0.848860
     11          1           0       -0.720922   -1.777148    0.328562
     12          1           0       -0.494837    0.906088   -1.116532
     13          1           0       -1.598909   -0.402757   -1.527653
[...]
 End of Minotr F.D. properties file   722 does not exist.
 End of Minotr F.D. properties file   788 does not exist.

 **********************************************************************

            Population analysis using the CI density.

 **********************************************************************

 Orbital symmetries:
       Occupied  (A) (A) (A) (A) (A) (A) (A) (A) (A) (A) (A) (A)
                 (A) (A) (A) (A) (A) (A) (A) (A) (A)
       Virtual   (A) (A) (A) (A) (A) (A) (A) (A) (A) (A) (A) (A)
                 (A) (A) (A) (A) (A) (A) (A) (A) (A) (A) (A) (A)
                 (A) (A) (A) (A) (A) (A) (A) (A) (A) (A) (A) (A)
                 (A) (A) (A) (A) (A) (A) (A) (A) (A) (A) (A) (A)
                 (A) (A) (A) (A) (A) (A) (A) (A) (A) (A) (A) (A)
                 (A) (A) (A) (A) (A) (A) (A) (A) (A) (A) (A) (A)
                 (A) (A) (A) (A) (A) (A) (A) (A) (A) (A) (A) (A)
                 (A) (A) (A) (A) (A) (A) (A) (A) (A) (A) (A) (A)
                 (A) (A) (A) (A) (A) (A) (A) (A)
 The electronic state is 1-A.
 Alpha  occ. eigenvalues --  -14.31777 -14.30277 -10.20139 -10.19894 -10.19795
 Alpha  occ. eigenvalues --   -0.90085  -0.86084  -0.71638  -0.65581  -0.57472
 Alpha  occ. eigenvalues --   -0.49773  -0.48009  -0.43934  -0.42826  -0.41632
 Alpha  occ. eigenvalues --   -0.38057  -0.36692  -0.34354  -0.33752  -0.23709
 Alpha  occ. eigenvalues --   -0.22060
 Alpha virt. eigenvalues --    0.08254   0.10902   0.12898   0.14281   0.15166
 Alpha virt. eigenvalues --    0.16882   0.17583   0.18321   0.19934   0.21831
 Alpha virt. eigenvalues --    0.22261   0.24224   0.25630   0.28280   0.51239
 Alpha virt. eigenvalues --    0.52786   0.55228   0.57666   0.58446   0.59957
 Alpha virt. eigenvalues --    0.63890   0.67632   0.72391   0.73988   0.76355
 Alpha virt. eigenvalues --    0.78241   0.80969   0.82383   0.84654   0.86299
 Alpha virt. eigenvalues --    0.88442   0.89646   0.90237   0.91856   0.94665
 Alpha virt. eigenvalues --    0.95589   0.96820   0.99594   1.04589   1.09502
 Alpha virt. eigenvalues --    1.19976   1.30031   1.30677   1.39139   1.43270
 Alpha virt. eigenvalues --    1.50052   1.54252   1.60082   1.68689   1.74591
 Alpha virt. eigenvalues --    1.78071   1.83982   1.85768   1.88608   1.91947
 Alpha virt. eigenvalues --    1.93568   1.98894   2.02198   2.03721   2.05106
 Alpha virt. eigenvalues --    2.07574   2.10439   2.13624   2.14550   2.20754
 Alpha virt. eigenvalues --    2.24571   2.28662   2.33096   2.34888   2.36494
 Alpha virt. eigenvalues --    2.38942   2.40681   2.42085   2.50598   2.55501
 Alpha virt. eigenvalues --    2.57280   2.60744   2.64762   2.70038   2.71202
 Alpha virt. eigenvalues --    2.76177   2.76585   2.82844   2.87123   2.88690
 Alpha virt. eigenvalues --    2.91522   2.94654   2.97802   3.02214   3.17971
 Alpha virt. eigenvalues --    3.28640   3.30135   3.31964   3.34251   3.41822
 Alpha virt. eigenvalues --    3.44194   3.51256   3.53048   3.56779   3.97918
 Alpha virt. eigenvalues --    4.08398   4.43987   4.47936   4.64990
          Condensed to atoms (all electrons):
               1          2          3          4          5          6
     1  C    5.732253   0.315764  -0.067586   0.002002  -0.001072   0.011033
     2  N    0.315764   7.750760   0.335847  -0.062871   0.006772  -0.162186
     3  C   -0.067586   0.335847   5.404370   0.412619  -0.027787   0.010386
     4  C    0.002002  -0.062871   0.412619   5.109416   0.330117  -0.000352
     5  N   -0.001072   0.006772  -0.027787   0.330117   7.232592  -0.000477
     6  H    0.011033  -0.162186   0.010386  -0.000352  -0.000477   0.863493
     7  H    0.066336  -0.105693   0.007089  -0.014238  -0.005092   0.074139
     8  H    0.168120  -0.101393  -0.003759  -0.002907  -0.000193   0.048291
     9  H   -0.054201  -0.514092  -0.108036   0.010960  -0.006953   0.099542
    10  H   -0.009524  -0.093064   0.227295  -0.061149  -0.000357   0.004112
    11  H    0.012450  -0.164249   0.067551  -0.031221  -0.020447   0.001715
    12  H   -0.009742  -0.020622  -0.065007   0.215739  -0.097365   0.002352
    13  H    0.000303   0.000249  -0.114805   0.212814  -0.086061   0.000110
    14  H    0.000024  -0.000564  -0.000791  -0.062740   0.106465   0.000082
    15  H   -0.000003  -0.017916  -0.031017  -0.035159   0.096781   0.002490
               7          8          9         10         11         12
     1  C    0.066336   0.168120  -0.054201  -0.009524   0.012450  -0.009742
     2  N   -0.105693  -0.101393  -0.514092  -0.093064  -0.164249  -0.020622
     3  C    0.007089  -0.003759  -0.108036   0.227295   0.067551  -0.065007
     4  C   -0.014238  -0.002907   0.010960  -0.061149  -0.031221   0.215739
     5  N   -0.005092  -0.000193  -0.006953  -0.000357  -0.020447  -0.097365
     6  H    0.074139   0.048291   0.099542   0.004112   0.001715   0.002352
     7  H    0.746716   0.040072   0.039342   0.012707   0.003730   0.038051
     8  H    0.040072   0.638616   0.054603   0.022670   0.004234   0.004506
     9  H    0.039342   0.054603   1.288808   0.048490   0.109168   0.005979
    10  H    0.012707   0.022670   0.048490   0.643831   0.037922   0.016358
    11  H    0.003730   0.004234   0.109168   0.037922   0.862010   0.019003
    12  H    0.038051   0.004506   0.005979   0.016358   0.019003   0.763760
    13  H    0.002275   0.000601   0.002437   0.024653   0.031324   0.018815
    14  H    0.001556   0.000049   0.000792   0.000723   0.004597   0.025920
    15  H    0.009238   0.000707   0.018776   0.003468   0.019769   0.022818
              13         14         15
     1  C    0.000303   0.000024  -0.000003
     2  N    0.000249  -0.000564  -0.017916
     3  C   -0.114805  -0.000791  -0.031017
     4  C    0.212814  -0.062740  -0.035159
     5  N   -0.086061   0.106465   0.096781
     6  H    0.000110   0.000082   0.002490
     7  H    0.002275   0.001556   0.009238
     8  H    0.000601   0.000049   0.000707
     9  H    0.002437   0.000792   0.018776
    10  H    0.024653   0.000723   0.003468
    11  H    0.031324   0.004597   0.019769
    12  H    0.018815   0.025920   0.022818
    13  H    0.791544   0.028619   0.021156
    14  H    0.028619   0.647770   0.055476
    15  H    0.021156   0.055476   0.645127
 Mulliken charges:
               1
     1  C   -0.166157
     2  N   -0.166744
     3  C   -0.046371
     4  C   -0.023029
     5  N   -0.526922
     6  H    0.045270
     7  H    0.083771
     8  H    0.125781
     9  H    0.004385
    10  H    0.121864
    11  H    0.042444
    12  H    0.059434
    13  H    0.065965
    14  H    0.192022
    15  H    0.188289
 Sum of Mulliken charges =  -0.00000
 Mulliken charges with hydrogens summed into heavy atoms:
               1
     1  C    0.088664
     2  N   -0.162359
     3  C    0.117936
     4  C    0.102370
     5  N   -0.146611
 Electronic spatial extent (au):  <R**2>=            541.0657
 Charge=              0.0000 electrons
 Dipole moment (field-independent basis, Debye):
    X=              1.0237    Y=             -0.1997    Z=              1.8107  Tot=              2.0896
 Quadrupole moment (field-independent basis, Debye-Ang):
   XX=            -37.6089   YY=            -33.2157   ZZ=            -36.7629
   XY=              1.5263   XZ=             -0.5049   YZ=              0.8341
 Traceless Quadrupole moment (field-independent basis, Debye-Ang):
   XX=             -1.7464   YY=              2.6468   ZZ=             -0.9004
   XY=              1.5263   XZ=             -0.5049   YZ=              0.8341
 Octapole moment (field-independent basis, Debye-Ang**2):
  XXX=              0.3787  YYY=             -2.2516  ZZZ=              3.5177  XYY=             -4.3344
  XXY=             -3.7521  XXZ=             11.5219  XZZ=             -0.9143  YZZ=             -1.5123
  YYZ=              0.9709  XYZ=              0.8366
 Hexadecapole moment (field-independent basis, Debye-Ang**3):
 XXXX=           -510.0616 YYYY=           -141.1956 ZZZZ=           -127.3730 XXXY=             13.8512
 XXXZ=              0.6240 YYYX=              7.3440 YYYZ=              5.0573 ZZZX=              5.8464
 ZZZY=              3.8666 XXYY=           -102.0093 XXZZ=           -109.0644 YYZZ=            -44.3394
 XXYZ=             -0.7625 YYXZ=              2.4910 ZZXY=              0.2179
 N-N= 1.937695847379D+02 E-N=-9.195485067018D+02  KE= 2.277823223323D+02
 Evaluate density.
 Using the total density.
 Monte-Carlo method of calculating molar volume:
 based on  0.001 e/bohr**3 density envelope.
 Number of points per bohr**3 =   20 CutOff= 1.00D-04
 Using the CI density.
 There are       326 points.  Will hold       326 in memory.
 LenV=   536813108 MDV=   536870912.
 Box volume = 4354.425 fraction occupied=0.227
 Integrated density= 1.8348327161870294D+01 error=-2.3651672838129706D+01
 Molar volume =  988.428 bohr**3/mol ( 88.206 cm**3/mol)
 Recommended a0 for SCRF calculation =  4.10 angstrom (  7.75 bohr)
 ******************************Gaussian NBO Version 3.1******************************
             N A T U R A L   A T O M I C   O R B I T A L   A N D
          N A T U R A L   B O N D   O R B I T A L   A N A L Y S I S
 ******************************Gaussian NBO Version 3.1******************************
       /RESON  / : Allow strongly delocalized NBO set

 Analyzing the CI density

 Job title: KFIGICHILYTCJF-UHFFFAOYSA-N_conf_1                              

 Storage needed:     47690 in NPA ( 536869637 available)
 GSVD:  LWork=        7945 too small for GESVD, short by        6875 words or        6875 for optimal perf.


 NATURAL POPULATIONS:  Natural atomic orbital occupancies 
                                                          
   NAO  Atom  No  lang   Type(AO)    Occupancy
 --------------------------------------------
     1    C    1  S      Cor( 1S)     1.99946
     2    C    1  S      Val( 2S)     1.12797
     3    C    1  S      Ryd( 3S)     0.00163
     4    C    1  S      Ryd( 4S)     0.00003
     5    C    1  px     Val( 2p)     1.10151
     6    C    1  px     Ryd( 3p)     0.00546
     7    C    1  py     Val( 2p)     1.22393
     8    C    1  py     Ryd( 3p)     0.00444
     9    C    1  pz     Val( 2p)     1.09698
    10    C    1  pz     Ryd( 3p)     0.00865
    11    C    1  dxy    Ryd( 3d)     0.00087
    12    C    1  dxz    Ryd( 3d)     0.00148
    13    C    1  dyz    Ryd( 3d)     0.00079
    14    C    1  dx2y2  Ryd( 3d)     0.00038
    15    C    1  dz2    Ryd( 3d)     0.00049

    16    N    2  S      Cor( 1S)     1.99939
    17    N    2  S      Val( 2S)     1.41933
    18    N    2  S      Ryd( 3S)     0.00539
    19    N    2  S      Ryd( 4S)     0.00017
    20    N    2  px     Val( 2p)     1.27380
    21    N    2  px     Ryd( 3p)     0.00258
    22    N    2  py     Val( 2p)     1.22438
    23    N    2  py     Ryd( 3p)     0.00254
    24    N    2  pz     Val( 2p)     1.35652
    25    N    2  pz     Ryd( 3p)     0.00114
    26    N    2  dxy    Ryd( 3d)     0.00077
    27    N    2  dxz    Ryd( 3d)     0.00091
    28    N    2  dyz    Ryd( 3d)     0.00088
    29    N    2  dx2y2  Ryd( 3d)     0.00054
    30    N    2  dz2    Ryd( 3d)     0.00035

    31    C    3  S      Cor( 1S)     1.99930
    32    C    3  S      Val( 2S)     1.05072
    33    C    3  S      Ryd( 3S)     0.00170
    34    C    3  S      Ryd( 4S)     0.00004
    35    C    3  px     Val( 2p)     1.01260
    36    C    3  px     Ryd( 3p)     0.00581
    37    C    3  py     Val( 2p)     1.06475
    38    C    3  py     Ryd( 3p)     0.00264
    39    C    3  pz     Val( 2p)     1.19675
    40    C    3  pz     Ryd( 3p)     0.00502
    41    C    3  dxy    Ryd( 3d)     0.00125
    42    C    3  dxz    Ryd( 3d)     0.00097
    43    C    3  dyz    Ryd( 3d)     0.00113
    44    C    3  dx2y2  Ryd( 3d)     0.00045
    45    C    3  dz2    Ryd( 3d)     0.00058

    46    C    4  S      Cor( 1S)     1.99932
    47    C    4  S      Val( 2S)     1.03514
    48    C    4  S      Ryd( 3S)     0.00202
    49    C    4  S      Ryd( 4S)     0.00004
    50    C    4  px     Val( 2p)     1.06311
    51    C    4  px     Ryd( 3p)     0.00354
    52    C    4  py     Val( 2p)     1.07798
    53    C    4  py     Ryd( 3p)     0.00309
    54    C    4  pz     Val( 2p)     1.09187
    55    C    4  pz     Ryd( 3p)     0.00334
    56    C    4  dxy    Ryd( 3d)     0.00118
    57    C    4  dxz    Ryd( 3d)     0.00111
    58    C    4  dyz    Ryd( 3d)     0.00109
    59    C    4  dx2y2  Ryd( 3d)     0.00063
    60    C    4  dz2    Ryd( 3d)     0.00079

    61    N    5  S      Cor( 1S)     1.99962
    62    N    5  S      Val( 2S)     1.46477
    63    N    5  S      Ryd( 3S)     0.00257
    64    N    5  S      Ryd( 4S)     0.00005
    65    N    5  px     Val( 2p)     1.43332
    66    N    5  px     Ryd( 3p)     0.00242
    67    N    5  py     Val( 2p)     1.40068
    68    N    5  py     Ryd( 3p)     0.00298
    69    N    5  pz     Val( 2p)     1.52296
    70    N    5  pz     Ryd( 3p)     0.00306
    71    N    5  dxy    Ryd( 3d)     0.00112
    72    N    5  dxz    Ryd( 3d)     0.00099
    73    N    5  dyz    Ryd( 3d)     0.00106
    74    N    5  dx2y2  Ryd( 3d)     0.00030
    75    N    5  dz2    Ryd( 3d)     0.00076

    76    H    6  S      Val( 1S)     0.79212
    77    H    6  S      Ryd( 2S)     0.02694
    78    H    6  px     Ryd( 2p)     0.00020
    79    H    6  py     Ryd( 2p)     0.00018
    80    H    6  pz     Ryd( 2p)     0.00009

    81    H    7  S      Val( 1S)     0.77096
    82    H    7  S      Ryd( 2S)     0.02427
    83    H    7  px     Ryd( 2p)     0.00017
    84    H    7  py     Ryd( 2p)     0.00016
    85    H    7  pz     Ryd( 2p)     0.00022

    86    H    8  S      Val( 1S)     0.73376
    87    H    8  S      Ryd( 2S)     0.01740
    88    H    8  px     Ryd( 2p)     0.00016
    89    H    8  py     Ryd( 2p)     0.00022
    90    H    8  pz     Ryd( 2p)     0.00015

    91    H    9  S      Val( 1S)     0.71889
    92    H    9  S      Ryd( 2S)     0.09155
    93    H    9  px     Ryd( 2p)     0.00038
    94    H    9  py     Ryd( 2p)     0.00033
    95    H    9  pz     Ryd( 2p)     0.00043

    96    H   10  S      Val( 1S)     0.73021
    97    H   10  S      Ryd( 2S)     0.01856
    98    H   10  px     Ryd( 2p)     0.00014
    99    H   10  py     Ryd( 2p)     0.00024
   100    H   10  pz     Ryd( 2p)     0.00018

   101    H   11  S      Val( 1S)     0.77955
   102    H   11  S      Ryd( 2S)     0.03074
   103    H   11  px     Ryd( 2p)     0.00012
   104    H   11  py     Ryd( 2p)     0.00015
   105    H   11  pz     Ryd( 2p)     0.00024

   106    H   12  S      Val( 1S)     0.78329
   107    H   12  S      Ryd( 2S)     0.02436
   108    H   12  px     Ryd( 2p)     0.00016
   109    H   12  py     Ryd( 2p)     0.00015
   110    H   12  pz     Ryd( 2p)     0.00027

   111    H   13  S      Val( 1S)     0.78387
   112    H   13  S      Ryd( 2S)     0.01610
   113    H   13  px     Ryd( 2p)     0.00021
   114    H   13  py     Ryd( 2p)     0.00023
   115    H   13  pz     Ryd( 2p)     0.00012

   116    H   14  S      Val( 1S)     0.63365
   117    H   14  S      Ryd( 2S)     0.02503
   118    H   14  px     Ryd( 2p)     0.00041
   119    H   14  py     Ryd( 2p)     0.00044
   120    H   14  pz     Ryd( 2p)     0.00047

   121    H   15  S      Val( 1S)     0.64046
   122    H   15  S      Ryd( 2S)     0.02331
   123    H   15  px     Ryd( 2p)     0.00049
   124    H   15  py     Ryd( 2p)     0.00046
   125    H   15  pz     Ryd( 2p)     0.00042


 Summary of Natural Population Analysis:                  
                                                          
                                       Natural Population 
                Natural  -----------------------------------------------
    Atom  No    Charge         Core      Valence    Rydberg      Total
 -----------------------------------------------------------------------
      C    1   -0.57405      1.99946     4.55038    0.02421     6.57405
      N    2   -0.28870      1.99939     5.27403    0.01527     7.28870
      C    3   -0.34371      1.99930     4.32482    0.01959     6.34371
      C    4   -0.28425      1.99932     4.26810    0.01683     6.28425
      N    5   -0.83668      1.99962     5.82173    0.01533     7.83668
      H    6    0.18046      0.00000     0.79212    0.02741     0.81954
      H    7    0.20423      0.00000     0.77096    0.02481     0.79577
      H    8    0.24831      0.00000     0.73376    0.01793     0.75169
      H    9    0.18843      0.00000     0.71889    0.09268     0.81157
      H   10    0.25067      0.00000     0.73021    0.01912     0.74933
      H   11    0.18920      0.00000     0.77955    0.03125     0.81080
      H   12    0.19176      0.00000     0.78329    0.02495     0.80824
      H   13    0.19947      0.00000     0.78387    0.01666     0.80053
      H   14    0.34000      0.00000     0.63365    0.02635     0.66000
      H   15    0.33485      0.00000     0.64046    0.02468     0.66515
 =======================================================================
   * Total *   -0.00000      9.99708    31.60583    0.39708    42.00000

                                 Natural Population      
 --------------------------------------------------------
   Core                       9.99708 ( 99.9708% of  10)
   Valence                   31.60583 ( 98.7682% of  32)
   Natural Minimal Basis     41.60292 ( 99.0546% of  42)
   Natural Rydberg Basis      0.39708 (  0.9454% of  42)
 --------------------------------------------------------

    Atom  No          Natural Electron Configuration
 ----------------------------------------------------------------------------
      C    1      [core]2S( 1.13)2p( 3.42)3p( 0.02)
      N    2      [core]2S( 1.42)2p( 3.85)3S( 0.01)3p( 0.01)
      C    3      [core]2S( 1.05)2p( 3.27)3p( 0.01)
      C    4      [core]2S( 1.04)2p( 3.23)3p( 0.01)
      N    5      [core]2S( 1.46)2p( 4.36)3p( 0.01)
      H    6            1S( 0.79)2S( 0.03)
      H    7            1S( 0.77)2S( 0.02)
      H    8            1S( 0.73)2S( 0.02)
      H    9            1S( 0.72)2S( 0.09)
      H   10            1S( 0.73)2S( 0.02)
      H   11            1S( 0.78)2S( 0.03)
      H   12            1S( 0.78)2S( 0.02)
      H   13            1S( 0.78)2S( 0.02)
      H   14            1S( 0.63)2S( 0.03)
      H   15            1S( 0.64)2S( 0.02)


 NBO analysis skipped by request.
 1\1\GINC-CN13\SP\RB3LYP TD-FC\6-31G(d,p)\C3H10N2\QDUEZ\11-Jul-2024\0\\
 # TD(NStates=10, Root=1) B3LYP/6-31G** SCRF=(Solvent=water) volume pop
 =NPA density=current Geom=AllCheck Guess=Read\\KFIGICHILYTCJF-UHFFFAOY
 SA-N_conf_1\\0,1\C,0,1.7974525002,0.409578873,0.6497443664\N,0,0.62481
 31132,-0.3630861928,1.059052953\C,0,-0.126099266,-0.941200406,-0.06259
 87196\C,0,-1.0813857461,0.0782100053,-0.686552445\N,0,-2.0728584609,0.
 5043252223,0.3102444376\H,0,2.3520436391,0.7279414983,1.5373189891\H,0
 ,1.4884709532,1.3128098726,0.1140361074\H,0,2.4883685561,-0.146186669,
 -0.0084136612\H,0,0.9319328215,-1.1173578723,1.6662365566\H,0,0.536482
 5044,-1.3453080423,-0.8489709454\H,0,-0.7204374617,-1.7748717714,0.327
 4068563\H,0,-0.4966140613,0.9114985028,-1.112198901\H,0,-1.5981972593,
 -0.3986097158,-1.5288385556\H,0,-2.575329586,1.318577255,-0.0371603995
 \H,0,-1.5486422465,0.8236794402,1.1242283367\\Version=EM64L-G16RevA.03
 \State=1-A\HF=-229.8445821\RMSD=1.859e-09\Dipole=0.5752706,0.3625375,-
 0.4620671\Quadrupole=-1.3087223,1.0840936,0.2246287,-1.3335489,-0.5336
 568,1.1330875\PG=C01 [X(C3H10N2)]\\@


 A warm smile is the universal language of kindness.
                             -- William Arthur Ward
 Job cpu time:       0 days  0 hours 15 minutes 51.7 seconds.
 Elapsed time:       0 days  0 hours 13 minutes 33.6 seconds.
 File lengths (MBytes):  RWF=    192 Int=      0 D2E=      0 Chk=     12 Scr=      1
 Normal termination of Gaussian 16 at Thu Jul 11 20:16:50 2024.
