 Entering Gaussian System, Link 0=g16
 Initial command:
 /opt/sw/arch/manual/gaussian/G16_A03/g16/l1.exe "/scratch/1032064.jesse.materianova.be/Gau-64140.inp" -scrdir="/scratch/1032064.jesse.materianova.be/"
 Entering Link 1 = /opt/sw/arch/manual/gaussian/G16_A03/g16/l1.exe PID=     64144.
  
 Copyright (c) 1988,1990,1992,1993,1995,1998,2003,2009,2016,
            Gaussian, Inc.  All Rights Reserved.
  
 This is part of the Gaussian(R) 16 program.  It is based on
 the Gaussian(R) 09 system (copyright 2009, Gaussian, Inc.),
 the Gaussian(R) 03 system (copyright 2003, Gaussian, Inc.),
 the Gaussian(R) 98 system (copyright 1998, Gaussian, Inc.),
 the Gaussian(R) 94 system (copyright 1995, Gaussian, Inc.),
 the Gaussian 92(TM) system (copyright 1992, Gaussian, Inc.),
 the Gaussian 90(TM) system (copyright 1990, Gaussian, Inc.),
 the Gaussian 88(TM) system (copyright 1988, Gaussian, Inc.),
 the Gaussian 86(TM) system (copyright 1986, Carnegie Mellon
 University), and the Gaussian 82(TM) system (copyright 1983,
 Carnegie Mellon University). Gaussian is a federally registered
 trademark of Gaussian, Inc.
  
 This software contains proprietary and confidential information,
 including trade secrets, belonging to Gaussian, Inc.
  
 This software is provided under written license and may be
 used, copied, transmitted, or stored only in accord with that
 written license.
  
 The following legend is applicable only to US Government
 contracts under FAR:
  
                    RESTRICTED RIGHTS LEGEND
  
 Use, reproduction and disclosure by the US Government is
 subject to restrictions as set forth in subparagraphs (a)
 and (c) of the Commercial Computer Software - Restricted
 Rights clause in FAR 52.227-19.
  
 Gaussian, Inc.
 340 Quinnipiac St., Bldg. 40, Wallingford CT 06492
  
  
 ---------------------------------------------------------------
 Warning -- This program may not be used in any manner that
 competes with the business of Gaussian, Inc. or will provide
 assistance to any competitor of Gaussian, Inc.  The licensee
 of this program is prohibited from giving any competitor of
 Gaussian, Inc. access to this program.  By using this program,
 the user acknowledges that Gaussian, Inc. is engaged in the
 business of creating and licensing software in the field of
 computational chemistry and represents and warrants to the
 licensee that it is not a competitor of Gaussian, Inc. and that
 it will not use this program in any manner prohibited above.
 ---------------------------------------------------------------
  

 Cite this work as:
 Gaussian 16, Revision A.03,
 M. J. Frisch, G. W. Trucks, H. B. Schlegel, G. E. Scuseria, 
 M. A. Robb, J. R. Cheeseman, G. Scalmani, V. Barone, 
 G. A. Petersson, H. Nakatsuji, X. Li, M. Caricato, A. V. Marenich, 
 J. Bloino, B. G. Janesko, R. Gomperts, B. Mennucci, H. P. Hratchian, 
 J. V. Ortiz, A. F. Izmaylov, J. L. Sonnenberg, D. Williams-Young, 
 F. Ding, F. Lipparini, F. Egidi, J. Goings, B. Peng, A. Petrone, 
 T. Henderson, D. Ranasinghe, V. G. Zakrzewski, J. Gao, N. Rega, 
 G. Zheng, W. Liang, M. Hada, M. Ehara, K. Toyota, R. Fukuda, 
 J. Hasegawa, M. Ishida, T. Nakajima, Y. Honda, O. Kitao, H. Nakai, 
 T. Vreven, K. Throssell, J. A. Montgomery, Jr., J. E. Peralta, 
 F. Ogliaro, M. J. Bearpark, J. J. Heyd, E. N. Brothers, K. N. Kudin, 
 V. N. Staroverov, T. A. Keith, R. Kobayashi, J. Normand, 
 K. Raghavachari, A. P. Rendell, J. C. Burant, S. S. Iyengar, 
 J. Tomasi, M. Cossi, J. M. Millam, M. Klene, C. Adamo, R. Cammi, 
 J. W. Ochterski, R. L. Martin, K. Morokuma, O. Farkas, 
 J. B. Foresman, and D. J. Fox, Gaussian, Inc., Wallingford CT, 2016.
 
 ******************************************
 Gaussian 16:  EM64L-G16RevA.03 25-Dec-2016
                11-Jul-2024 
 ******************************************
 %nprocshared=3
 Will use up to    3 processors via shared memory.
 %mem=6GB
 %Chk=KVKFRMCSXWQSNT-UHFFFAOYSA-N_conf_0_0.chk
 -------------------------------------------------------
 # opt=CalcFc B3LYP/6-31G** SCRF=(Solvent=water) scf=xqc
 -------------------------------------------------------
 1/10=4,18=20,19=15,26=3,38=1/1,3;
 2/9=110,12=2,17=6,18=5,40=1/2;
 3/5=1,6=6,7=101,11=2,25=1,30=1,70=2201,71=2,72=1,74=-5,140=1/1,2,3;
 4//1;
 5/5=2,8=3,13=1,38=5,53=1/2,8;
 8/6=4,10=90,11=11/1;
 11/6=1,8=1,9=11,15=111,16=1/1,2,10;
 10/6=1,13=1/2;
 6/7=2,8=2,9=2,10=2,28=1/1;
 7/10=1,18=20,25=1/1,2,3,16;
 1/10=4,18=20,19=15,26=3/3(2);
 2/9=110/2;
 99//99;
 2/9=110/2;
 3/5=1,6=6,7=101,11=2,25=1,30=1,70=2205,71=1,72=1,74=-5/1,2,3;
 4/5=5,16=3,69=1/1;
 5/5=2,8=3,13=1,38=5,53=1/2,8;
 7//1,2,3,16;
 1/18=20,19=15,26=3/3(-5);
 2/9=110/2;
 6/7=2,8=2,9=2,10=2,19=2,28=1/1;
 99/9=1/99;
 ----------------------------------
 KVKFRMCSXWQSNT-UHFFFAOYSA-N_conf_0
 ----------------------------------
 Symbolic Z-matrix:
 Charge =  0 Multiplicity = 1
 C                    -2.83663  -0.09825  -0.14171 
 N                    -1.6557   -0.76716   0.38915 
 C                    -0.4939    0.13324   0.36867 
 C                     0.75721  -0.57834   0.92463 
 N                     1.9347    0.29183   1.05586 
 C                     2.48871   0.67037  -0.23854 
 H                    -3.09996   0.78356   0.45144 
 H                    -2.68685   0.20188  -1.18385 
 H                    -3.6869   -0.78682  -0.11673 
 H                    -1.83923  -1.04944   1.35215 
 H                    -0.30684   0.45563  -0.66169 
 H                    -0.70215   1.02495   0.97281 
 H                     1.00033  -1.4575    0.31446 
 H                     0.52324  -0.9537    1.92889 
 H                     2.65046  -0.21821   1.5744 
 H                     3.40768   1.24449  -0.08243 
 H                     1.80352   1.31077  -0.80125 
 H                     2.74232  -0.2073   -0.84182 
 

 GradGradGradGradGradGradGradGradGradGradGradGradGradGradGradGradGradGrad
 Berny optimization.
 Initialization pass.
                           ----------------------------
                           !    Initial Parameters    !
                           ! (Angstroms and Degrees)  !
 --------------------------                            --------------------------
 ! Name  Definition              Value          Derivative Info.                !
 --------------------------------------------------------------------------------
 ! R1    R(1,2)                  1.4573         calculate D2E/DX2 analytically  !
 ! R2    R(1,7)                  1.0949         calculate D2E/DX2 analytically  !
 ! R3    R(1,8)                  1.0948         calculate D2E/DX2 analytically  !
 ! R4    R(1,9)                  1.0944         calculate D2E/DX2 analytically  !
 ! R5    R(2,3)                  1.47           calculate D2E/DX2 analytically  !
 ! R6    R(2,10)                 1.0202         calculate D2E/DX2 analytically  !
 ! R7    R(3,4)                  1.543          calculate D2E/DX2 analytically  !
 ! R8    R(3,11)                 1.0957         calculate D2E/DX2 analytically  !
 ! R9    R(3,12)                 1.097          calculate D2E/DX2 analytically  !
 ! R10   R(4,5)                  1.47           calculate D2E/DX2 analytically  !
 ! R11   R(4,13)                 1.0974         calculate D2E/DX2 analytically  !
 ! R12   R(4,14)                 1.0973         calculate D2E/DX2 analytically  !
 ! R13   R(5,6)                  1.458          calculate D2E/DX2 analytically  !
 ! R14   R(5,15)                 1.0205         calculate D2E/DX2 analytically  !
 ! R15   R(6,16)                 1.0948         calculate D2E/DX2 analytically  !
 ! R16   R(6,17)                 1.0937         calculate D2E/DX2 analytically  !
 ! R17   R(6,18)                 1.0948         calculate D2E/DX2 analytically  !
 ! A1    A(2,1,7)              111.5445         calculate D2E/DX2 analytically  !
 ! A2    A(2,1,8)              111.2056         calculate D2E/DX2 analytically  !
 ! A3    A(2,1,9)              109.418          calculate D2E/DX2 analytically  !
 ! A4    A(7,1,8)              109.1359         calculate D2E/DX2 analytically  !
 ! A5    A(7,1,9)              107.9092         calculate D2E/DX2 analytically  !
 ! A6    A(8,1,9)              107.4882         calculate D2E/DX2 analytically  !
 ! A7    A(1,2,3)              110.7452         calculate D2E/DX2 analytically  !
 ! A8    A(1,2,10)             108.9702         calculate D2E/DX2 analytically  !
 ! A9    A(3,2,10)             108.9548         calculate D2E/DX2 analytically  !
 ! A10   A(2,3,4)              110.692          calculate D2E/DX2 analytically  !
 ! A11   A(2,3,11)             109.1627         calculate D2E/DX2 analytically  !
 ! A12   A(2,3,12)             109.8874         calculate D2E/DX2 analytically  !
 ! A13   A(4,3,11)             109.6394         calculate D2E/DX2 analytically  !
 ! A14   A(4,3,12)             109.29           calculate D2E/DX2 analytically  !
 ! A15   A(11,3,12)            108.126          calculate D2E/DX2 analytically  !
 ! A16   A(3,4,5)              114.1217         calculate D2E/DX2 analytically  !
 ! A17   A(3,4,13)             110.411          calculate D2E/DX2 analytically  !
 ! A18   A(3,4,14)             108.3383         calculate D2E/DX2 analytically  !
 ! A19   A(5,4,13)             110.267          calculate D2E/DX2 analytically  !
 ! A20   A(5,4,14)             106.9518         calculate D2E/DX2 analytically  !
 ! A21   A(13,4,14)            106.3821         calculate D2E/DX2 analytically  !
 ! A22   A(4,5,6)              112.26           calculate D2E/DX2 analytically  !
 ! A23   A(4,5,15)             108.1398         calculate D2E/DX2 analytically  !
 ! A24   A(6,5,15)             108.3232         calculate D2E/DX2 analytically  !
 ! A25   A(5,6,16)             109.1796         calculate D2E/DX2 analytically  !
 ! A26   A(5,6,17)             111.761          calculate D2E/DX2 analytically  !
 ! A27   A(5,6,18)             111.6603         calculate D2E/DX2 analytically  !
 ! A28   A(16,6,17)            106.9888         calculate D2E/DX2 analytically  !
 ! A29   A(16,6,18)            107.7309         calculate D2E/DX2 analytically  !
 ! A30   A(17,6,18)            109.3302         calculate D2E/DX2 analytically  !
 ! D1    D(7,1,2,3)            -60.6943         calculate D2E/DX2 analytically  !
 ! D2    D(7,1,2,10)            59.1399         calculate D2E/DX2 analytically  !
 ! D3    D(8,1,2,3)             61.393          calculate D2E/DX2 analytically  !
 ! D4    D(8,1,2,10)          -178.7728         calculate D2E/DX2 analytically  !
 ! D5    D(9,1,2,3)            179.9834         calculate D2E/DX2 analytically  !
 ! D6    D(9,1,2,10)           -60.1824         calculate D2E/DX2 analytically  !
 ! D7    D(1,2,3,4)           -179.728          calculate D2E/DX2 analytically  !
 ! D8    D(1,2,3,11)           -58.9572         calculate D2E/DX2 analytically  !
 ! D9    D(1,2,3,12)            59.4643         calculate D2E/DX2 analytically  !
 ! D10   D(10,2,3,4)            60.4286         calculate D2E/DX2 analytically  !
 ! D11   D(10,2,3,11)         -178.8006         calculate D2E/DX2 analytically  !
 ! D12   D(10,2,3,12)          -60.3791         calculate D2E/DX2 analytically  !
 ! D13   D(2,3,4,5)           -174.59           calculate D2E/DX2 analytically  !
 ! D14   D(2,3,4,13)            60.549          calculate D2E/DX2 analytically  !
 ! D15   D(2,3,4,14)           -55.5791         calculate D2E/DX2 analytically  !
 ! D16   D(11,3,4,5)            64.9227         calculate D2E/DX2 analytically  !
 ! D17   D(11,3,4,13)          -59.9383         calculate D2E/DX2 analytically  !
 ! D18   D(11,3,4,14)         -176.0664         calculate D2E/DX2 analytically  !
 ! D19   D(12,3,4,5)           -53.4283         calculate D2E/DX2 analytically  !
 ! D20   D(12,3,4,13)         -178.2893         calculate D2E/DX2 analytically  !
 ! D21   D(12,3,4,14)           65.5826         calculate D2E/DX2 analytically  !
 ! D22   D(3,4,5,6)            -70.1844         calculate D2E/DX2 analytically  !
 ! D23   D(3,4,5,15)           170.3726         calculate D2E/DX2 analytically  !
 ! D24   D(13,4,5,6)            54.7532         calculate D2E/DX2 analytically  !
 ! D25   D(13,4,5,15)          -64.6899         calculate D2E/DX2 analytically  !
 ! D26   D(14,4,5,6)           170.0221         calculate D2E/DX2 analytically  !
 ! D27   D(14,4,5,15)           50.579          calculate D2E/DX2 analytically  !
 ! D28   D(4,5,6,16)          -175.256          calculate D2E/DX2 analytically  !
 ! D29   D(4,5,6,17)            66.5835         calculate D2E/DX2 analytically  !
 ! D30   D(4,5,6,18)           -56.2379         calculate D2E/DX2 analytically  !
 ! D31   D(15,5,6,16)          -55.9202         calculate D2E/DX2 analytically  !
 ! D32   D(15,5,6,17)         -174.0807         calculate D2E/DX2 analytically  !
 ! D33   D(15,5,6,18)           63.0979         calculate D2E/DX2 analytically  !
 --------------------------------------------------------------------------------
 Trust Radius=3.00D-01 FncErr=1.00D-07 GrdErr=1.00D-06 EigMax=2.50D+02 EigMin=1.00D-04
 Number of steps in this run=     90 maximum allowed number of steps=    108.
 GradGradGradGradGradGradGradGradGradGradGradGradGradGradGradGradGradGrad

                          Input orientation:                          
 ---------------------------------------------------------------------
 Center     Atomic      Atomic             Coordinates (Angstroms)
 Number     Number       Type             X           Y           Z
 ---------------------------------------------------------------------
      1          6           0       -2.836631   -0.098247   -0.141712
      2          7           0       -1.655700   -0.767163    0.389153
      3          6           0       -0.493904    0.133239    0.368667
      4          6           0        0.757207   -0.578339    0.924633
      5          7           0        1.934699    0.291828    1.055862
      6          6           0        2.488712    0.670371   -0.238543
      7          1           0       -3.099965    0.783559    0.451443
      8          1           0       -2.686848    0.201885   -1.183848
      9          1           0       -3.686896   -0.786823   -0.116731
     10          1           0       -1.839232   -1.049440    1.352152
     11          1           0       -0.306844    0.455626   -0.661691
     12          1           0       -0.702152    1.024955    0.972811
     13          1           0        1.000332   -1.457501    0.314465
     14          1           0        0.523242   -0.953696    1.928891
     15          1           0        2.650458   -0.218212    1.574402
     16          1           0        3.407678    1.244487   -0.082432
     17          1           0        1.803523    1.310767   -0.801251
     18          1           0        2.742319   -0.207296   -0.841823
 ---------------------------------------------------------------------
                    Distance matrix (angstroms):
                    1          2          3          4          5
     1  C    0.000000
     2  N    1.457348   0.000000
     3  C    2.408826   1.470005   0.000000
     4  C    3.779319   2.478813   1.542958   0.000000
     5  N    4.934768   3.802227   2.528933   1.470000   0.000000
     6  C    5.381396   4.431326   3.090827   2.431124   1.457981
     7  H    1.094879   2.120029   2.687252   4.117821   5.094602
     8  H    1.094788   2.115810   2.687753   4.112901   5.136447
     9  H    1.094400   2.093338   3.358173   4.569240   5.843013
    10  H    2.032536   1.020163   2.043498   2.673239   4.016136
    11  H    2.641396   2.102117   1.095701   2.172029   2.828663
    12  H    2.657018   2.112250   1.097048   2.168548   2.738130
    13  H    4.096090   2.745296   2.183147   1.097424   2.117277
    14  H    4.038309   2.674580   2.156459   1.097345   2.075022
    15  H    5.750442   4.499907   3.385901   2.033788   1.020458
    16  H    6.387319   5.468722   4.081752   3.370738   2.091158
    17  H    4.894010   4.207264   2.834333   2.764448   2.122337
    18  H    5.623764   4.601230   3.471943   2.683041   2.121929
                    6          7          8          9         10
     6  C    0.000000
     7  H    5.632246   0.000000
     8  H    5.281998   1.784149   0.000000
     9  H    6.346368   1.770144   1.765327   0.000000
    10  H    4.921297   2.400127   2.952213   2.374963   0.000000
    11  H    2.835543   3.024588   2.449786   3.642171   2.944317
    12  H    3.431431   2.465685   3.044280   3.657642   2.395823
    13  H    2.654982   4.674777   4.312052   4.754561   3.050645
    14  H    3.346406   4.281184   4.618354   4.683768   2.433738
    15  H    2.025466   5.944068   6.022563   6.583716   4.571396
    16  H    1.094751   6.545754   6.280397   7.379728   5.903406
    17  H    1.093724   5.088357   4.641059   5.917191   4.845347
    18  H    1.094789   6.065196   5.455297   6.495877   5.149111
                   11         12         13         14         15
    11  H    0.000000
    12  H    1.775388   0.000000
    13  H    2.514287   3.081308   0.000000
    14  H    3.063714   2.516096   1.757215   0.000000
    15  H    3.768263   3.625930   2.417891   2.278518   0.000000
    16  H    3.841291   4.248815   3.640547   4.146974   2.336230
    17  H    2.281313   3.083405   3.090832   3.771019   2.949373
    18  H    3.125589   4.083591   2.436089   3.627432   2.417995
                   16         17         18
    16  H    0.000000
    17  H    1.759093   0.000000
    18  H    1.768347   1.785357   0.000000
 Stoichiometry    C4H12N2
 Framework group  C1[X(C4H12N2)]
 Deg. of freedom    48
 Full point group                 C1      NOp   1
 Largest Abelian subgroup         C1      NOp   1
 Largest concise Abelian subgroup C1      NOp   1
                         Standard orientation:                         
 ---------------------------------------------------------------------
 Center     Atomic      Atomic             Coordinates (Angstroms)
 Number     Number       Type             X           Y           Z
 ---------------------------------------------------------------------
      1          6           0        2.867398    0.478063   -0.057167
      2          7           0        1.759601   -0.395477    0.308314
      3          6           0        0.488959    0.129516   -0.212037
      4          6           0       -0.683892   -0.792639    0.181371
      5          7           0       -1.974900   -0.406448   -0.406042
      6          6           0       -2.497876    0.825919    0.171433
      7          1           0        2.972244    0.561224   -1.143836
      8          1           0        2.739936    1.478542    0.368694
      9          1           0        3.800778    0.067797    0.340573
     10          1           0        1.922680   -1.321316   -0.087869
     11          1           0        0.320899    1.132959    0.194678
     12          1           0        0.537329    0.208019   -1.305204
     13          1           0       -0.768108   -0.859999    1.273484
     14          1           0       -0.460669   -1.806238   -0.174936
     15          1           0       -2.643684   -1.155296   -0.223584
     16          1           0       -3.494267    1.020541   -0.238208
     17          1           0       -1.874516    1.688442   -0.080972
     18          1           0       -2.593068    0.753649    1.259678
 ---------------------------------------------------------------------
 Rotational constants (GHZ):          10.0566957           1.4144751           1.3150504
 Standard basis: 6-31G(d,p) (6D, 7F)
 There are   150 symmetry adapted cartesian basis functions of A   symmetry.
 There are   150 symmetry adapted basis functions of A   symmetry.
   150 basis functions,   252 primitive gaussians,   150 cartesian basis functions
    25 alpha electrons       25 beta electrons
       nuclear repulsion energy       252.7479759708 Hartrees.
 NAtoms=   18 NActive=   18 NUniq=   18 SFac= 1.00D+00 NAtFMM=   60 NAOKFM=F Big=F
 Integral buffers will be    131072 words long.
 Raffenetti 2 integral format.
 Two-electron integral symmetry is turned on.
 Force inversion solution in PCM.
 ------------------------------------------------------------------------------
 Polarizable Continuum Model (PCM)
 =================================
 Model                : PCM.
 Atomic radii         : UFF (Universal Force Field).
 Polarization charges : Total charges.
 Charge compensation  : None.
 Solution method      : Matrix inversion.
 Cavity type          : Scaled VdW (van der Waals Surface) (Alpha=1.100).
 Cavity algorithm     : GePol (No added spheres)
                        Default sphere list used, NSphG=   18.
                        Lebedev-Laikov grids with approx.  5.0 points / Ang**2.
                        Smoothing algorithm: York/Karplus (Gamma=1.0000).
                        Polarization charges: spherical gaussians, with
                                              point-specific exponents (IZeta= 3).
                        Self-potential: point-specific (ISelfS= 7).
                        Self-field    : sphere-specific E.n sum rule (ISelfD= 2).
 1st derivatives      : Analytical E(r).r(x)/FMM algorithm (CHGder, D1EAlg=3).
                        Cavity 1st derivative terms included.
 2nd derivatives      : Analytical E(r).r(xy)/FMM algorithm (CHGder, D2EAlg=3).
                        Cavity 2nd derivative terms included.
 Solvent              : Water, Eps=  78.355300 Eps(inf)=   1.777849
 ------------------------------------------------------------------------------
 Spheres list:
 ISph  on   Nord     Re0    Alpha      Xe            Ye            Ze
    1   C      1    1.9255  1.100      2.867398      0.478063     -0.057167
    2   N      2    1.8300  1.100      1.759601     -0.395477      0.308314
    3   C      3    1.9255  1.100      0.488959      0.129516     -0.212037
    4   C      4    1.9255  1.100     -0.683892     -0.792639      0.181371
    5   N      5    1.8300  1.100     -1.974900     -0.406448     -0.406042
    6   C      6    1.9255  1.100     -2.497876      0.825919      0.171433
    7   H      7    1.4430  1.100      2.972244      0.561224     -1.143836
    8   H      8    1.4430  1.100      2.739936      1.478542      0.368694
    9   H      9    1.4430  1.100      3.800778      0.067797      0.340573
   10   H     10    1.4430  1.100      1.922680     -1.321316     -0.087869
   11   H     11    1.4430  1.100      0.320899      1.132959      0.194678
   12   H     12    1.4430  1.100      0.537329      0.208019     -1.305204
   13   H     13    1.4430  1.100     -0.768108     -0.859999      1.273484
   14   H     14    1.4430  1.100     -0.460669     -1.806238     -0.174936
   15   H     15    1.4430  1.100     -2.643684     -1.155296     -0.223584
   16   H     16    1.4430  1.100     -3.494267      1.020541     -0.238208
   17   H     17    1.4430  1.100     -1.874516      1.688442     -0.080972
   18   H     18    1.4430  1.100     -2.593068      0.753649      1.259678
 ------------------------------------------------------------------------------
 One-electron integrals computed using PRISM.
 NBasis=   150 RedAO= T EigKep=  3.56D-03  NBF=   150
 NBsUse=   150 1.00D-06 EigRej= -1.00D+00 NBFU=   150
 ExpMin= 1.61D-01 ExpMax= 4.17D+03 ExpMxC= 6.27D+02 IAcc=3 IRadAn=         5 AccDes= 0.00D+00
 Harris functional with IExCor=  402 and IRadAn=       5 diagonalized for initial guess.
 HarFok:  IExCor=  402 AccDes= 0.00D+00 IRadAn=         5 IDoV= 1 UseB2=F ITyADJ=14
 ICtDFT=  3500011 ScaDFX=  1.000000  1.000000  1.000000  1.000000
 FoFCou: FMM=F IPFlag=           0 FMFlag=      100000 FMFlg1=           0
         NFxFlg=           0 DoJE=T BraDBF=F KetDBF=T FulRan=T
         wScrn=  0.000000 ICntrl=       500 IOpCl=  0 I1Cent=   200000004 NGrid=           0
         NMat0=    1 NMatS0=      1 NMatT0=    0 NMatD0=    1 NMtDS0=    0 NMtDT0=    0
 Petite list used in FoFCou.
 Keep R1 ints in memory in canonical form, NReq=67061194.
 Requested convergence on RMS density matrix=1.00D-08 within  32 cycles.
 Requested convergence on MAX density matrix=1.00D-06.
 Requested convergence on             energy=1.00D-06.
 No special actions if energy rises.
 Inv3:  Mode=1 IEnd=     5274828.
 Iteration    1 A*A^-1 deviation from unit magnitude is 5.77D-15 for      1.
 Iteration    1 A*A^-1 deviation from orthogonality  is 4.45D-15 for   1256    548.
 Iteration    1 A^-1*A deviation from unit magnitude is 6.00D-15 for      1.
 Iteration    1 A^-1*A deviation from orthogonality  is 2.80D-15 for   1021    151.
 Error on total polarization charges =  0.00868
 SCF Done:  E(RB3LYP) =  -269.148767854     A.U. after   11 cycles
            NFock= 11  Conv=0.29D-08     -V/T= 2.0098
 QCSCF skips out because SCF is already converged.
 DoSCS=F DFT=T ScalE2(SS,OS)=  1.000000  1.000000
 Range of M.O.s used for correlation:     1   150
 NBasis=   150 NAE=    25 NBE=    25 NFC=     0 NFV=     0
 NROrb=    150 NOA=    25 NOB=    25 NVA=   125 NVB=   125
 Symmetrizing basis deriv contribution to polar:
 IMax=3 JMax=2 DiffMx= 0.00D+00
 G2DrvN: will do    19 centers at a time, making    1 passes.
 Calling FoFCou, ICntrl=  3107 FMM=F I1Cent=   0 AccDes= 0.00D+00.
 NEqPCM:  Using equilibrium solvation (IEInf=0, Eps=  78.3553, EpsInf=   1.7778)
 G2PCM: DoFxE=T DoFxN=T DoGrad=T DoDP/DQ/DG/TGxP=FFFF NFrqRd=   0 IEInf=0 SqF1=F DoCFld=F IF1Alg=4.
 End of G2Drv F.D. properties file   721 does not exist.
 End of G2Drv F.D. properties file   722 does not exist.
 End of G2Drv F.D. properties file   788 does not exist.
          IDoAtm=111111111111111111
 NEqPCM:  Using equilibrium solvation (IEInf=0, Eps=  78.3553, EpsInf=   1.7778)
          Differentiating once with respect to nuclear coordinates.
 Keep R1 ints in memory in canonical form, NReq=69536537.
          There are    57 degrees of freedom in the 1st order CPHF.  IDoFFX=6 NUNeed=     0.
     51 vectors produced by pass  0 Test12= 5.48D-15 1.75D-09 XBig12= 7.54D-02 5.43D-02.
 AX will form    51 AO Fock derivatives at one time.
     51 vectors produced by pass  1 Test12= 5.48D-15 1.75D-09 XBig12= 3.90D-03 1.12D-02.
     51 vectors produced by pass  2 Test12= 5.48D-15 1.75D-09 XBig12= 4.31D-05 7.73D-04.
     51 vectors produced by pass  3 Test12= 5.48D-15 1.75D-09 XBig12= 9.62D-08 4.17D-05.
     51 vectors produced by pass  4 Test12= 5.48D-15 1.75D-09 XBig12= 1.02D-10 1.16D-06.
     19 vectors produced by pass  5 Test12= 5.48D-15 1.75D-09 XBig12= 6.61D-14 3.52D-08.
 InvSVY:  IOpt=1 It=  1 EMax= 3.33D-16
 Solved reduced A of dimension   274 with    57 vectors.
 End of Minotr F.D. properties file   721 does not exist.
 End of Minotr F.D. properties file   722 does not exist.
 End of Minotr F.D. properties file   788 does not exist.

 **********************************************************************

            Population analysis using the SCF density.

 **********************************************************************

 Orbital symmetries:
       Occupied  (A) (A) (A) (A) (A) (A) (A) (A) (A) (A) (A) (A)
                 (A) (A) (A) (A) (A) (A) (A) (A) (A) (A) (A) (A)
                 (A)
       Virtual   (A) (A) (A) (A) (A) (A) (A) (A) (A) (A) (A) (A)
                 (A) (A) (A) (A) (A) (A) (A) (A) (A) (A) (A) (A)
                 (A) (A) (A) (A) (A) (A) (A) (A) (A) (A) (A) (A)
                 (A) (A) (A) (A) (A) (A) (A) (A) (A) (A) (A) (A)
                 (A) (A) (A) (A) (A) (A) (A) (A) (A) (A) (A) (A)
                 (A) (A) (A) (A) (A) (A) (A) (A) (A) (A) (A) (A)
                 (A) (A) (A) (A) (A) (A) (A) (A) (A) (A) (A) (A)
                 (A) (A) (A) (A) (A) (A) (A) (A) (A) (A) (A) (A)
                 (A) (A) (A) (A) (A) (A) (A) (A) (A) (A) (A) (A)
                 (A) (A) (A) (A) (A) (A) (A) (A) (A) (A) (A) (A)
                 (A) (A) (A) (A) (A)
 The electronic state is 1-A.
 Alpha  occ. eigenvalues --  -14.31492 -14.31478 -10.20158 -10.20118 -10.19618
 Alpha  occ. eigenvalues --  -10.19543  -0.90315  -0.88583  -0.72889  -0.67056
 Alpha  occ. eigenvalues --   -0.63331  -0.58458  -0.48902  -0.48199  -0.44685
 Alpha  occ. eigenvalues --   -0.43234  -0.42654  -0.40304  -0.39433  -0.36462
 Alpha  occ. eigenvalues --   -0.36254  -0.34152  -0.33105  -0.22253  -0.21800
 Alpha virt. eigenvalues --    0.08797   0.09006   0.11418   0.13864   0.15352
 Alpha virt. eigenvalues --    0.15795   0.16922   0.17297   0.18372   0.19148
 Alpha virt. eigenvalues --    0.19525   0.21206   0.22383   0.24045   0.25798
 Alpha virt. eigenvalues --    0.27773   0.27912   0.51053   0.52041   0.52376
 Alpha virt. eigenvalues --    0.55251   0.57558   0.58389   0.59892   0.60426
 Alpha virt. eigenvalues --    0.65355   0.68064   0.71830   0.73642   0.74778
 Alpha virt. eigenvalues --    0.78663   0.80654   0.81148   0.82648   0.83401
 Alpha virt. eigenvalues --    0.87360   0.88183   0.89771   0.90713   0.91279
 Alpha virt. eigenvalues --    0.93233   0.93834   0.94799   0.95511   0.97667
 Alpha virt. eigenvalues --    0.99674   1.09209   1.13352   1.18437   1.29837
 Alpha virt. eigenvalues --    1.30096   1.35306   1.37796   1.40658   1.44444
 Alpha virt. eigenvalues --    1.55541   1.61405   1.65376   1.67182   1.75834
 Alpha virt. eigenvalues --    1.79416   1.80283   1.83107   1.87091   1.90521
 Alpha virt. eigenvalues --    1.93918   1.94848   1.96386   1.99218   2.03918
 Alpha virt. eigenvalues --    2.04994   2.06549   2.07508   2.08308   2.10605
 Alpha virt. eigenvalues --    2.10723   2.14723   2.15582   2.17964   2.19699
 Alpha virt. eigenvalues --    2.26594   2.32817   2.34394   2.36828   2.38047
 Alpha virt. eigenvalues --    2.42592   2.44308   2.45699   2.52772   2.58316
 Alpha virt. eigenvalues --    2.59452   2.64817   2.66528   2.69159   2.70255
 Alpha virt. eigenvalues --    2.72939   2.73356   2.75245   2.80116   2.82279
 Alpha virt. eigenvalues --    2.87907   2.91373   2.92368   2.93452   2.95481
 Alpha virt. eigenvalues --    2.96803   2.98647   3.19019   3.20325   3.25967
 Alpha virt. eigenvalues --    3.30538   3.33845   3.39987   3.43684   3.45290
 Alpha virt. eigenvalues --    3.45481   3.51943   3.52660   3.56769   3.99817
 Alpha virt. eigenvalues --    4.10407   4.38997   4.47257   4.47862   4.65752
          Condensed to atoms (all electrons):
               1          2          3          4          5          6
     1  C    4.800065   0.312654  -0.051159   0.004625  -0.000098   0.000003
     2  N    0.312654   6.836674   0.294439  -0.037706   0.002141   0.000019
     3  C   -0.051159   0.294439   4.852190   0.363451  -0.049400  -0.005336
     4  C    0.004625  -0.037706   0.363451   4.860197   0.297496  -0.056009
     5  N   -0.000098   0.002141  -0.049400   0.297496   6.824903   0.315490
     6  C    0.000003   0.000019  -0.005336  -0.056009   0.315490   4.812935
     7  H    0.374399  -0.051369  -0.007466  -0.000042   0.000011  -0.000000
     8  H    0.392404  -0.038650  -0.005033   0.000148  -0.000002  -0.000003
     9  H    0.386918  -0.034811   0.005382  -0.000233   0.000001   0.000000
    10  H   -0.038904   0.343007  -0.039688  -0.004002  -0.000101   0.000009
    11  H   -0.003904  -0.041231   0.386524  -0.031576  -0.002723   0.002724
    12  H   -0.004493  -0.052056   0.362176  -0.047060   0.009222  -0.000424
    13  H   -0.000076   0.007418  -0.053262   0.363584  -0.052356  -0.008406
    14  H    0.000042  -0.003937  -0.034248   0.383788  -0.035179   0.006182
    15  H    0.000003  -0.000101   0.005259  -0.033308   0.345116  -0.040660
    16  H   -0.000000  -0.000001   0.000159   0.005675  -0.033099   0.387265
    17  H    0.000013  -0.000085   0.003370  -0.004781  -0.039703   0.394273
    18  H   -0.000001   0.000025  -0.001648  -0.007221  -0.053671   0.372379
               7          8          9         10         11         12
     1  C    0.374399   0.392404   0.386918  -0.038904  -0.003904  -0.004493
     2  N   -0.051369  -0.038650  -0.034811   0.343007  -0.041231  -0.052056
     3  C   -0.007466  -0.005033   0.005382  -0.039688   0.386524   0.362176
     4  C   -0.000042   0.000148  -0.000233  -0.004002  -0.031576  -0.047060
     5  N    0.000011  -0.000002   0.000001  -0.000101  -0.002723   0.009222
     6  C   -0.000000  -0.000003   0.000000   0.000009   0.002724  -0.000424
     7  H    0.672352  -0.043595  -0.039551  -0.005636  -0.002094   0.013589
     8  H   -0.043595   0.597450  -0.028651   0.005846   0.006791  -0.001771
     9  H   -0.039551  -0.028651   0.607346  -0.002987   0.000134  -0.000220
    10  H   -0.005636   0.005846  -0.002987   0.485308   0.006490  -0.006140
    11  H   -0.002094   0.006791   0.000134   0.006490   0.623826  -0.051220
    12  H    0.013589  -0.001771  -0.000220  -0.006140  -0.051220   0.696531
    13  H    0.000029  -0.000017   0.000006  -0.000623  -0.007819   0.007811
    14  H   -0.000023   0.000008   0.000007   0.005565   0.005569  -0.007274
    15  H    0.000000  -0.000000  -0.000000  -0.000008  -0.000108  -0.000074
    16  H   -0.000000   0.000000   0.000000   0.000000  -0.000112  -0.000053
    17  H    0.000002  -0.000006  -0.000000  -0.000003   0.000942  -0.000022
    18  H   -0.000000   0.000000   0.000000   0.000001   0.000197   0.000241
              13         14         15         16         17         18
     1  C   -0.000076   0.000042   0.000003  -0.000000   0.000013  -0.000001
     2  N    0.007418  -0.003937  -0.000101  -0.000001  -0.000085   0.000025
     3  C   -0.053262  -0.034248   0.005259   0.000159   0.003370  -0.001648
     4  C    0.363584   0.383788  -0.033308   0.005675  -0.004781  -0.007221
     5  N   -0.052356  -0.035179   0.345116  -0.033099  -0.039703  -0.053671
     6  C   -0.008406   0.006182  -0.040660   0.387265   0.394273   0.372379
     7  H    0.000029  -0.000023   0.000000  -0.000000   0.000002  -0.000000
     8  H   -0.000017   0.000008  -0.000000   0.000000  -0.000006   0.000000
     9  H    0.000006   0.000007  -0.000000   0.000000  -0.000000   0.000000
    10  H   -0.000623   0.005565  -0.000008   0.000000  -0.000003   0.000001
    11  H   -0.007819   0.005569  -0.000108  -0.000112   0.000942   0.000197
    12  H    0.007811  -0.007274  -0.000074  -0.000053  -0.000022   0.000241
    13  H    0.697145  -0.044874  -0.003015  -0.000178  -0.001522   0.015826
    14  H   -0.044874   0.633385  -0.005902  -0.000270   0.000007  -0.000130
    15  H   -0.003015  -0.005902   0.480682  -0.004551   0.005838  -0.004691
    16  H   -0.000178  -0.000270  -0.004551   0.603703  -0.028580  -0.038113
    17  H   -0.001522   0.000007   0.005838  -0.028580   0.597079  -0.045210
    18  H    0.015826  -0.000130  -0.004691  -0.038113  -0.045210   0.673392
 Mulliken charges:
               1
     1  C   -0.172491
     2  N   -0.536428
     3  C   -0.025706
     4  C   -0.057025
     5  N   -0.528047
     6  C   -0.180440
     7  H    0.089395
     8  H    0.115080
     9  H    0.106662
    10  H    0.251865
    11  H    0.107591
    12  H    0.081237
    13  H    0.080331
    14  H    0.097286
    15  H    0.255520
    16  H    0.108157
    17  H    0.118389
    18  H    0.088626
 Sum of Mulliken charges =  -0.00000
 Mulliken charges with hydrogens summed into heavy atoms:
               1
     1  C    0.138646
     2  N   -0.284563
     3  C    0.163122
     4  C    0.120591
     5  N   -0.272527
     6  C    0.134731
 APT charges:
               1
     1  C   -1.158515
     2  N   -0.726223
     3  C   -0.423172
     4  C   -0.559195
     5  N   -0.899901
     6  C   -1.053122
     7  H    0.298734
     8  H    0.336128
     9  H    0.608175
    10  H    0.511270
    11  H    0.291549
    12  H    0.280641
    13  H    0.293232
    14  H    0.365518
    15  H    0.686253
    16  H    0.628999
    17  H    0.211624
    18  H    0.308003
 Sum of APT charges =  -0.00000
 APT charges with hydrogens summed into heavy atoms:
               1
     1  C    0.084522
     2  N   -0.214953
     3  C    0.149019
     4  C    0.099556
     5  N   -0.213648
     6  C    0.095504
 Electronic spatial extent (au):  <R**2>=            946.7394
 Charge=             -0.0000 electrons
 Dipole moment (field-independent basis, Debye):
    X=             -0.2148    Y=             -0.4282    Z=             -0.0808  Tot=              0.4858
 Quadrupole moment (field-independent basis, Debye-Ang):
   XX=            -35.0321   YY=            -36.1400   ZZ=            -43.6713
   XY=              0.5699   XZ=             -4.4473   YZ=              0.8398
 Traceless Quadrupole moment (field-independent basis, Debye-Ang):
   XX=              3.2490   YY=              2.1411   ZZ=             -5.3902
   XY=              0.5699   XZ=             -4.4473   YZ=              0.8398
 Octapole moment (field-independent basis, Debye-Ang**2):
  XXX=             -5.9076  YYY=             -5.9159  ZZZ=              0.1201  XYY=             -1.0268
  XXY=             -5.5750  XXZ=              0.6319  XZZ=              0.8236  YZZ=              0.4571
  YYZ=             -0.8879  XYZ=              3.0835
 Hexadecapole moment (field-independent basis, Debye-Ang**3):
 XXXX=           -933.6529 YYYY=           -153.5930 ZZZZ=            -88.9320 XXXY=              6.2057
 XXXZ=             -2.5048 YYYX=              1.8239 YYYZ=              3.2846 ZZZX=             -7.1821
 ZZZY=              0.5203 XXYY=           -179.6349 XXZZ=           -196.6859 YYZZ=            -43.2358
 XXYZ=              1.6925 YYXZ=              1.3783 ZZXY=              0.4165
 N-N= 2.527479759708D+02 E-N=-1.129705328144D+03  KE= 2.665401616168D+02
  Exact polarizability:   0.000   0.000   0.000   0.000   0.000   0.000
 Approx polarizability:  80.823  -1.162  77.530   0.722   0.673  70.880
 D2PCM: PCM CHGder 2nd derivatives, FixD1E=F FixD2E=F DoIter=F DoCFld=F I1PDM=0
 Calling FoFJK, ICntrl=    100147 FMM=F ISym2X=0 I1Cent= 0 IOpClX= 0 NMat=1 NMatS=1 NMatT=0.
 ***** Axes restored to original set *****
 -------------------------------------------------------------------
 Center     Atomic                   Forces (Hartrees/Bohr)
 Number     Number              X              Y              Z
 -------------------------------------------------------------------
      1        6          -0.004311123   -0.006304886    0.005078479
      2        7           0.009016121   -0.002684773   -0.009721029
      3        6           0.003815720   -0.009113822    0.008274776
      4        6           0.001908216    0.000776066    0.006328682
      5        7          -0.008246274    0.006016955    0.002421307
      6        6           0.007599594    0.001435527    0.004115381
      7        1          -0.003985787    0.007125729   -0.001392255
      8        1           0.002195212    0.000273964    0.000695666
      9        1          -0.000916673    0.000179918   -0.000124173
     10        1           0.000503269    0.001701074   -0.001822988
     11        1          -0.003155216   -0.000173339   -0.000247334
     12        1           0.004414310    0.006858467    0.000553272
     13        1          -0.004529960   -0.003954009   -0.005052076
     14        1          -0.000891550   -0.000147747    0.000169283
     15        1          -0.002973029    0.001515449   -0.001595870
     16        1           0.000222610    0.000163677   -0.000303556
     17        1          -0.001162825   -0.001430064    0.000586059
     18        1           0.000497387   -0.002238187   -0.007963625
 -------------------------------------------------------------------
 Cartesian Forces:  Max     0.009721029 RMS     0.004241197
 FormGI is forming the generalized inverse of G from B-inverse, IUseBI=4.

 GradGradGradGradGradGradGradGradGradGradGradGradGradGradGradGradGradGrad
 Berny optimization.
 Internal  Forces:  Max     0.008082401 RMS     0.003165295
 Search for a local minimum.
 Step number   1 out of a maximum of   90
 All quantities printed in internal units (Hartrees-Bohrs-Radians)
 Mixed Optimization -- RFO/linear search
 Second derivative matrix not updated -- analytic derivatives used.
 ITU=  0
     Eigenvalues ---    0.00145   0.00294   0.00352   0.00377   0.00465
     Eigenvalues ---    0.02391   0.02425   0.04287   0.04495   0.04631
     Eigenvalues ---    0.05299   0.06257   0.06265   0.06427   0.06438
     Eigenvalues ---    0.08012   0.08619   0.09882   0.10280   0.11692
     Eigenvalues ---    0.13153   0.13216   0.14105   0.16245   0.16531
     Eigenvalues ---    0.17761   0.17904   0.18346   0.23217   0.24522
     Eigenvalues ---    0.25382   0.27083   0.31457   0.32112   0.32501
     Eigenvalues ---    0.32606   0.32756   0.33260   0.33676   0.33693
     Eigenvalues ---    0.33925   0.34018   0.35263   0.36218   0.38146
     Eigenvalues ---    0.38808   0.43255   0.43330
 RFO step:  Lambda=-4.57076687D-03 EMin= 1.44715749D-03
 Linear search not attempted -- first point.
 Iteration  1 RMS(Cart)=  0.03559284 RMS(Int)=  0.00085179
 Iteration  2 RMS(Cart)=  0.00132284 RMS(Int)=  0.00021756
 Iteration  3 RMS(Cart)=  0.00000180 RMS(Int)=  0.00021756
 Iteration  4 RMS(Cart)=  0.00000000 RMS(Int)=  0.00021756
 Variable       Old X    -DE/DX   Delta X   Delta X   Delta X     New X
                                 (Linear)    (Quad)   (Total)
    R1        2.75399   0.00473   0.00000   0.00747   0.00747   2.76146
    R2        2.06902   0.00595   0.00000   0.01731   0.01731   2.08633
    R3        2.06885  -0.00029   0.00000   0.00186   0.00186   2.07071
    R4        2.06812   0.00059   0.00000  -0.00021  -0.00021   2.06791
    R5        2.77791  -0.00227   0.00000  -0.01383  -0.01383   2.76407
    R6        1.92783  -0.00228   0.00000  -0.00292  -0.00292   1.92491
    R7        2.91577  -0.00759   0.00000  -0.02290  -0.02290   2.89286
    R8        2.07057  -0.00036   0.00000   0.00257   0.00257   2.07315
    R9        2.07312   0.00504   0.00000   0.01600   0.01600   2.08912
   R10        2.77790  -0.00027   0.00000  -0.00821  -0.00821   2.76969
   R11        2.07383   0.00498   0.00000   0.01477   0.01477   2.08860
   R12        2.07368   0.00039   0.00000   0.00027   0.00027   2.07395
   R13        2.75519   0.00535   0.00000   0.01071   0.01071   2.76590
   R14        1.92839  -0.00365   0.00000  -0.00706  -0.00706   1.92133
   R15        2.06878   0.00023   0.00000  -0.00136  -0.00136   2.06742
   R16        2.06684  -0.00041   0.00000   0.00097   0.00097   2.06781
   R17        2.06885   0.00630   0.00000   0.01792   0.01792   2.08677
    A1        1.94682   0.00808   0.00000   0.04376   0.04362   1.99044
    A2        1.94090  -0.00515   0.00000  -0.02971  -0.02955   1.91136
    A3        1.90970   0.00092   0.00000   0.00501   0.00466   1.91436
    A4        1.90478  -0.00296   0.00000  -0.02845  -0.02813   1.87666
    A5        1.88337  -0.00203   0.00000   0.00295   0.00235   1.88573
    A6        1.87602   0.00096   0.00000   0.00606   0.00602   1.88204
    A7        1.93287   0.00736   0.00000   0.03176   0.03181   1.96468
    A8        1.90189  -0.00221   0.00000  -0.01109  -0.01101   1.89088
    A9        1.90162  -0.00302   0.00000  -0.01209  -0.01202   1.88960
   A10        1.93194  -0.00264   0.00000  -0.00306  -0.00328   1.92866
   A11        1.90525  -0.00281   0.00000  -0.02777  -0.02758   1.87766
   A12        1.91790   0.00602   0.00000   0.05511   0.05520   1.97310
   A13        1.91357   0.00339   0.00000   0.01115   0.01100   1.92457
   A14        1.90747  -0.00236   0.00000  -0.00968  -0.01009   1.89739
   A15        1.88715  -0.00156   0.00000  -0.02624  -0.02591   1.86125
   A16        1.99180  -0.00602   0.00000  -0.02900  -0.02894   1.96286
   A17        1.92704  -0.00282   0.00000  -0.02899  -0.02865   1.89839
   A18        1.89086   0.00117   0.00000   0.00063   0.00068   1.89154
   A19        1.92452   0.00644   0.00000   0.04423   0.04376   1.96829
   A20        1.86666   0.00175   0.00000   0.00794   0.00762   1.87428
   A21        1.85672  -0.00009   0.00000   0.00812   0.00763   1.86434
   A22        1.95931   0.00633   0.00000   0.02368   0.02370   1.98301
   A23        1.88740  -0.00247   0.00000  -0.00710  -0.00706   1.88034
   A24        1.89060  -0.00193   0.00000  -0.00847  -0.00845   1.88215
   A25        1.90554   0.00037   0.00000   0.00198   0.00173   1.90727
   A26        1.95060  -0.00398   0.00000  -0.02312  -0.02302   1.92758
   A27        1.94884   0.00720   0.00000   0.03722   0.03711   1.98595
   A28        1.86731   0.00084   0.00000   0.00724   0.00720   1.87451
   A29        1.88026  -0.00146   0.00000   0.00653   0.00611   1.88637
   A30        1.90817  -0.00314   0.00000  -0.02988  -0.02967   1.87851
    D1       -1.05932   0.00240   0.00000   0.06315   0.06351  -0.99580
    D2        1.03219   0.00178   0.00000   0.06070   0.06104   1.09323
    D3        1.07151   0.00064   0.00000   0.03637   0.03624   1.10775
    D4       -3.12017   0.00003   0.00000   0.03392   0.03377  -3.08641
    D5        3.14130  -0.00074   0.00000   0.02882   0.02862  -3.11326
    D6       -1.05038  -0.00136   0.00000   0.02638   0.02615  -1.02423
    D7       -3.13685  -0.00063   0.00000   0.00668   0.00678  -3.13006
    D8       -1.02900   0.00010   0.00000   0.00064   0.00084  -1.02815
    D9        1.03785   0.00008   0.00000  -0.01537  -0.01572   1.02212
   D10        1.05468  -0.00050   0.00000   0.00854   0.00867   1.06335
   D11       -3.12066   0.00023   0.00000   0.00249   0.00273  -3.11793
   D12       -1.05381   0.00021   0.00000  -0.01351  -0.01384  -1.06765
   D13       -3.04717  -0.00155   0.00000  -0.02796  -0.02780  -3.07497
   D14        1.05678  -0.00328   0.00000  -0.04155  -0.04169   1.01509
   D15       -0.97004  -0.00230   0.00000  -0.03568  -0.03562  -1.00566
   D16        1.13312   0.00143   0.00000   0.00131   0.00148   1.13459
   D17       -1.04612  -0.00031   0.00000  -0.01228  -0.01241  -1.05853
   D18       -3.07294   0.00068   0.00000  -0.00641  -0.00634  -3.07928
   D19       -0.93250   0.00273   0.00000   0.03235   0.03242  -0.90008
   D20       -3.11174   0.00099   0.00000   0.01876   0.01853  -3.09320
   D21        1.14463   0.00198   0.00000   0.02463   0.02460   1.16923
   D22       -1.22495  -0.00003   0.00000  -0.06831  -0.06810  -1.29304
   D23        2.97356   0.00014   0.00000  -0.06755  -0.06732   2.90624
   D24        0.95562  -0.00321   0.00000  -0.09358  -0.09406   0.86157
   D25       -1.12905  -0.00303   0.00000  -0.09281  -0.09328  -1.22233
   D26        2.96745   0.00095   0.00000  -0.05697  -0.05672   2.91072
   D27        0.88277   0.00112   0.00000  -0.05620  -0.05595   0.82682
   D28       -3.05879  -0.00070   0.00000   0.02221   0.02207  -3.03672
   D29        1.16210   0.00045   0.00000   0.02606   0.02597   1.18807
   D30       -0.98154   0.00218   0.00000   0.05460   0.05485  -0.92668
   D31       -0.97599  -0.00118   0.00000   0.02229   0.02213  -0.95386
   D32       -3.03828  -0.00003   0.00000   0.02614   0.02604  -3.01224
   D33        1.10127   0.00170   0.00000   0.05468   0.05492   1.15619
         Item               Value     Threshold  Converged?
 Maximum Force            0.008082     0.000450     NO 
 RMS     Force            0.003165     0.000300     NO 
 Maximum Displacement     0.098024     0.001800     NO 
 RMS     Displacement     0.035933     0.001200     NO 
 Predicted change in Energy=-2.465177D-03
 GradGradGradGradGradGradGradGradGradGradGradGradGradGradGradGradGradGrad

                          Input orientation:                          
 ---------------------------------------------------------------------
 Center     Atomic      Atomic             Coordinates (Angstroms)
 Number     Number       Type             X           Y           Z
 ---------------------------------------------------------------------
      1          6           0       -2.850469   -0.111012   -0.131901
      2          7           0       -1.642096   -0.756034    0.377206
      3          6           0       -0.490194    0.145191    0.396209
      4          6           0        0.750678   -0.581632    0.921023
      5          7           0        1.910313    0.306409    1.042569
      6          6           0        2.516857    0.658011   -0.242247
      7          1           0       -3.145190    0.795534    0.425064
      8          1           0       -2.697670    0.179192   -1.177440
      9          1           0       -3.686644   -0.816118   -0.098593
     10          1           0       -1.821394   -1.065147    1.331083
     11          1           0       -0.322320    0.490146   -0.631590
     12          1           0       -0.657915    1.049139    1.010137
     13          1           0        0.948460   -1.457907    0.277145
     14          1           0        0.527102   -0.968207    1.923548
     15          1           0        2.612920   -0.175813    1.597121
     16          1           0        3.432407    1.230062   -0.064961
     17          1           0        1.841145    1.293498   -0.822703
     18          1           0        2.774011   -0.215312   -0.867220
 ---------------------------------------------------------------------
                    Distance matrix (angstroms):
                    1          2          3          4          5
     1  C    0.000000
     2  N    1.461303   0.000000
     3  C    2.432168   1.462685   0.000000
     4  C    3.781321   2.459984   1.530838   0.000000
     5  N    4.921246   3.767108   2.491225   1.465655   0.000000
     6  C    5.423261   4.436230   3.116562   2.451388   1.463649
     7  H    1.104036   2.160774   2.733640   4.161772   5.116510
     8  H    1.095773   2.099002   2.711177   4.107737   5.116457
     9  H    1.094291   2.100041   3.374351   4.558994   5.821361
    10  H    2.027237   1.018616   2.027560   2.649054   3.986231
    11  H    2.646246   2.076642   1.097062   2.170401   2.796644
    12  H    2.730841   2.151247   1.105513   2.156731   2.673667
    13  H    4.051333   2.685818   2.157272   1.105239   2.150313
    14  H    4.045693   2.672380   2.146465   1.097489   2.077028
    15  H    5.730823   4.464305   3.342835   2.022312   1.016722
    16  H    6.424756   5.467237   4.095903   3.383205   2.096790
    17  H    4.945816   4.215843   2.870452   2.783130   2.111484
    18  H    5.673301   4.619846   3.518699   2.725047   2.159967
                    6          7          8          9         10
     6  C    0.000000
     7  H    5.702894   0.000000
     8  H    5.319318   1.774308   0.000000
     9  H    6.377862   1.778991   1.769922   0.000000
    10  H    4.925957   2.456713   2.934098   2.363292   0.000000
    11  H    2.870660   3.029584   2.457017   3.648163   2.918603
    12  H    3.435203   2.567716   3.114948   3.725810   2.434521
    13  H    2.684538   4.675237   4.253255   4.694386   2.989504
    14  H    3.360711   4.340733   4.618637   4.676306   2.424014
    15  H    2.021821   5.955927   6.002215   6.555147   4.530434
    16  H    1.094031   6.610123   6.318211   7.407353   5.900792
    17  H    1.094239   5.164149   4.687042   5.960811   4.859649
    18  H    1.104270   6.142373   5.494648   6.533898   5.164542
                   11         12         13         14         15
    11  H    0.000000
    12  H    1.766455   0.000000
    13  H    2.497116   3.066430   0.000000
    14  H    3.062195   2.511627   1.768613   0.000000
    15  H    3.745168   3.541669   2.481236   2.255013   0.000000
    16  H    3.868658   4.233120   3.675895   4.150585   2.326061
    17  H    2.315703   3.108748   3.094637   3.792613   2.934289
    18  H    3.184408   4.111133   2.487217   3.661125   2.469916
                   16         17         18
    16  H    0.000000
    17  H    1.763607   0.000000
    18  H    1.779385   1.774465   0.000000
 Stoichiometry    C4H12N2
 Framework group  C1[X(C4H12N2)]
 Deg. of freedom    48
 Full point group                 C1      NOp   1
 Largest Abelian subgroup         C1      NOp   1
 Largest concise Abelian subgroup C1      NOp   1
                         Standard orientation:                         
 ---------------------------------------------------------------------
 Center     Atomic      Atomic             Coordinates (Angstroms)
 Number     Number       Type             X           Y           Z
 ---------------------------------------------------------------------
      1          6           0        2.880621    0.472400   -0.054460
      2          7           0        1.746494   -0.372215    0.314033
      3          6           0        0.481873    0.114355   -0.236815
      4          6           0       -0.673963   -0.793771    0.190751
      5          7           0       -1.950119   -0.396826   -0.410920
      6          6           0       -2.526926    0.811139    0.181013
      7          1           0        3.015794    0.594045   -1.143417
      8          1           0        2.747655    1.471626    0.375176
      9          1           0        3.803028    0.050898    0.356604
     10          1           0        1.913379   -1.309201   -0.048988
     11          1           0        0.325448    1.132205    0.141417
     12          1           0        0.488651    0.184139   -1.340102
     13          1           0       -0.712621   -0.824192    1.294895
     14          1           0       -0.455300   -1.814649   -0.147594
     15          1           0       -2.609146   -1.158068   -0.269794
     16          1           0       -3.521167    0.981566   -0.242478
     17          1           0       -1.914227    1.685042   -0.060342
     18          1           0       -2.625753    0.765131    1.279889
 ---------------------------------------------------------------------
 Rotational constants (GHZ):          10.1235417           1.4088776           1.3149413
 Standard basis: 6-31G(d,p) (6D, 7F)
 There are   150 symmetry adapted cartesian basis functions of A   symmetry.
 There are   150 symmetry adapted basis functions of A   symmetry.
   150 basis functions,   252 primitive gaussians,   150 cartesian basis functions
    25 alpha electrons       25 beta electrons
       nuclear repulsion energy       252.6970480904 Hartrees.
 NAtoms=   18 NActive=   18 NUniq=   18 SFac= 1.00D+00 NAtFMM=   60 NAOKFM=F Big=F
 Integral buffers will be    131072 words long.
 Raffenetti 2 integral format.
 Two-electron integral symmetry is turned on.
 ------------------------------------------------------------------------------
 Polarizable Continuum Model (PCM)
 =================================
 Model                : PCM.
 Atomic radii         : UFF (Universal Force Field).
 Polarization charges : Total charges.
 Charge compensation  : None.
 Solution method      : Matrix inversion.
 Cavity type          : Scaled VdW (van der Waals Surface) (Alpha=1.100).
 Cavity algorithm     : GePol (No added spheres)
                        Default sphere list used, NSphG=   18.
                        Lebedev-Laikov grids with approx.  5.0 points / Ang**2.
                        Smoothing algorithm: York/Karplus (Gamma=1.0000).
                        Polarization charges: spherical gaussians, with
                                              point-specific exponents (IZeta= 3).
                        Self-potential: point-specific (ISelfS= 7).
                        Self-field    : sphere-specific E.n sum rule (ISelfD= 2).
 1st derivatives      : Analytical E(r).r(x)/FMM algorithm (CHGder, D1EAlg=3).
                        Cavity 1st derivative terms included.
 Solvent              : Water, Eps=  78.355300 Eps(inf)=   1.777849
 ------------------------------------------------------------------------------
 Spheres list:
 ISph  on   Nord     Re0    Alpha      Xe            Ye            Ze
    1   C      1    1.9255  1.100      2.880621      0.472400     -0.054460
    2   N      2    1.8300  1.100      1.746494     -0.372215      0.314033
    3   C      3    1.9255  1.100      0.481873      0.114355     -0.236815
    4   C      4    1.9255  1.100     -0.673963     -0.793771      0.190751
    5   N      5    1.8300  1.100     -1.950119     -0.396826     -0.410920
    6   C      6    1.9255  1.100     -2.526926      0.811139      0.181013
    7   H      7    1.4430  1.100      3.015794      0.594045     -1.143417
    8   H      8    1.4430  1.100      2.747655      1.471626      0.375176
    9   H      9    1.4430  1.100      3.803028      0.050898      0.356604
   10   H     10    1.4430  1.100      1.913379     -1.309201     -0.048988
   11   H     11    1.4430  1.100      0.325448      1.132205      0.141417
   12   H     12    1.4430  1.100      0.488651      0.184139     -1.340102
   13   H     13    1.4430  1.100     -0.712621     -0.824192      1.294895
   14   H     14    1.4430  1.100     -0.455300     -1.814649     -0.147594
   15   H     15    1.4430  1.100     -2.609146     -1.158068     -0.269794
   16   H     16    1.4430  1.100     -3.521167      0.981566     -0.242478
   17   H     17    1.4430  1.100     -1.914227      1.685042     -0.060342
   18   H     18    1.4430  1.100     -2.625753      0.765131      1.279889
 ------------------------------------------------------------------------------
 One-electron integrals computed using PRISM.
 NBasis=   150 RedAO= T EigKep=  3.46D-03  NBF=   150
 NBsUse=   150 1.00D-06 EigRej= -1.00D+00 NBFU=   150
 Initial guess from the checkpoint file:  "KVKFRMCSXWQSNT-UHFFFAOYSA-N_conf_0_0.chk"
 B after Tr=     0.000000    0.000000   -0.000000
         Rot=    0.999996    0.002371    0.000301   -0.001561 Ang=   0.33 deg.
 ExpMin= 1.61D-01 ExpMax= 4.17D+03 ExpMxC= 6.27D+02 IAcc=2 IRadAn=         4 AccDes= 0.00D+00
 Harris functional with IExCor=  402 and IRadAn=       4 diagonalized for initial guess.
 HarFok:  IExCor=  402 AccDes= 0.00D+00 IRadAn=         4 IDoV= 1 UseB2=F ITyADJ=14
 ICtDFT=  3500011 ScaDFX=  1.000000  1.000000  1.000000  1.000000
 FoFCou: FMM=F IPFlag=           0 FMFlag=      100000 FMFlg1=           0
         NFxFlg=           0 DoJE=T BraDBF=F KetDBF=T FulRan=T
         wScrn=  0.000000 ICntrl=       500 IOpCl=  0 I1Cent=   200000004 NGrid=           0
         NMat0=    1 NMatS0=      1 NMatT0=    0 NMatD0=    1 NMtDS0=    0 NMtDT0=    0
 Petite list used in FoFCou.
 Keep R1 ints in memory in canonical form, NReq=67061194.
 Requested convergence on RMS density matrix=1.00D-08 within  32 cycles.
 Requested convergence on MAX density matrix=1.00D-06.
 Requested convergence on             energy=1.00D-06.
 No special actions if energy rises.
 Inv3:  Mode=1 IEnd=     5274828.
 Iteration    1 A*A^-1 deviation from unit magnitude is 5.55D-15 for    582.
 Iteration    1 A*A^-1 deviation from orthogonality  is 4.51D-15 for   1187    826.
 Iteration    1 A^-1*A deviation from unit magnitude is 5.77D-15 for    582.
 Iteration    1 A^-1*A deviation from orthogonality  is 4.23D-15 for    883    735.
 Error on total polarization charges =  0.00874
 SCF Done:  E(RB3LYP) =  -269.151248991     A.U. after    9 cycles
            NFock=  9  Conv=0.63D-08     -V/T= 2.0099
 QCSCF skips out because SCF is already converged.
 D1PCM: PCM CHGder 1st derivatives, ID1Alg=3 FixD1E=F DoIter=F DoCFld=F I1PDM=0.
 Calling FoFJK, ICntrl=      2127 FMM=F ISym2X=0 I1Cent= 0 IOpClX= 0 NMat=1 NMatS=1 NMatT=0.
 ***** Axes restored to original set *****
 -------------------------------------------------------------------
 Center     Atomic                   Forces (Hartrees/Bohr)
 Number     Number              X              Y              Z
 -------------------------------------------------------------------
      1        6          -0.000335532   -0.000348403    0.000462298
      2        7           0.000368002   -0.000092224   -0.000709581
      3        6          -0.000327446   -0.000115760    0.001007472
      4        6           0.000615297   -0.000520763    0.000488092
      5        7          -0.000496195    0.000560790   -0.000580340
      6        6           0.000800414   -0.000318176    0.000302226
      7        1          -0.000078811    0.000424967   -0.000295442
      8        1          -0.000046179   -0.000109757   -0.000047030
      9        1          -0.000081081    0.000066965    0.000054113
     10        1          -0.000100362   -0.000263716   -0.000094382
     11        1           0.000008391    0.000075899   -0.000023683
     12        1           0.000228169    0.000390958   -0.000141150
     13        1          -0.000416016    0.000042746   -0.000428301
     14        1           0.000066142   -0.000210968   -0.000033178
     15        1          -0.000120745    0.000432814    0.000503330
     16        1           0.000066580   -0.000044845   -0.000049266
     17        1           0.000023040    0.000071919    0.000040764
     18        1          -0.000173668   -0.000042445   -0.000455940
 -------------------------------------------------------------------
 Cartesian Forces:  Max     0.001007472 RMS     0.000349427

 GradGradGradGradGradGradGradGradGradGradGradGradGradGradGradGradGradGrad
 Berny optimization.
 Using GEDIIS/GDIIS optimizer.
 FormGI is forming the generalized inverse of G from B-inverse, IUseBI=4.
 Internal  Forces:  Max     0.000462027 RMS     0.000207491
 Search for a local minimum.
 Step number   2 out of a maximum of   90
 All quantities printed in internal units (Hartrees-Bohrs-Radians)
 Mixed Optimization -- En-DIIS/RFO-DIIS
 Update second derivatives using D2CorX and points    1    2
 DE= -2.48D-03 DEPred=-2.47D-03 R= 1.01D+00
 TightC=F SS=  1.41D+00  RLast= 2.80D-01 DXNew= 5.0454D-01 8.4147D-01
 Trust test= 1.01D+00 RLast= 2.80D-01 DXMaxT set to 5.05D-01
 ITU=  1  0
 Use linear search instead of GDIIS.
     Eigenvalues ---    0.00145   0.00294   0.00352   0.00377   0.00465
     Eigenvalues ---    0.02391   0.02425   0.04286   0.04493   0.04632
     Eigenvalues ---    0.05295   0.06257   0.06271   0.06418   0.06434
     Eigenvalues ---    0.08010   0.08588   0.09881   0.10275   0.11694
     Eigenvalues ---    0.13148   0.13202   0.14110   0.16239   0.16507
     Eigenvalues ---    0.17676   0.17858   0.18331   0.23178   0.24586
     Eigenvalues ---    0.25381   0.27096   0.31457   0.32137   0.32487
     Eigenvalues ---    0.32606   0.32761   0.33268   0.33676   0.33688
     Eigenvalues ---    0.33925   0.34014   0.35277   0.36279   0.38127
     Eigenvalues ---    0.38490   0.43272   0.43334
 RFO step:  Lambda=-2.62415649D-04 EMin= 1.44725112D-03
 Quartic linear search produced a step of  0.10061.
 Iteration  1 RMS(Cart)=  0.05679459 RMS(Int)=  0.00144613
 Iteration  2 RMS(Cart)=  0.00192794 RMS(Int)=  0.00002422
 Iteration  3 RMS(Cart)=  0.00000238 RMS(Int)=  0.00002419
 Iteration  4 RMS(Cart)=  0.00000000 RMS(Int)=  0.00002419
 Variable       Old X    -DE/DX   Delta X   Delta X   Delta X     New X
                                 (Linear)    (Quad)   (Total)
    R1        2.76146   0.00041   0.00075  -0.00066   0.00009   2.76156
    R2        2.08633   0.00023   0.00174  -0.00073   0.00101   2.08733
    R3        2.07071   0.00001   0.00019   0.00043   0.00062   2.07133
    R4        2.06791   0.00002  -0.00002  -0.00027  -0.00029   2.06762
    R5        2.76407   0.00041  -0.00139   0.00118  -0.00021   2.76386
    R6        1.92491   0.00001  -0.00029   0.00046   0.00016   1.92507
    R7        2.89286   0.00024  -0.00230   0.00421   0.00190   2.89477
    R8        2.07315   0.00005   0.00026   0.00085   0.00111   2.07426
    R9        2.08912   0.00021   0.00161  -0.00147   0.00013   2.08925
   R10        2.76969   0.00045  -0.00083  -0.00049  -0.00132   2.76837
   R11        2.08860   0.00014   0.00149  -0.00103   0.00046   2.08906
   R12        2.07395   0.00003   0.00003  -0.00052  -0.00049   2.07347
   R13        2.76590   0.00036   0.00108  -0.00166  -0.00058   2.76532
   R14        1.92133  -0.00001  -0.00071   0.00001  -0.00070   1.92063
   R15        2.06742   0.00002  -0.00014  -0.00005  -0.00018   2.06723
   R16        2.06781   0.00000   0.00010   0.00076   0.00085   2.06867
   R17        2.08677   0.00025   0.00180  -0.00115   0.00066   2.08742
    A1        1.99044   0.00043   0.00439  -0.00211   0.00227   1.99270
    A2        1.91136  -0.00015  -0.00297   0.00297   0.00002   1.91137
    A3        1.91436   0.00008   0.00047  -0.00065  -0.00022   1.91414
    A4        1.87666  -0.00023  -0.00283   0.00057  -0.00223   1.87443
    A5        1.88573  -0.00010   0.00024   0.00030   0.00047   1.88620
    A6        1.88204  -0.00006   0.00061  -0.00107  -0.00046   1.88158
    A7        1.96468   0.00044   0.00320  -0.00123   0.00197   1.96665
    A8        1.89088  -0.00013  -0.00111   0.00101  -0.00010   1.89078
    A9        1.88960  -0.00012  -0.00121   0.00271   0.00151   1.89111
   A10        1.92866   0.00000  -0.00033   0.00325   0.00290   1.93155
   A11        1.87766  -0.00010  -0.00278   0.00281   0.00006   1.87773
   A12        1.97310   0.00029   0.00555  -0.00250   0.00306   1.97616
   A13        1.92457  -0.00002   0.00111  -0.00471  -0.00362   1.92095
   A14        1.89739  -0.00006  -0.00101   0.00162   0.00055   1.89794
   A15        1.86125  -0.00012  -0.00261  -0.00083  -0.00340   1.85784
   A16        1.96286  -0.00002  -0.00291  -0.00158  -0.00449   1.95837
   A17        1.89839  -0.00025  -0.00288   0.00004  -0.00281   1.89557
   A18        1.89154  -0.00008   0.00007   0.00188   0.00196   1.89350
   A19        1.96829   0.00024   0.00440  -0.00363   0.00070   1.96899
   A20        1.87428   0.00007   0.00077   0.00330   0.00404   1.87832
   A21        1.86434   0.00004   0.00077   0.00035   0.00107   1.86541
   A22        1.98301   0.00039   0.00238  -0.00186   0.00051   1.98352
   A23        1.88034  -0.00011  -0.00071   0.00640   0.00567   1.88601
   A24        1.88215  -0.00014  -0.00085   0.00497   0.00410   1.88625
   A25        1.90727   0.00007   0.00017   0.00146   0.00161   1.90888
   A26        1.92758  -0.00015  -0.00232   0.00178  -0.00053   1.92705
   A27        1.98595   0.00036   0.00373  -0.00353   0.00019   1.98614
   A28        1.87451  -0.00003   0.00072  -0.00072   0.00000   1.87452
   A29        1.88637  -0.00006   0.00061   0.00105   0.00162   1.88798
   A30        1.87851  -0.00020  -0.00298   0.00005  -0.00292   1.87559
    D1       -0.99580   0.00029   0.00639   0.03952   0.04595  -0.94986
    D2        1.09323   0.00032   0.00614   0.04281   0.04899   1.14222
    D3        1.10775   0.00017   0.00365   0.04099   0.04462   1.15237
    D4       -3.08641   0.00020   0.00340   0.04428   0.04766  -3.03875
    D5       -3.11326   0.00006   0.00288   0.04107   0.04393  -3.06933
    D6       -1.02423   0.00009   0.00263   0.04436   0.04697  -0.97726
    D7       -3.13006   0.00007   0.00068  -0.00456  -0.00387  -3.13393
    D8       -1.02815  -0.00001   0.00008  -0.00665  -0.00654  -1.03470
    D9        1.02212  -0.00005  -0.00158  -0.00730  -0.00892   1.01320
   D10        1.06335   0.00005   0.00087  -0.00687  -0.00598   1.05737
   D11       -3.11793  -0.00003   0.00027  -0.00895  -0.00865  -3.12658
   D12       -1.06765  -0.00008  -0.00139  -0.00960  -0.01103  -1.07868
   D13       -3.07497  -0.00015  -0.00280  -0.05268  -0.05546  -3.13044
   D14        1.01509  -0.00026  -0.00419  -0.04688  -0.05109   0.96400
   D15       -1.00566  -0.00013  -0.00358  -0.04832  -0.05190  -1.05756
   D16        1.13459  -0.00001   0.00015  -0.05524  -0.05507   1.07952
   D17       -1.05853  -0.00012  -0.00125  -0.04943  -0.05070  -1.10923
   D18       -3.07928   0.00001  -0.00064  -0.05088  -0.05151  -3.13079
   D19       -0.90008   0.00018   0.00326  -0.05253  -0.04926  -0.94934
   D20       -3.09320   0.00006   0.00186  -0.04673  -0.04489  -3.13809
   D21        1.16923   0.00020   0.00248  -0.04817  -0.04570   1.12353
   D22       -1.29304  -0.00030  -0.00685  -0.08508  -0.09191  -1.38495
   D23        2.90624  -0.00030  -0.00677  -0.09452  -0.10127   2.80497
   D24        0.86157  -0.00046  -0.00946  -0.08906  -0.09857   0.76300
   D25       -1.22233  -0.00046  -0.00939  -0.09849  -0.10793  -1.33027
   D26        2.91072  -0.00024  -0.00571  -0.08860  -0.09428   2.81644
   D27        0.82682  -0.00023  -0.00563  -0.09804  -0.10364   0.72318
   D28       -3.03672   0.00006   0.00222   0.01720   0.01940  -3.01732
   D29        1.18807   0.00014   0.00261   0.01613   0.01873   1.20680
   D30       -0.92668   0.00027   0.00552   0.01723   0.02277  -0.90391
   D31       -0.95386   0.00007   0.00223   0.02745   0.02966  -0.92419
   D32       -3.01224   0.00016   0.00262   0.02638   0.02899  -2.98325
   D33        1.15619   0.00029   0.00553   0.02748   0.03304   1.18922
         Item               Value     Threshold  Converged?
 Maximum Force            0.000462     0.000450     NO 
 RMS     Force            0.000207     0.000300     YES
 Maximum Displacement     0.161572     0.001800     NO 
 RMS     Displacement     0.056474     0.001200     NO 
 Predicted change in Energy=-1.585825D-04
 GradGradGradGradGradGradGradGradGradGradGradGradGradGradGradGradGradGrad

                          Input orientation:                          
 ---------------------------------------------------------------------
 Center     Atomic      Atomic             Coordinates (Angstroms)
 Number     Number       Type             X           Y           Z
 ---------------------------------------------------------------------
      1          6           0       -2.862091   -0.115392   -0.130837
      2          7           0       -1.638511   -0.759210    0.342347
      3          6           0       -0.509461    0.166862    0.424529
      4          6           0        0.748896   -0.556765    0.913864
      5          7           0        1.898686    0.344439    1.023043
      6          6           0        2.548670    0.624457   -0.257769
      7          1           0       -3.159554    0.774415    0.452113
      8          1           0       -2.729221    0.203678   -1.171017
      9          1           0       -3.689187   -0.831143   -0.103465
     10          1           0       -1.813437   -1.135089    1.272869
     11          1           0       -0.342011    0.575646   -0.580307
     12          1           0       -0.702005    1.031476    1.086108
     13          1           0        0.941370   -1.418562    0.248771
     14          1           0        0.549836   -0.963760    1.913186
     15          1           0        2.583127   -0.090794    1.635486
     16          1           0        3.465254    1.195246   -0.082378
     17          1           0        1.897875    1.236465   -0.890431
     18          1           0        2.811763   -0.281969   -0.831661
 ---------------------------------------------------------------------
                    Distance matrix (angstroms):
                    1          2          3          4          5
     1  C    0.000000
     2  N    1.461353   0.000000
     3  C    2.433714   1.462572   0.000000
     4  C    3.784896   2.463195   1.531845   0.000000
     5  N    4.920151   3.767380   2.487756   1.464959   0.000000
     6  C    5.462583   4.450523   3.166558   2.450957   1.463342
     7  H    1.104569   2.162782   2.718984   4.154664   5.108487
     8  H    1.096099   2.099303   2.733945   4.125809   5.123596
     9  H    1.094137   2.099808   3.374233   4.561449   5.820253
    10  H    2.027276   1.018702   2.028574   2.651206   4.003908
    11  H    2.651483   2.077028   1.097651   2.169096   2.764943
    12  H    2.731709   2.153318   1.105584   2.158076   2.690649
    13  H    4.038399   2.664449   2.156241   1.105481   2.150378
    14  H    4.066817   2.701525   2.148608   1.097231   2.079216
    15  H    5.724587   4.465559   3.331202   2.025406   1.016353
    16  H    6.461843   5.481670   4.136773   3.382402   2.097609
    17  H    5.006174   4.243641   2.944221   2.791291   2.111184
    18  H    5.719398   4.627201   3.579105   2.716208   2.160098
                    6          7          8          9         10
     6  C    0.000000
     7  H    5.754150   0.000000
     8  H    5.372821   1.773550   0.000000
     9  H    6.407295   1.779605   1.769762   0.000000
    10  H    4.946396   2.476263   2.933178   2.346298   0.000000
    11  H    2.909028   3.007317   2.487181   3.661970   2.919927
    12  H    3.540983   2.550995   3.144752   3.715870   2.442164
    13  H    2.648380   4.654898   4.256841   4.680939   2.952642
    14  H    3.351241   4.349202   4.650530   4.696145   2.454469
    15  H    2.024151   5.926833   6.015332   6.550877   4.533412
    16  H    1.093934   6.659645   6.367092   7.435908   5.927204
    17  H    1.094691   5.252952   4.749252   6.009125   4.906932
    18  H    1.104617   6.198439   5.572568   6.564618   5.152605
                   11         12         13         14         15
    11  H    0.000000
    12  H    1.764742   0.000000
    13  H    2.512231   3.066676   0.000000
    14  H    3.063114   2.496423   1.769300   0.000000
    15  H    3.729653   3.514741   2.526126   2.230126   0.000000
    16  H    3.889358   4.331078   3.648512   4.140441   2.320151
    17  H    2.355833   3.272324   3.043329   3.810311   2.934526
    18  H    3.277952   4.213020   2.440808   3.621511   2.485083
                   16         17         18
    16  H    0.000000
    17  H    1.763896   0.000000
    18  H    1.780630   1.773214   0.000000
 Stoichiometry    C4H12N2
 Framework group  C1[X(C4H12N2)]
 Deg. of freedom    48
 Full point group                 C1      NOp   1
 Largest Abelian subgroup         C1      NOp   1
 Largest concise Abelian subgroup C1      NOp   1
                         Standard orientation:                         
 ---------------------------------------------------------------------
 Center     Atomic      Atomic             Coordinates (Angstroms)
 Number     Number       Type             X           Y           Z
 ---------------------------------------------------------------------
      1          6           0        2.891032    0.466879   -0.058663
      2          7           0        1.744874   -0.342533    0.349658
      3          6           0        0.495928    0.092930   -0.274537
      4          6           0       -0.674449   -0.777939    0.192745
      5          7           0       -1.941899   -0.379734   -0.424596
      6          6           0       -2.555702    0.793060    0.199238
      7          1           0        3.031430    0.533022   -1.152275
      8          1           0        2.770530    1.488898    0.318681
      9          1           0        3.806491    0.055208    0.376767
     10          1           0        1.920619   -1.307943    0.076067
     11          1           0        0.326959    1.137984    0.015549
     12          1           0        0.531885    0.076669   -1.379417
     13          1           0       -0.710541   -0.757181    1.297442
     14          1           0       -0.474174   -1.816250   -0.100030
     15          1           0       -2.591041   -1.157308   -0.341133
     16          1           0       -3.550352    0.952170   -0.227430
     17          1           0       -1.963196    1.689866   -0.008187
     18          1           0       -2.660289    0.711159    1.295837
 ---------------------------------------------------------------------
 Rotational constants (GHZ):          10.2307525           1.3936287           1.3099988
 Standard basis: 6-31G(d,p) (6D, 7F)
 There are   150 symmetry adapted cartesian basis functions of A   symmetry.
 There are   150 symmetry adapted basis functions of A   symmetry.
   150 basis functions,   252 primitive gaussians,   150 cartesian basis functions
    25 alpha electrons       25 beta electrons
       nuclear repulsion energy       252.3893165328 Hartrees.
 NAtoms=   18 NActive=   18 NUniq=   18 SFac= 1.00D+00 NAtFMM=   60 NAOKFM=F Big=F
 Integral buffers will be    131072 words long.
 Raffenetti 2 integral format.
 Two-electron integral symmetry is turned on.
 ------------------------------------------------------------------------------
 Polarizable Continuum Model (PCM)
 =================================
 Model                : PCM.
 Atomic radii         : UFF (Universal Force Field).
 Polarization charges : Total charges.
 Charge compensation  : None.
 Solution method      : Matrix inversion.
 Cavity type          : Scaled VdW (van der Waals Surface) (Alpha=1.100).
 Cavity algorithm     : GePol (No added spheres)
                        Default sphere list used, NSphG=   18.
                        Lebedev-Laikov grids with approx.  5.0 points / Ang**2.
                        Smoothing algorithm: York/Karplus (Gamma=1.0000).
                        Polarization charges: spherical gaussians, with
                                              point-specific exponents (IZeta= 3).
                        Self-potential: point-specific (ISelfS= 7).
                        Self-field    : sphere-specific E.n sum rule (ISelfD= 2).
 1st derivatives      : Analytical E(r).r(x)/FMM algorithm (CHGder, D1EAlg=3).
                        Cavity 1st derivative terms included.
 Solvent              : Water, Eps=  78.355300 Eps(inf)=   1.777849
 ------------------------------------------------------------------------------
 Spheres list:
 ISph  on   Nord     Re0    Alpha      Xe            Ye            Ze
    1   C      1    1.9255  1.100      2.891032      0.466879     -0.058663
    2   N      2    1.8300  1.100      1.744874     -0.342533      0.349658
    3   C      3    1.9255  1.100      0.495928      0.092930     -0.274537
    4   C      4    1.9255  1.100     -0.674449     -0.777939      0.192745
    5   N      5    1.8300  1.100     -1.941899     -0.379734     -0.424596
    6   C      6    1.9255  1.100     -2.555702      0.793060      0.199238
    7   H      7    1.4430  1.100      3.031430      0.533022     -1.152275
    8   H      8    1.4430  1.100      2.770530      1.488898      0.318681
    9   H      9    1.4430  1.100      3.806491      0.055208      0.376767
   10   H     10    1.4430  1.100      1.920619     -1.307943      0.076067
   11   H     11    1.4430  1.100      0.326959      1.137984      0.015549
   12   H     12    1.4430  1.100      0.531885      0.076669     -1.379417
   13   H     13    1.4430  1.100     -0.710541     -0.757181      1.297442
   14   H     14    1.4430  1.100     -0.474174     -1.816250     -0.100030
   15   H     15    1.4430  1.100     -2.591041     -1.157308     -0.341133
   16   H     16    1.4430  1.100     -3.550352      0.952170     -0.227430
   17   H     17    1.4430  1.100     -1.963196      1.689866     -0.008187
   18   H     18    1.4430  1.100     -2.660289      0.711159      1.295837
 ------------------------------------------------------------------------------
 One-electron integrals computed using PRISM.
 NBasis=   150 RedAO= T EigKep=  3.47D-03  NBF=   150
 NBsUse=   150 1.00D-06 EigRej= -1.00D+00 NBFU=   150
 Initial guess from the checkpoint file:  "KVKFRMCSXWQSNT-UHFFFAOYSA-N_conf_0_0.chk"
 B after Tr=    -0.000000   -0.000000   -0.000000
         Rot=    0.999964    0.008375    0.000878   -0.000861 Ang=   0.97 deg.
 ExpMin= 1.61D-01 ExpMax= 4.17D+03 ExpMxC= 6.27D+02 IAcc=2 IRadAn=         4 AccDes= 0.00D+00
 Harris functional with IExCor=  402 and IRadAn=       4 diagonalized for initial guess.
 HarFok:  IExCor=  402 AccDes= 0.00D+00 IRadAn=         4 IDoV= 1 UseB2=F ITyADJ=14
 ICtDFT=  3500011 ScaDFX=  1.000000  1.000000  1.000000  1.000000
 FoFCou: FMM=F IPFlag=           0 FMFlag=      100000 FMFlg1=           0
         NFxFlg=           0 DoJE=T BraDBF=F KetDBF=T FulRan=T
         wScrn=  0.000000 ICntrl=       500 IOpCl=  0 I1Cent=   200000004 NGrid=           0
         NMat0=    1 NMatS0=      1 NMatT0=    0 NMatD0=    1 NMtDS0=    0 NMtDT0=    0
 Petite list used in FoFCou.
 Keep R1 ints in memory in canonical form, NReq=67061194.
 Requested convergence on RMS density matrix=1.00D-08 within  32 cycles.
 Requested convergence on MAX density matrix=1.00D-06.
 Requested convergence on             energy=1.00D-06.
 No special actions if energy rises.
[...]
 Alpha virt. eigenvalues --    4.12362   4.39008   4.47191   4.47660   4.66326
          Condensed to atoms (all electrons):
               1          2          3          4          5          6
     1  C    4.807864   0.303680  -0.037190   0.007918  -0.000091  -0.000011
     2  N    0.303680   6.883603   0.242831  -0.093797   0.001229   0.000358
     3  C   -0.037190   0.242831   4.936715   0.317842  -0.073769  -0.000488
     4  C    0.007918  -0.093797   0.317842   5.766692   0.326511  -0.070944
     5  N   -0.000091   0.001229  -0.073769   0.326511   8.169756   0.307000
     6  C   -0.000011   0.000358  -0.000488  -0.070944   0.307000   5.731910
     7  H    0.370003  -0.045852  -0.007434   0.000073   0.000016  -0.000000
     8  H    0.390303  -0.045037  -0.001175   0.000387  -0.000003  -0.000003
     9  H    0.387417  -0.032786   0.005004  -0.000247   0.000001   0.000000
    10  H   -0.040247   0.337491  -0.040668  -0.009132  -0.000166   0.000016
    11  H   -0.005345  -0.023781   0.332537  -0.058231  -0.009921  -0.001532
    12  H   -0.005887  -0.034665   0.340795  -0.079295  -0.003752   0.000827
    13  H   -0.000565   0.018084  -0.015909   0.147825  -0.116311  -0.003938
    14  H   -0.000998   0.011223   0.003171  -0.107474  -0.224047   0.016933
    15  H   -0.000015   0.000580   0.021372  -0.110336  -0.876756  -0.061805
    16  H   -0.000001   0.000020   0.000812   0.014044  -0.205928  -0.061382
    17  H   -0.000025   0.000522  -0.002633   0.004267  -0.093642   0.172647
    18  H   -0.000005   0.000160   0.001877  -0.001783  -0.125445   0.146033
               7          8          9         10         11         12
     1  C    0.370003   0.390303   0.387417  -0.040247  -0.005345  -0.005887
     2  N   -0.045852  -0.045037  -0.032786   0.337491  -0.023781  -0.034665
     3  C   -0.007434  -0.001175   0.005004  -0.040668   0.332537   0.340795
     4  C    0.000073   0.000387  -0.000247  -0.009132  -0.058231  -0.079295
     5  N    0.000016  -0.000003   0.000001  -0.000166  -0.009921  -0.003752
     6  C   -0.000000  -0.000003   0.000000   0.000016  -0.001532   0.000827
     7  H    0.664461  -0.044764  -0.036816  -0.003727  -0.002089   0.012440
     8  H   -0.044764   0.601862  -0.027638   0.006116   0.005647  -0.001967
     9  H   -0.036816  -0.027638   0.594283  -0.003464   0.000122  -0.000139
    10  H   -0.003727   0.006116  -0.003464   0.488577   0.007452  -0.004763
    11  H   -0.002089   0.005647   0.000122   0.007452   0.649244  -0.038482
    12  H    0.012440  -0.001967  -0.000139  -0.004763  -0.038482   0.702636
    13  H    0.000051  -0.000129  -0.000005  -0.000532   0.004085   0.010296
    14  H   -0.000047  -0.000035   0.000015   0.008176   0.014314   0.009626
    15  H   -0.000000  -0.000001  -0.000000   0.000056   0.003921   0.004763
    16  H   -0.000000  -0.000000   0.000000   0.000001   0.001501   0.000408
    17  H   -0.000002  -0.000018   0.000000   0.000008   0.015889   0.002787
    18  H    0.000000  -0.000002  -0.000000   0.000003   0.003638   0.000370
              13         14         15         16         17         18
     1  C   -0.000565  -0.000998  -0.000015  -0.000001  -0.000025  -0.000005
     2  N    0.018084   0.011223   0.000580   0.000020   0.000522   0.000160
     3  C   -0.015909   0.003171   0.021372   0.000812  -0.002633   0.001877
     4  C    0.147825  -0.107474  -0.110336   0.014044   0.004267  -0.001783
     5  N   -0.116311  -0.224047  -0.876756  -0.205928  -0.093642  -0.125445
     6  C   -0.003938   0.016933  -0.061805  -0.061382   0.172647   0.146033
     7  H    0.000051  -0.000047  -0.000000  -0.000000  -0.000002   0.000000
     8  H   -0.000129  -0.000035  -0.000001  -0.000000  -0.000018  -0.000002
     9  H   -0.000005   0.000015  -0.000000   0.000000   0.000000  -0.000000
    10  H   -0.000532   0.008176   0.000056   0.000001   0.000008   0.000003
    11  H    0.004085   0.014314   0.003921   0.001501   0.015889   0.003638
    12  H    0.010296   0.009626   0.004763   0.000408   0.002787   0.000370
    13  H    0.672089   0.063359   0.065256   0.005048   0.009689   0.025990
    14  H    0.063359   1.036091   0.164956   0.002549   0.003344   0.005898
    15  H    0.065256   0.164956   1.659425   0.138931   0.035810   0.071237
    16  H    0.005048   0.002549   0.138931   0.951129   0.058776   0.070073
    17  H    0.009689   0.003344   0.035810   0.058776   0.640112   0.031504
    18  H    0.025990   0.005898   0.071237   0.070073   0.031504   0.641853
 Mulliken charges:
               1
     1  C   -0.176803
     2  N   -0.523862
     3  C   -0.023691
     4  C   -0.054321
     5  N   -0.074683
     6  C   -0.175621
     7  H    0.093688
     8  H    0.116456
     9  H    0.114252
    10  H    0.254801
    11  H    0.101031
    12  H    0.084002
    13  H    0.115615
    14  H   -0.007054
    15  H   -0.117393
    16  H    0.024020
    17  H    0.120965
    18  H    0.128598
 Sum of Mulliken charges =   0.00000
 Mulliken charges with hydrogens summed into heavy atoms:
               1
     1  C    0.147593
     2  N   -0.269060
     3  C    0.161342
     4  C    0.054240
     5  N   -0.192077
     6  C    0.097962
 Electronic spatial extent (au):  <R**2>=            964.6738
 Charge=             -0.0000 electrons
 Dipole moment (field-independent basis, Debye):
    X=              1.7338    Y=              1.4070    Z=             -0.5035  Tot=              2.2889
 Quadrupole moment (field-independent basis, Debye-Ang):
   XX=            -43.8441   YY=            -41.8857   ZZ=            -42.3896
   XY=             -5.0281   XZ=             -3.4143   YZ=              0.3130
 Traceless Quadrupole moment (field-independent basis, Debye-Ang):
   XX=             -1.1377   YY=              0.8208   ZZ=              0.3169
   XY=             -5.0281   XZ=             -3.4143   YZ=              0.3130
 Octapole moment (field-independent basis, Debye-Ang**2):
  XXX=             44.1886  YYY=              7.8670  ZZZ=             -0.7556  XYY=             11.8702
  XXY=             10.3878  XXZ=              3.0881  XZZ=             -0.5778  YZZ=              1.3494
  YYZ=              1.8399  XYZ=              0.7047
 Hexadecapole moment (field-independent basis, Debye-Ang**3):
 XXXX=          -1135.0355 YYYY=           -182.3437 ZZZZ=            -91.1825 XXXY=            -43.9339
 XXXZ=            -15.4652 YYYX=            -25.1761 YYYZ=             -1.0842 ZZZX=             -5.6876
 ZZZY=              0.4144 XXYY=           -217.5366 XXZZ=           -199.6311 YYZZ=            -45.8337
 XXYZ=              2.5260 YYXZ=             -2.2246 ZZXY=             -3.2416
 N-N= 2.523577032151D+02 E-N=-1.127346167282D+03  KE= 2.666794784342D+02
 Evaluate density.
 Using the total density.
 Monte-Carlo method of calculating molar volume:
 based on  0.001 e/bohr**3 density envelope.
 Number of points per bohr**3 =   20 CutOff= 1.00D-04
 Using the CI density.
 There are       346 points.  Will hold       346 in memory.
 LenV=   805230434 MDV=   805306368.
 Box volume = 5190.870 fraction occupied=0.217
 Integrated density= 3.1615247053082737D+01 error=-1.8384752946917263D+01
 Molar volume = 1125.189 bohr**3/mol (100.411 cm**3/mol)
 Recommended a0 for SCRF calculation =  4.26 angstrom (  8.05 bohr)
 ******************************Gaussian NBO Version 3.1******************************
             N A T U R A L   A T O M I C   O R B I T A L   A N D
          N A T U R A L   B O N D   O R B I T A L   A N A L Y S I S
 ******************************Gaussian NBO Version 3.1******************************
       /RESON  / : Allow strongly delocalized NBO set

 Analyzing the CI density

 Job title: KVKFRMCSXWQSNT-UHFFFAOYSA-N_conf_0                              

 Storage needed:     68640 in NPA ( 805304568 available)
 GSVD:  LWork=       11850 too small for GESVD, short by        8811 words or        8811 for optimal perf.


 NATURAL POPULATIONS:  Natural atomic orbital occupancies 
                                                          
   NAO  Atom  No  lang   Type(AO)    Occupancy
 --------------------------------------------
     1    C    1  S      Cor( 1S)     1.99951
     2    C    1  S      Val( 2S)     1.09185
     3    C    1  S      Ryd( 3S)     0.00120
     4    C    1  S      Ryd( 4S)     0.00003
     5    C    1  px     Val( 2p)     1.03448
     6    C    1  px     Ryd( 3p)     0.00236
     7    C    1  py     Val( 2p)     1.13855
     8    C    1  py     Ryd( 3p)     0.00153
     9    C    1  pz     Val( 2p)     1.21084
    10    C    1  pz     Ryd( 3p)     0.00178
    11    C    1  dxy    Ryd( 3d)     0.00090
    12    C    1  dxz    Ryd( 3d)     0.00094
    13    C    1  dyz    Ryd( 3d)     0.00059
    14    C    1  dx2y2  Ryd( 3d)     0.00099
    15    C    1  dz2    Ryd( 3d)     0.00108

    16    N    2  S      Cor( 1S)     1.99957
    17    N    2  S      Val( 2S)     1.36338
    18    N    2  S      Ryd( 3S)     0.00105
    19    N    2  S      Ryd( 4S)     0.00002
    20    N    2  px     Val( 2p)     1.21962
    21    N    2  px     Ryd( 3p)     0.00169
    22    N    2  py     Val( 2p)     1.33957
    23    N    2  py     Ryd( 3p)     0.00224
    24    N    2  pz     Val( 2p)     1.76375
    25    N    2  pz     Ryd( 3p)     0.00611
    26    N    2  dxy    Ryd( 3d)     0.00036
    27    N    2  dxz    Ryd( 3d)     0.00115
    28    N    2  dyz    Ryd( 3d)     0.00103
    29    N    2  dx2y2  Ryd( 3d)     0.00060
    30    N    2  dz2    Ryd( 3d)     0.00125

    31    C    3  S      Cor( 1S)     1.99934
    32    C    3  S      Val( 2S)     1.02645
    33    C    3  S      Ryd( 3S)     0.00238
    34    C    3  S      Ryd( 4S)     0.00004
    35    C    3  px     Val( 2p)     0.91201
    36    C    3  px     Ryd( 3p)     0.00749
    37    C    3  py     Val( 2p)     1.15804
    38    C    3  py     Ryd( 3p)     0.00251
    39    C    3  pz     Val( 2p)     1.16980
    40    C    3  pz     Ryd( 3p)     0.00307
    41    C    3  dxy    Ryd( 3d)     0.00088
    42    C    3  dxz    Ryd( 3d)     0.00109
    43    C    3  dyz    Ryd( 3d)     0.00039
    44    C    3  dx2y2  Ryd( 3d)     0.00112
    45    C    3  dz2    Ryd( 3d)     0.00144

    46    C    4  S      Cor( 1S)     1.99931
    47    C    4  S      Val( 2S)     1.05410
    48    C    4  S      Ryd( 3S)     0.00217
    49    C    4  S      Ryd( 4S)     0.00004
    50    C    4  px     Val( 2p)     0.90949
    51    C    4  px     Ryd( 3p)     0.01083
    52    C    4  py     Val( 2p)     1.19892
    53    C    4  py     Ryd( 3p)     0.00372
    54    C    4  pz     Val( 2p)     1.17226
    55    C    4  pz     Ryd( 3p)     0.00330
    56    C    4  dxy    Ryd( 3d)     0.00084
    57    C    4  dxz    Ryd( 3d)     0.00098
    58    C    4  dyz    Ryd( 3d)     0.00044
    59    C    4  dx2y2  Ryd( 3d)     0.00119
    60    C    4  dz2    Ryd( 3d)     0.00095

    61    N    5  S      Cor( 1S)     1.99934
    62    N    5  S      Val( 2S)     1.43076
    63    N    5  S      Ryd( 3S)     0.01046
    64    N    5  S      Ryd( 4S)     0.00005
    65    N    5  px     Val( 2p)     1.31518
    66    N    5  px     Ryd( 3p)     0.00195
    67    N    5  py     Val( 2p)     1.34234
    68    N    5  py     Ryd( 3p)     0.00242
    69    N    5  pz     Val( 2p)     1.10704
    70    N    5  pz     Ryd( 3p)     0.00053
    71    N    5  dxy    Ryd( 3d)     0.00094
    72    N    5  dxz    Ryd( 3d)     0.00068
    73    N    5  dyz    Ryd( 3d)     0.00054
    74    N    5  dx2y2  Ryd( 3d)     0.00042
    75    N    5  dz2    Ryd( 3d)     0.00044

    76    C    6  S      Cor( 1S)     1.99945
    77    C    6  S      Val( 2S)     1.13062
    78    C    6  S      Ryd( 3S)     0.00170
    79    C    6  S      Ryd( 4S)     0.00002
    80    C    6  px     Val( 2p)     1.21136
    81    C    6  px     Ryd( 3p)     0.00435
    82    C    6  py     Val( 2p)     1.04213
    83    C    6  py     Ryd( 3p)     0.01077
    84    C    6  pz     Val( 2p)     1.17744
    85    C    6  pz     Ryd( 3p)     0.00243
    86    C    6  dxy    Ryd( 3d)     0.00106
    87    C    6  dxz    Ryd( 3d)     0.00056
    88    C    6  dyz    Ryd( 3d)     0.00077
    89    C    6  dx2y2  Ryd( 3d)     0.00084
    90    C    6  dz2    Ryd( 3d)     0.00079

    91    H    7  S      Val( 1S)     0.79524
    92    H    7  S      Ryd( 2S)     0.00242
    93    H    7  px     Ryd( 2p)     0.00008
    94    H    7  py     Ryd( 2p)     0.00008
    95    H    7  pz     Ryd( 2p)     0.00038

    96    H    8  S      Val( 1S)     0.77460
    97    H    8  S      Ryd( 2S)     0.00117
    98    H    8  px     Ryd( 2p)     0.00007
    99    H    8  py     Ryd( 2p)     0.00033
   100    H    8  pz     Ryd( 2p)     0.00013

   101    H    9  S      Val( 1S)     0.76383
   102    H    9  S      Ryd( 2S)     0.00081
   103    H    9  px     Ryd( 2p)     0.00028
   104    H    9  py     Ryd( 2p)     0.00011
   105    H    9  pz     Ryd( 2p)     0.00013

   106    H   10  S      Val( 1S)     0.60587
   107    H   10  S      Ryd( 2S)     0.00329
   108    H   10  px     Ryd( 2p)     0.00029
   109    H   10  py     Ryd( 2p)     0.00056
   110    H   10  pz     Ryd( 2p)     0.00056

   111    H   11  S      Val( 1S)     0.76573
   112    H   11  S      Ryd( 2S)     0.00869
   113    H   11  px     Ryd( 2p)     0.00013
   114    H   11  py     Ryd( 2p)     0.00035
   115    H   11  pz     Ryd( 2p)     0.00011

   116    H   12  S      Val( 1S)     0.78810
   117    H   12  S      Ryd( 2S)     0.00584
   118    H   12  px     Ryd( 2p)     0.00008
   119    H   12  py     Ryd( 2p)     0.00009
   120    H   12  pz     Ryd( 2p)     0.00040

   121    H   13  S      Val( 1S)     0.72727
   122    H   13  S      Ryd( 2S)     0.02109
   123    H   13  px     Ryd( 2p)     0.00007
   124    H   13  py     Ryd( 2p)     0.00009
   125    H   13  pz     Ryd( 2p)     0.00037

   126    H   14  S      Val( 1S)     0.81220
   127    H   14  S      Ryd( 2S)     0.04029
   128    H   14  px     Ryd( 2p)     0.00008
   129    H   14  py     Ryd( 2p)     0.00035
   130    H   14  pz     Ryd( 2p)     0.00008

   131    H   15  S      Val( 1S)     0.79052
   132    H   15  S      Ryd( 2S)     0.10799
   133    H   15  px     Ryd( 2p)     0.00043
   134    H   15  py     Ryd( 2p)     0.00053
   135    H   15  pz     Ryd( 2p)     0.00017

   136    H   16  S      Val( 1S)     0.80094
   137    H   16  S      Ryd( 2S)     0.03338
   138    H   16  px     Ryd( 2p)     0.00030
   139    H   16  py     Ryd( 2p)     0.00007
   140    H   16  pz     Ryd( 2p)     0.00008

   141    H   17  S      Val( 1S)     0.75247
   142    H   17  S      Ryd( 2S)     0.01312
   143    H   17  px     Ryd( 2p)     0.00017
   144    H   17  py     Ryd( 2p)     0.00028
   145    H   17  pz     Ryd( 2p)     0.00008

   146    H   18  S      Val( 1S)     0.72676
   147    H   18  S      Ryd( 2S)     0.02054
   148    H   18  px     Ryd( 2p)     0.00009
   149    H   18  py     Ryd( 2p)     0.00008
   150    H   18  pz     Ryd( 2p)     0.00035


 Summary of Natural Population Analysis:                  
                                                          
                                       Natural Population 
                Natural  -----------------------------------------------
    Atom  No    Charge         Core      Valence    Rydberg      Total
 -----------------------------------------------------------------------
      C    1   -0.48663      1.99951     4.47572    0.01140     6.48663
      N    2   -0.70140      1.99957     5.68633    0.01550     7.70140
      C    3   -0.28605      1.99934     4.26631    0.02041     6.28605
      C    4   -0.35854      1.99931     4.33478    0.02445     6.35854
      N    5   -0.21311      1.99934     5.19533    0.01844     7.21311
      C    6   -0.58430      1.99945     4.56155    0.02329     6.58430
      H    7    0.20180      0.00000     0.79524    0.00296     0.79820
      H    8    0.22370      0.00000     0.77460    0.00169     0.77630
      H    9    0.23484      0.00000     0.76383    0.00133     0.76516
      H   10    0.38943      0.00000     0.60587    0.00470     0.61057
      H   11    0.22499      0.00000     0.76573    0.00928     0.77501
      H   12    0.20549      0.00000     0.78810    0.00640     0.79451
      H   13    0.25110      0.00000     0.72727    0.02162     0.74890
      H   14    0.14702      0.00000     0.81220    0.04079     0.85298
      H   15    0.10036      0.00000     0.79052    0.10912     0.89964
      H   16    0.16522      0.00000     0.80094    0.03384     0.83478
      H   17    0.23389      0.00000     0.75247    0.01364     0.76611
      H   18    0.25218      0.00000     0.72676    0.02106     0.74782
 =======================================================================
   * Total *    0.00000     11.99652    37.62356    0.37992    50.00000

                                 Natural Population      
 --------------------------------------------------------
   Core                      11.99652 ( 99.9710% of  12)
   Valence                   37.62356 ( 99.0094% of  38)
   Natural Minimal Basis     49.62008 ( 99.2402% of  50)
   Natural Rydberg Basis      0.37992 (  0.7598% of  50)
 --------------------------------------------------------

    Atom  No          Natural Electron Configuration
 ----------------------------------------------------------------------------
      C    1      [core]2S( 1.09)2p( 3.38)3p( 0.01)
      N    2      [core]2S( 1.36)2p( 4.32)3p( 0.01)
      C    3      [core]2S( 1.03)2p( 3.24)3p( 0.01)
      C    4      [core]2S( 1.05)2p( 3.28)3p( 0.02)
      N    5      [core]2S( 1.43)2p( 3.76)3S( 0.01)
      C    6      [core]2S( 1.13)2p( 3.43)3p( 0.02)
      H    7            1S( 0.80)
      H    8            1S( 0.77)
      H    9            1S( 0.76)
      H   10            1S( 0.61)
      H   11            1S( 0.77)2S( 0.01)
      H   12            1S( 0.79)2S( 0.01)
      H   13            1S( 0.73)2S( 0.02)
      H   14            1S( 0.81)2S( 0.04)
      H   15            1S( 0.79)2S( 0.11)
      H   16            1S( 0.80)2S( 0.03)
      H   17            1S( 0.75)2S( 0.01)
      H   18            1S( 0.73)2S( 0.02)


 NBO analysis skipped by request.
 1\1\GINC-CN33\SP\RB3LYP TD-FC\6-31G(d,p)\C4H12N2\QDUEZ\11-Jul-2024\0\\
 # TD(NStates=10, Root=1) B3LYP/6-31G** SCRF=(Solvent=water) volume pop
 =NPA density=current Geom=AllCheck Guess=Read\\KVKFRMCSXWQSNT-UHFFFAOY
 SA-N_conf_0\\0,1\C,0,-2.8639423531,-0.1145817556,-0.1286205257\N,0,-1.
 6390931604,-0.7595863341,0.3403496833\C,0,-0.5092330884,0.1655190659,0
 .4213070582\C,0,0.7482156055,-0.5575499639,0.9131964914\N,0,1.89796484
 92,0.3446624595,1.0227115491\C,0,2.5504733584,0.6248475853,-0.25673778
 51\H,0,-3.1588218822,0.7747490355,0.4562044578\H,0,-2.7345387632,0.205
 4567498,-1.1689131103\H,0,-3.691498798,-0.8297307417,-0.0991994929\H,0
 ,-1.8118490199,-1.1368588812,1.2706653597\H,0,-0.3393175197,0.57153692
 07,-0.584299492\H,0,-0.7018163523,1.0323013588,1.0801260033\H,0,0.9417
 908502,-1.4190794574,0.2484961793\H,0,0.5478257466,-0.9651216673,1.912
 0454159\H,0,2.5815740123,-0.0883258648,1.6374957451\H,0,3.4655513507,1
 .1975727566,-0.0795820977\H,0,1.8998039359,1.2353440409,-0.891098722\H
 ,0,2.8169112282,-0.2811553069,-0.8296967912\\Version=EM64L-G16RevA.03\
 State=1-A\HF=-269.1514011\RMSD=2.163e-09\Dipole=-0.7247854,0.3903236,-
 0.3650616\Quadrupole=-0.4016819,0.1803061,0.2213759,0.0898752,-4.51437
 23,-0.7315257\PG=C01 [X(C4H12N2)]\\@


 HIGGLEDY-PIGGLEDY
 NIC'LAUS COPERNICUS
 LOOKED AT THE UNIVERSE,
 SPOKE TO THE THRONG;
 GIVE UP YOUR PTOLOMY,
 RISE UP AND FOLLOW ME,
 HELIOCENTRICALLY
 PTOLEMY'S WRONG.
   -- NANCY L. STARK
 Job cpu time:       0 days  0 hours 28 minutes 47.5 seconds.
 Elapsed time:       0 days  0 hours 14 minutes 48.7 seconds.
 File lengths (MBytes):  RWF=    244 Int=      0 D2E=      0 Chk=     15 Scr=      1
 Normal termination of Gaussian 16 at Thu Jul 11 20:19:35 2024.
