 Entering Gaussian System, Link 0=g16
 Initial command:
 /opt/sw/arch/manual/gaussian/G16_A03/g16/l1.exe "/scratch/1032066.jesse.materianova.be/Gau-16596.inp" -scrdir="/scratch/1032066.jesse.materianova.be/"
 Entering Link 1 = /opt/sw/arch/manual/gaussian/G16_A03/g16/l1.exe PID=     16597.
  
 Copyright (c) 1988,1990,1992,1993,1995,1998,2003,2009,2016,
            Gaussian, Inc.  All Rights Reserved.
  
 This is part of the Gaussian(R) 16 program.  It is based on
 the Gaussian(R) 09 system (copyright 2009, Gaussian, Inc.),
 the Gaussian(R) 03 system (copyright 2003, Gaussian, Inc.),
 the Gaussian(R) 98 system (copyright 1998, Gaussian, Inc.),
 the Gaussian(R) 94 system (copyright 1995, Gaussian, Inc.),
 the Gaussian 92(TM) system (copyright 1992, Gaussian, Inc.),
 the Gaussian 90(TM) system (copyright 1990, Gaussian, Inc.),
 the Gaussian 88(TM) system (copyright 1988, Gaussian, Inc.),
 the Gaussian 86(TM) system (copyright 1986, Carnegie Mellon
 University), and the Gaussian 82(TM) system (copyright 1983,
 Carnegie Mellon University). Gaussian is a federally registered
 trademark of Gaussian, Inc.
  
 This software contains proprietary and confidential information,
 including trade secrets, belonging to Gaussian, Inc.
  
 This software is provided under written license and may be
 used, copied, transmitted, or stored only in accord with that
 written license.
  
 The following legend is applicable only to US Government
 contracts under FAR:
  
                    RESTRICTED RIGHTS LEGEND
  
 Use, reproduction and disclosure by the US Government is
 subject to restrictions as set forth in subparagraphs (a)
 and (c) of the Commercial Computer Software - Restricted
 Rights clause in FAR 52.227-19.
  
 Gaussian, Inc.
 340 Quinnipiac St., Bldg. 40, Wallingford CT 06492
  
  
 ---------------------------------------------------------------
 Warning -- This program may not be used in any manner that
 competes with the business of Gaussian, Inc. or will provide
 assistance to any competitor of Gaussian, Inc.  The licensee
 of this program is prohibited from giving any competitor of
 Gaussian, Inc. access to this program.  By using this program,
 the user acknowledges that Gaussian, Inc. is engaged in the
 business of creating and licensing software in the field of
 computational chemistry and represents and warrants to the
 licensee that it is not a competitor of Gaussian, Inc. and that
 it will not use this program in any manner prohibited above.
 ---------------------------------------------------------------
  

 Cite this work as:
 Gaussian 16, Revision A.03,
 M. J. Frisch, G. W. Trucks, H. B. Schlegel, G. E. Scuseria, 
 M. A. Robb, J. R. Cheeseman, G. Scalmani, V. Barone, 
 G. A. Petersson, H. Nakatsuji, X. Li, M. Caricato, A. V. Marenich, 
 J. Bloino, B. G. Janesko, R. Gomperts, B. Mennucci, H. P. Hratchian, 
 J. V. Ortiz, A. F. Izmaylov, J. L. Sonnenberg, D. Williams-Young, 
 F. Ding, F. Lipparini, F. Egidi, J. Goings, B. Peng, A. Petrone, 
 T. Henderson, D. Ranasinghe, V. G. Zakrzewski, J. Gao, N. Rega, 
 G. Zheng, W. Liang, M. Hada, M. Ehara, K. Toyota, R. Fukuda, 
 J. Hasegawa, M. Ishida, T. Nakajima, Y. Honda, O. Kitao, H. Nakai, 
 T. Vreven, K. Throssell, J. A. Montgomery, Jr., J. E. Peralta, 
 F. Ogliaro, M. J. Bearpark, J. J. Heyd, E. N. Brothers, K. N. Kudin, 
 V. N. Staroverov, T. A. Keith, R. Kobayashi, J. Normand, 
 K. Raghavachari, A. P. Rendell, J. C. Burant, S. S. Iyengar, 
 J. Tomasi, M. Cossi, J. M. Millam, M. Klene, C. Adamo, R. Cammi, 
 J. W. Ochterski, R. L. Martin, K. Morokuma, O. Farkas, 
 J. B. Foresman, and D. J. Fox, Gaussian, Inc., Wallingford CT, 2016.
 
 ******************************************
 Gaussian 16:  EM64L-G16RevA.03 25-Dec-2016
                11-Jul-2024 
 ******************************************
 %nprocshared=3
 Will use up to    3 processors via shared memory.
 %mem=6GB
 %Chk=KVKFRMCSXWQSNT-UHFFFAOYSA-N_conf_2_0.chk
 -------------------------------------------------------
 # opt=CalcFc B3LYP/6-31G** SCRF=(Solvent=water) scf=xqc
 -------------------------------------------------------
 1/10=4,18=20,19=15,26=3,38=1/1,3;
 2/9=110,12=2,17=6,18=5,40=1/2;
 3/5=1,6=6,7=101,11=2,25=1,30=1,70=2201,71=2,72=1,74=-5,140=1/1,2,3;
 4//1;
 5/5=2,8=3,13=1,38=5,53=1/2,8;
 8/6=4,10=90,11=11/1;
 11/6=1,8=1,9=11,15=111,16=1/1,2,10;
 10/6=1,13=1/2;
 6/7=2,8=2,9=2,10=2,28=1/1;
 7/10=1,18=20,25=1/1,2,3,16;
 1/10=4,18=20,19=15,26=3/3(2);
 2/9=110/2;
 99//99;
 2/9=110/2;
 3/5=1,6=6,7=101,11=2,25=1,30=1,70=2205,71=1,72=1,74=-5/1,2,3;
 4/5=5,16=3,69=1/1;
 5/5=2,8=3,13=1,38=5,53=1/2,8;
 7//1,2,3,16;
 1/18=20,19=15,26=3/3(-5);
 2/9=110/2;
 6/7=2,8=2,9=2,10=2,19=2,28=1/1;
 99/9=1/99;
 ----------------------------------
 KVKFRMCSXWQSNT-UHFFFAOYSA-N_conf_2
 ----------------------------------
 Symbolic Z-matrix:
 Charge =  0 Multiplicity = 1
 C                     2.53541   0.04253  -0.3771 
 N                     1.24272  -0.61332  -0.47008 
 C                     0.54165  -0.61155   0.81931 
 C                    -0.95299  -0.94801   0.61987 
 N                    -1.62776  -0.09911  -0.3808 
 C                    -1.8527    1.25471   0.1093 
 H                     3.03545   0.0042   -1.34975 
 H                     3.18312  -0.46187   0.34716 
 H                     2.43382   1.09521  -0.09365 
 H                     0.6401   -0.12512  -1.14004 
 H                     0.62438   0.3672    1.30669 
 H                     0.99351  -1.35449   1.48608 
 H                    -1.02478  -1.98554   0.2701 
 H                    -1.4796   -0.9073    1.58086 
 H                    -2.52984  -0.52189  -0.60065 
 H                    -0.91165   1.78446   0.28344 
 H                    -2.44374   1.25664   1.0308 
 H                    -2.40711   1.82324  -0.64412 
 

 GradGradGradGradGradGradGradGradGradGradGradGradGradGradGradGradGradGrad
 Berny optimization.
 Initialization pass.
                           ----------------------------
                           !    Initial Parameters    !
                           ! (Angstroms and Degrees)  !
 --------------------------                            --------------------------
 ! Name  Definition              Value          Derivative Info.                !
 --------------------------------------------------------------------------------
 ! R1    R(1,2)                  1.4525         calculate D2E/DX2 analytically  !
 ! R2    R(1,7)                  1.0943         calculate D2E/DX2 analytically  !
 ! R3    R(1,8)                  1.0948         calculate D2E/DX2 analytically  !
 ! R4    R(1,9)                  1.0949         calculate D2E/DX2 analytically  !
 ! R5    R(2,3)                  1.4677         calculate D2E/DX2 analytically  !
 ! R6    R(2,10)                 1.0249         calculate D2E/DX2 analytically  !
 ! R7    R(3,4)                  1.545          calculate D2E/DX2 analytically  !
 ! R8    R(3,11)                 1.0965         calculate D2E/DX2 analytically  !
 ! R9    R(3,12)                 1.0958         calculate D2E/DX2 analytically  !
 ! R10   R(4,5)                  1.4756         calculate D2E/DX2 analytically  !
 ! R11   R(4,13)                 1.0973         calculate D2E/DX2 analytically  !
 ! R12   R(4,14)                 1.0966         calculate D2E/DX2 analytically  !
 ! R13   R(5,6)                  1.4573         calculate D2E/DX2 analytically  !
 ! R14   R(5,15)                 1.0202         calculate D2E/DX2 analytically  !
 ! R15   R(6,16)                 1.0939         calculate D2E/DX2 analytically  !
 ! R16   R(6,17)                 1.0948         calculate D2E/DX2 analytically  !
 ! R17   R(6,18)                 1.0946         calculate D2E/DX2 analytically  !
 ! A1    A(2,1,7)              109.5085         calculate D2E/DX2 analytically  !
 ! A2    A(2,1,8)              111.1524         calculate D2E/DX2 analytically  !
 ! A3    A(2,1,9)              111.5993         calculate D2E/DX2 analytically  !
 ! A4    A(7,1,8)              107.5488         calculate D2E/DX2 analytically  !
 ! A5    A(7,1,9)              107.829          calculate D2E/DX2 analytically  !
 ! A6    A(8,1,9)              109.0627         calculate D2E/DX2 analytically  !
 ! A7    A(1,2,3)              111.613          calculate D2E/DX2 analytically  !
 ! A8    A(1,2,10)             110.4908         calculate D2E/DX2 analytically  !
 ! A9    A(3,2,10)             107.0286         calculate D2E/DX2 analytically  !
 ! A10   A(2,3,4)              110.3923         calculate D2E/DX2 analytically  !
 ! A11   A(2,3,11)             110.8255         calculate D2E/DX2 analytically  !
 ! A12   A(2,3,12)             109.6811         calculate D2E/DX2 analytically  !
 ! A13   A(4,3,11)             108.9512         calculate D2E/DX2 analytically  !
 ! A14   A(4,3,12)             109.2588         calculate D2E/DX2 analytically  !
 ! A15   A(11,3,12)            107.6746         calculate D2E/DX2 analytically  !
 ! A16   A(3,4,5)              113.8694         calculate D2E/DX2 analytically  !
 ! A17   A(3,4,13)             108.0812         calculate D2E/DX2 analytically  !
 ! A18   A(3,4,14)             110.0826         calculate D2E/DX2 analytically  !
 ! A19   A(5,4,13)             107.3316         calculate D2E/DX2 analytically  !
 ! A20   A(5,4,14)             110.6923         calculate D2E/DX2 analytically  !
 ! A21   A(13,4,14)            106.4414         calculate D2E/DX2 analytically  !
 ! A22   A(4,5,6)              112.1469         calculate D2E/DX2 analytically  !
 ! A23   A(4,5,15)             108.1844         calculate D2E/DX2 analytically  !
 ! A24   A(6,5,15)             108.722          calculate D2E/DX2 analytically  !
 ! A25   A(5,6,16)             111.7563         calculate D2E/DX2 analytically  !
 ! A26   A(5,6,17)             111.5964         calculate D2E/DX2 analytically  !
 ! A27   A(5,6,18)             109.2209         calculate D2E/DX2 analytically  !
 ! A28   A(16,6,17)            109.2446         calculate D2E/DX2 analytically  !
 ! A29   A(16,6,18)            107.0833         calculate D2E/DX2 analytically  !
 ! A30   A(17,6,18)            107.7579         calculate D2E/DX2 analytically  !
 ! D1    D(7,1,2,3)            178.8863         calculate D2E/DX2 analytically  !
 ! D2    D(7,1,2,10)           -62.1452         calculate D2E/DX2 analytically  !
 ! D3    D(8,1,2,3)             60.1963         calculate D2E/DX2 analytically  !
 ! D4    D(8,1,2,10)           179.1648         calculate D2E/DX2 analytically  !
 ! D5    D(9,1,2,3)            -61.7978         calculate D2E/DX2 analytically  !
 ! D6    D(9,1,2,10)            57.1706         calculate D2E/DX2 analytically  !
 ! D7    D(1,2,3,4)            164.3732         calculate D2E/DX2 analytically  !
 ! D8    D(1,2,3,11)            43.5697         calculate D2E/DX2 analytically  !
 ! D9    D(1,2,3,12)           -75.1835         calculate D2E/DX2 analytically  !
 ! D10   D(10,2,3,4)            43.3665         calculate D2E/DX2 analytically  !
 ! D11   D(10,2,3,11)          -77.437          calculate D2E/DX2 analytically  !
 ! D12   D(10,2,3,12)          163.8098         calculate D2E/DX2 analytically  !
 ! D13   D(2,3,4,5)            -52.849          calculate D2E/DX2 analytically  !
 ! D14   D(2,3,4,13)            66.3048         calculate D2E/DX2 analytically  !
 ! D15   D(2,3,4,14)          -177.8222         calculate D2E/DX2 analytically  !
 ! D16   D(11,3,4,5)            69.0672         calculate D2E/DX2 analytically  !
 ! D17   D(11,3,4,13)         -171.779          calculate D2E/DX2 analytically  !
 ! D18   D(11,3,4,14)          -55.906          calculate D2E/DX2 analytically  !
 ! D19   D(12,3,4,5)          -173.5451         calculate D2E/DX2 analytically  !
 ! D20   D(12,3,4,13)          -54.3912         calculate D2E/DX2 analytically  !
 ! D21   D(12,3,4,14)           61.4818         calculate D2E/DX2 analytically  !
 ! D22   D(3,4,5,6)            -72.9073         calculate D2E/DX2 analytically  !
 ! D23   D(3,4,5,15)           167.1946         calculate D2E/DX2 analytically  !
 ! D24   D(13,4,5,6)           167.5134         calculate D2E/DX2 analytically  !
 ! D25   D(13,4,5,15)           47.6154         calculate D2E/DX2 analytically  !
 ! D26   D(14,4,5,6)            51.7399         calculate D2E/DX2 analytically  !
 ! D27   D(14,4,5,15)          -68.1582         calculate D2E/DX2 analytically  !
 ! D28   D(4,5,6,16)            65.0787         calculate D2E/DX2 analytically  !
 ! D29   D(4,5,6,17)           -57.5815         calculate D2E/DX2 analytically  !
 ! D30   D(4,5,6,18)          -176.6203         calculate D2E/DX2 analytically  !
 ! D31   D(15,5,6,16)         -175.3373         calculate D2E/DX2 analytically  !
 ! D32   D(15,5,6,17)           62.0026         calculate D2E/DX2 analytically  !
 ! D33   D(15,5,6,18)          -57.0362         calculate D2E/DX2 analytically  !
 --------------------------------------------------------------------------------
 Trust Radius=3.00D-01 FncErr=1.00D-07 GrdErr=1.00D-06 EigMax=2.50D+02 EigMin=1.00D-04
 Number of steps in this run=     90 maximum allowed number of steps=    108.
 GradGradGradGradGradGradGradGradGradGradGradGradGradGradGradGradGradGrad

                          Input orientation:                          
 ---------------------------------------------------------------------
 Center     Atomic      Atomic             Coordinates (Angstroms)
 Number     Number       Type             X           Y           Z
 ---------------------------------------------------------------------
      1          6           0        2.535410    0.042535   -0.377104
      2          7           0        1.242723   -0.613318   -0.470082
      3          6           0        0.541647   -0.611549    0.819313
      4          6           0       -0.952995   -0.948006    0.619870
      5          7           0       -1.627758   -0.099105   -0.380795
      6          6           0       -1.852698    1.254706    0.109299
      7          1           0        3.035454    0.004196   -1.349751
      8          1           0        3.183125   -0.461873    0.347161
      9          1           0        2.433822    1.095212   -0.093654
     10          1           0        0.640099   -0.125117   -1.140036
     11          1           0        0.624383    0.367197    1.306687
     12          1           0        0.993511   -1.354487    1.486085
     13          1           0       -1.024781   -1.985541    0.270098
     14          1           0       -1.479603   -0.907304    1.580858
     15          1           0       -2.529840   -0.521886   -0.600649
     16          1           0       -0.911647    1.784457    0.283436
     17          1           0       -2.443738    1.256642    1.030803
     18          1           0       -2.407112    1.823241   -0.644123
 ---------------------------------------------------------------------
                    Distance matrix (angstroms):
                    1          2          3          4          5
     1  C    0.000000
     2  N    1.452524   0.000000
     3  C    2.415435   1.467667   0.000000
     4  C    3.760864   2.474103   1.544971   0.000000
     5  N    4.165579   2.917542   2.531636   1.475558   0.000000
     6  C    4.578367   3.661533   3.117679   2.433535   1.457256
     7  H    1.094329   2.090221   3.362001   4.549046   4.763937
     8  H    1.094770   2.110920   2.687514   4.173510   4.879151
     9  H    1.094895   2.116481   2.706819   4.019252   4.243263
    10  H    2.049970   1.024858   2.021227   2.512442   2.391715
    11  H    2.567603   2.121476   1.096505   2.165548   2.852573
    12  H    2.792954   2.106662   1.095775   2.168972   3.454313
    13  H    4.148123   2.751806   2.154806   1.097257   2.084679
    14  H    4.566852   3.421088   2.180109   1.096572   2.126786
    15  H    5.101500   3.775929   3.385021   2.039041   1.020211
    16  H    3.918266   3.310350   2.853081   2.753407   2.121750
    17  H    5.314901   4.397658   3.528086   2.692890   2.120491
    18  H    5.260298   4.391856   4.094512   3.375195   2.090968
                    6          7          8          9         10
     6  C    0.000000
     7  H    5.252298   0.000000
     8  H    5.325668   1.765938   0.000000
     9  H    4.294285   1.769197   1.783336   0.000000
    10  H    3.111076   2.407992   2.965154   2.408643   0.000000
    11  H    2.890907   3.605786   2.855732   2.401048   2.495811
    12  H    4.099309   3.749334   2.624560   3.251322   2.921089
    13  H    3.348210   4.802965   4.475933   4.645997   2.867313
    14  H    2.641775   5.459399   4.843702   4.704143   3.536697
    15  H    2.029489   5.640072   5.791366   5.244997   3.239889
    16  H    1.093863   4.627768   4.670890   3.436483   2.842650
    17  H    1.094760   6.103867   5.923026   5.008098   4.016447
    18  H    1.094646   5.781726   6.120060   4.926224   3.650688
                   11         12         13         14         15
    11  H    0.000000
    12  H    1.769925   0.000000
    13  H    3.054445   2.439336   0.000000
    14  H    2.475132   2.515005   1.757143   0.000000
    15  H    3.791770   4.178719   2.272816   2.451636   0.000000
    16  H    2.327027   3.863801   3.771719   3.041621   2.952858
    17  H    3.206335   4.340502   3.619926   2.432032   2.414997
    18  H    3.887889   5.118591   4.153728   3.642346   2.348738
                   16         17         18
    16  H    0.000000
    17  H    1.784501   0.000000
    18  H    1.760195   1.768544   0.000000
 Stoichiometry    C4H12N2
 Framework group  C1[X(C4H12N2)]
 Deg. of freedom    48
 Full point group                 C1      NOp   1
 Largest Abelian subgroup         C1      NOp   1
 Largest concise Abelian subgroup C1      NOp   1
                         Standard orientation:                         
 ---------------------------------------------------------------------
 Center     Atomic      Atomic             Coordinates (Angstroms)
 Number     Number       Type             X           Y           Z
 ---------------------------------------------------------------------
      1          6           0       -2.526414   -0.605618    0.019734
      2          7           0       -1.364756    0.081661   -0.516946
      3          6           0       -0.569443    0.709174    0.545010
      4          6           0        0.832494    1.086074    0.016376
      5          7           0        1.548479   -0.032186   -0.627154
      6          6           0        2.022504   -1.011479    0.342320
      7          1           0       -3.103815   -1.042697   -0.800708
      8          1           0       -3.184164    0.087966    0.553427
      9          1           0       -2.237941   -1.416895    0.696054
     10          1           0       -0.749509   -0.578924   -1.002161
     11          1           0       -0.457390    0.031918    1.400049
     12          1           0       -1.076596    1.613034    0.900758
     13          1           0        0.711636    1.873951   -0.737690
     14          1           0        1.435461    1.518886    0.823577
     15          1           0        2.351984    0.349587   -1.126614
     16          1           0        1.193728   -1.512995    0.850405
     17          1           0        2.679578   -0.553927    1.088912
     18          1           0        2.596126   -1.785125   -0.177948
 ---------------------------------------------------------------------
 Rotational constants (GHZ):           6.4195795           1.8581856           1.6681926
 Standard basis: 6-31G(d,p) (6D, 7F)
 There are   150 symmetry adapted cartesian basis functions of A   symmetry.
 There are   150 symmetry adapted basis functions of A   symmetry.
   150 basis functions,   252 primitive gaussians,   150 cartesian basis functions
    25 alpha electrons       25 beta electrons
       nuclear repulsion energy       259.2119749184 Hartrees.
 NAtoms=   18 NActive=   18 NUniq=   18 SFac= 1.00D+00 NAtFMM=   60 NAOKFM=F Big=F
 Integral buffers will be    131072 words long.
 Raffenetti 2 integral format.
 Two-electron integral symmetry is turned on.
 Force inversion solution in PCM.
 ------------------------------------------------------------------------------
 Polarizable Continuum Model (PCM)
 =================================
 Model                : PCM.
 Atomic radii         : UFF (Universal Force Field).
 Polarization charges : Total charges.
 Charge compensation  : None.
 Solution method      : Matrix inversion.
 Cavity type          : Scaled VdW (van der Waals Surface) (Alpha=1.100).
 Cavity algorithm     : GePol (No added spheres)
                        Default sphere list used, NSphG=   18.
                        Lebedev-Laikov grids with approx.  5.0 points / Ang**2.
                        Smoothing algorithm: York/Karplus (Gamma=1.0000).
                        Polarization charges: spherical gaussians, with
                                              point-specific exponents (IZeta= 3).
                        Self-potential: point-specific (ISelfS= 7).
                        Self-field    : sphere-specific E.n sum rule (ISelfD= 2).
 1st derivatives      : Analytical E(r).r(x)/FMM algorithm (CHGder, D1EAlg=3).
                        Cavity 1st derivative terms included.
 2nd derivatives      : Analytical E(r).r(xy)/FMM algorithm (CHGder, D2EAlg=3).
                        Cavity 2nd derivative terms included.
 Solvent              : Water, Eps=  78.355300 Eps(inf)=   1.777849
 ------------------------------------------------------------------------------
 Spheres list:
 ISph  on   Nord     Re0    Alpha      Xe            Ye            Ze
    1   C      1    1.9255  1.100     -2.526414     -0.605618      0.019734
    2   N      2    1.8300  1.100     -1.364756      0.081661     -0.516946
    3   C      3    1.9255  1.100     -0.569443      0.709174      0.545010
    4   C      4    1.9255  1.100      0.832494      1.086074      0.016376
    5   N      5    1.8300  1.100      1.548479     -0.032186     -0.627154
    6   C      6    1.9255  1.100      2.022504     -1.011479      0.342320
    7   H      7    1.4430  1.100     -3.103815     -1.042697     -0.800708
    8   H      8    1.4430  1.100     -3.184164      0.087966      0.553427
    9   H      9    1.4430  1.100     -2.237941     -1.416895      0.696054
   10   H     10    1.4430  1.100     -0.749509     -0.578924     -1.002161
   11   H     11    1.4430  1.100     -0.457390      0.031918      1.400049
   12   H     12    1.4430  1.100     -1.076596      1.613034      0.900758
   13   H     13    1.4430  1.100      0.711636      1.873951     -0.737690
   14   H     14    1.4430  1.100      1.435461      1.518886      0.823577
   15   H     15    1.4430  1.100      2.351984      0.349587     -1.126614
   16   H     16    1.4430  1.100      1.193728     -1.512995      0.850405
   17   H     17    1.4430  1.100      2.679578     -0.553927      1.088912
   18   H     18    1.4430  1.100      2.596126     -1.785125     -0.177948
 ------------------------------------------------------------------------------
 One-electron integrals computed using PRISM.
 NBasis=   150 RedAO= T EigKep=  4.19D-03  NBF=   150
 NBsUse=   150 1.00D-06 EigRej= -1.00D+00 NBFU=   150
 ExpMin= 1.61D-01 ExpMax= 4.17D+03 ExpMxC= 6.27D+02 IAcc=3 IRadAn=         5 AccDes= 0.00D+00
 Harris functional with IExCor=  402 and IRadAn=       5 diagonalized for initial guess.
 HarFok:  IExCor=  402 AccDes= 0.00D+00 IRadAn=         5 IDoV= 1 UseB2=F ITyADJ=14
 ICtDFT=  3500011 ScaDFX=  1.000000  1.000000  1.000000  1.000000
 FoFCou: FMM=F IPFlag=           0 FMFlag=      100000 FMFlg1=           0
         NFxFlg=           0 DoJE=T BraDBF=F KetDBF=T FulRan=T
         wScrn=  0.000000 ICntrl=       500 IOpCl=  0 I1Cent=   200000004 NGrid=           0
         NMat0=    1 NMatS0=      1 NMatT0=    0 NMatD0=    1 NMtDS0=    0 NMtDT0=    0
 Petite list used in FoFCou.
 Keep R1 ints in memory in canonical form, NReq=67061194.
 Requested convergence on RMS density matrix=1.00D-08 within  32 cycles.
 Requested convergence on MAX density matrix=1.00D-06.
 Requested convergence on             energy=1.00D-06.
 No special actions if energy rises.
 Inv3:  Mode=1 IEnd=     5338668.
 Iteration    1 A*A^-1 deviation from unit magnitude is 6.00D-15 for    324.
 Iteration    1 A*A^-1 deviation from orthogonality  is 3.72D-15 for   1135    682.
 Iteration    1 A^-1*A deviation from unit magnitude is 5.77D-15 for    324.
 Iteration    1 A^-1*A deviation from orthogonality  is 2.53D-15 for   1055    221.
 Error on total polarization charges =  0.00865
 SCF Done:  E(RB3LYP) =  -269.151027378     A.U. after   11 cycles
            NFock= 11  Conv=0.36D-08     -V/T= 2.0098
 QCSCF skips out because SCF is already converged.
 DoSCS=F DFT=T ScalE2(SS,OS)=  1.000000  1.000000
 Range of M.O.s used for correlation:     1   150
 NBasis=   150 NAE=    25 NBE=    25 NFC=     0 NFV=     0
 NROrb=    150 NOA=    25 NOB=    25 NVA=   125 NVB=   125
 Symmetrizing basis deriv contribution to polar:
 IMax=3 JMax=2 DiffMx= 0.00D+00
 G2DrvN: will do    19 centers at a time, making    1 passes.
 Calling FoFCou, ICntrl=  3107 FMM=F I1Cent=   0 AccDes= 0.00D+00.
 NEqPCM:  Using equilibrium solvation (IEInf=0, Eps=  78.3553, EpsInf=   1.7778)
 G2PCM: DoFxE=T DoFxN=T DoGrad=T DoDP/DQ/DG/TGxP=FFFF NFrqRd=   0 IEInf=0 SqF1=F DoCFld=F IF1Alg=4.
 End of G2Drv F.D. properties file   721 does not exist.
 End of G2Drv F.D. properties file   722 does not exist.
 End of G2Drv F.D. properties file   788 does not exist.
          IDoAtm=111111111111111111
 NEqPCM:  Using equilibrium solvation (IEInf=0, Eps=  78.3553, EpsInf=   1.7778)
          Differentiating once with respect to nuclear coordinates.
 Keep R1 ints in memory in canonical form, NReq=69584728.
          There are    57 degrees of freedom in the 1st order CPHF.  IDoFFX=6 NUNeed=     0.
     51 vectors produced by pass  0 Test12= 5.48D-15 1.75D-09 XBig12= 7.49D-02 5.33D-02.
 AX will form    51 AO Fock derivatives at one time.
     51 vectors produced by pass  1 Test12= 5.48D-15 1.75D-09 XBig12= 3.85D-03 1.05D-02.
     51 vectors produced by pass  2 Test12= 5.48D-15 1.75D-09 XBig12= 4.35D-05 9.55D-04.
     51 vectors produced by pass  3 Test12= 5.48D-15 1.75D-09 XBig12= 1.04D-07 4.27D-05.
     51 vectors produced by pass  4 Test12= 5.48D-15 1.75D-09 XBig12= 9.30D-11 1.13D-06.
     19 vectors produced by pass  5 Test12= 5.48D-15 1.75D-09 XBig12= 5.91D-14 3.53D-08.
 InvSVY:  IOpt=1 It=  1 EMax= 2.78D-16
 Solved reduced A of dimension   274 with    57 vectors.
 End of Minotr F.D. properties file   721 does not exist.
 End of Minotr F.D. properties file   722 does not exist.
 End of Minotr F.D. properties file   788 does not exist.

 **********************************************************************

            Population analysis using the SCF density.

 **********************************************************************

 Orbital symmetries:
       Occupied  (A) (A) (A) (A) (A) (A) (A) (A) (A) (A) (A) (A)
                 (A) (A) (A) (A) (A) (A) (A) (A) (A) (A) (A) (A)
                 (A)
       Virtual   (A) (A) (A) (A) (A) (A) (A) (A) (A) (A) (A) (A)
                 (A) (A) (A) (A) (A) (A) (A) (A) (A) (A) (A) (A)
                 (A) (A) (A) (A) (A) (A) (A) (A) (A) (A) (A) (A)
                 (A) (A) (A) (A) (A) (A) (A) (A) (A) (A) (A) (A)
                 (A) (A) (A) (A) (A) (A) (A) (A) (A) (A) (A) (A)
                 (A) (A) (A) (A) (A) (A) (A) (A) (A) (A) (A) (A)
                 (A) (A) (A) (A) (A) (A) (A) (A) (A) (A) (A) (A)
                 (A) (A) (A) (A) (A) (A) (A) (A) (A) (A) (A) (A)
                 (A) (A) (A) (A) (A) (A) (A) (A) (A) (A) (A) (A)
                 (A) (A) (A) (A) (A) (A) (A) (A) (A) (A) (A) (A)
                 (A) (A) (A) (A) (A)
 The electronic state is 1-A.
 Alpha  occ. eigenvalues --  -14.31915 -14.30712 -10.20327 -10.19981 -10.19670
 Alpha  occ. eigenvalues --  -10.19371  -0.90599  -0.87931  -0.72968  -0.66953
 Alpha  occ. eigenvalues --   -0.63556  -0.57923  -0.49813  -0.46103  -0.45845
 Alpha  occ. eigenvalues --   -0.43897  -0.41521  -0.41086  -0.38702  -0.37192
 Alpha  occ. eigenvalues --   -0.35040  -0.34396  -0.33234  -0.22657  -0.21352
 Alpha virt. eigenvalues --    0.07859   0.10425   0.12935   0.13791   0.15528
 Alpha virt. eigenvalues --    0.16150   0.16553   0.17595   0.18114   0.18962
 Alpha virt. eigenvalues --    0.20387   0.21444   0.21960   0.22606   0.24795
 Alpha virt. eigenvalues --    0.27246   0.28433   0.50426   0.52961   0.53150
 Alpha virt. eigenvalues --    0.53948   0.57473   0.58477   0.58898   0.62697
 Alpha virt. eigenvalues --    0.63707   0.67315   0.71616   0.74061   0.76352
 Alpha virt. eigenvalues --    0.77325   0.81502   0.81766   0.83192   0.85098
 Alpha virt. eigenvalues --    0.87379   0.88008   0.88968   0.89718   0.91759
 Alpha virt. eigenvalues --    0.92315   0.93920   0.95884   0.96981   0.99242
 Alpha virt. eigenvalues --    1.01383   1.04968   1.08653   1.19551   1.29323
 Alpha virt. eigenvalues --    1.30037   1.37299   1.40427   1.40990   1.45108
 Alpha virt. eigenvalues --    1.53409   1.58115   1.66042   1.70753   1.76897
 Alpha virt. eigenvalues --    1.79050   1.80914   1.83814   1.85841   1.92794
 Alpha virt. eigenvalues --    1.93885   1.94788   1.97393   2.00305   2.03609
 Alpha virt. eigenvalues --    2.04794   2.06745   2.07215   2.08976   2.09862
 Alpha virt. eigenvalues --    2.11449   2.14047   2.14847   2.16831   2.19354
 Alpha virt. eigenvalues --    2.26894   2.31708   2.33633   2.37379   2.39945
 Alpha virt. eigenvalues --    2.41596   2.44588   2.45232   2.53653   2.57127
 Alpha virt. eigenvalues --    2.57509   2.62829   2.64019   2.67363   2.71199
 Alpha virt. eigenvalues --    2.72056   2.72775   2.75758   2.80762   2.82039
 Alpha virt. eigenvalues --    2.87253   2.89483   2.90817   2.92513   2.94660
 Alpha virt. eigenvalues --    2.97613   3.01462   3.18886   3.20350   3.28377
 Alpha virt. eigenvalues --    3.31476   3.32909   3.38680   3.44733   3.45265
 Alpha virt. eigenvalues --    3.47558   3.51103   3.54002   3.54633   4.03108
 Alpha virt. eigenvalues --    4.09106   4.42698   4.47847   4.48654   4.65409
          Condensed to atoms (all electrons):
               1          2          3          4          5          6
     1  C    4.796934   0.314450  -0.051462   0.004894   0.000186  -0.000057
     2  N    0.314450   6.839980   0.316157  -0.040776  -0.010399  -0.000413
     3  C   -0.051462   0.316157   4.853367   0.358998  -0.055940  -0.002871
     4  C    0.004894  -0.040776   0.358998   4.849738   0.317205  -0.058314
     5  N    0.000186  -0.010399  -0.055940   0.317205   6.803125   0.308792
     6  C   -0.000057  -0.000413  -0.002871  -0.058314   0.308792   4.814757
     7  H    0.387105  -0.036058   0.005619  -0.000278   0.000015   0.000003
     8  H    0.390607  -0.039707  -0.003736  -0.000033  -0.000010   0.000000
     9  H    0.374574  -0.052166  -0.009618   0.000424  -0.000069   0.000006
    10  H   -0.037740   0.340871  -0.051913  -0.012535   0.030460  -0.000459
    11  H   -0.006053  -0.060058   0.363309  -0.036931  -0.006249   0.002834
    12  H   -0.002023  -0.046026   0.384260  -0.025407   0.003548  -0.000024
    13  H    0.000006   0.001007  -0.032858   0.377119  -0.037921   0.006177
    14  H   -0.000192   0.003807  -0.049793   0.370738  -0.053221  -0.007868
    15  H    0.000003   0.000198   0.005687  -0.034354   0.346598  -0.039242
    16  H    0.000041   0.000916   0.004495  -0.005324  -0.039136   0.394269
    17  H    0.000001   0.000030  -0.001918  -0.006989  -0.051883   0.374603
    18  H    0.000000  -0.000005   0.000041   0.005775  -0.033093   0.387618
               7          8          9         10         11         12
     1  C    0.387105   0.390607   0.374574  -0.037740  -0.006053  -0.002023
     2  N   -0.036058  -0.039707  -0.052166   0.340871  -0.060058  -0.046026
     3  C    0.005619  -0.003736  -0.009618  -0.051913   0.363309   0.384260
     4  C   -0.000278  -0.000033   0.000424  -0.012535  -0.036931  -0.025407
     5  N    0.000015  -0.000010  -0.000069   0.030460  -0.006249   0.003548
     6  C    0.000003   0.000000   0.000006  -0.000459   0.002834  -0.000024
     7  H    0.612111  -0.029753  -0.039789  -0.002528  -0.000156  -0.000030
     8  H   -0.029753   0.608682  -0.044445   0.005334  -0.002501   0.005398
     9  H   -0.039789  -0.044445   0.674275  -0.004866   0.016017  -0.001699
    10  H   -0.002528   0.005334  -0.004866   0.478340  -0.002332   0.006532
    11  H   -0.000156  -0.002501   0.016017  -0.002332   0.703200  -0.053294
    12  H   -0.000030   0.005398  -0.001699   0.006532  -0.053294   0.632235
    13  H    0.000002  -0.000022   0.000035  -0.000768   0.006889  -0.007001
    14  H    0.000004  -0.000011   0.000023   0.001022  -0.002526   0.000051
    15  H   -0.000000   0.000000  -0.000002  -0.000618  -0.000158  -0.000133
    16  H   -0.000005   0.000009   0.000068  -0.001157   0.000343  -0.000059
    17  H    0.000000  -0.000000  -0.000002   0.000321   0.000004   0.000021
    18  H   -0.000000  -0.000000   0.000002  -0.000154  -0.000096  -0.000001
              13         14         15         16         17         18
     1  C    0.000006  -0.000192   0.000003   0.000041   0.000001   0.000000
     2  N    0.001007   0.003807   0.000198   0.000916   0.000030  -0.000005
     3  C   -0.032858  -0.049793   0.005687   0.004495  -0.001918   0.000041
     4  C    0.377119   0.370738  -0.034354  -0.005324  -0.006989   0.005775
     5  N   -0.037921  -0.053221   0.346598  -0.039136  -0.051883  -0.033093
     6  C    0.006177  -0.007868  -0.039242   0.394269   0.374603   0.387618
     7  H    0.000002   0.000004  -0.000000  -0.000005   0.000000  -0.000000
     8  H   -0.000022  -0.000011   0.000000   0.000009  -0.000000  -0.000000
     9  H    0.000035   0.000023  -0.000002   0.000068  -0.000002   0.000002
    10  H   -0.000768   0.001022  -0.000618  -0.001157   0.000321  -0.000154
    11  H    0.006889  -0.002526  -0.000158   0.000343   0.000004  -0.000096
    12  H   -0.007001   0.000051  -0.000133  -0.000059   0.000021  -0.000001
    13  H    0.632416  -0.039651  -0.006254   0.000010  -0.000105  -0.000268
    14  H   -0.039651   0.684023  -0.002752  -0.001840   0.014779  -0.000099
    15  H   -0.006254  -0.002752   0.474790   0.005779  -0.004673  -0.004297
    16  H    0.000010  -0.001840   0.005779   0.594477  -0.044658  -0.028580
    17  H   -0.000105   0.014779  -0.004673  -0.044658   0.667107  -0.037902
    18  H   -0.000268  -0.000099  -0.004297  -0.028580  -0.037902   0.600877
 Mulliken charges:
               1
     1  C   -0.171276
     2  N   -0.531808
     3  C   -0.031825
     4  C   -0.063951
     5  N   -0.522006
     6  C   -0.179810
     7  H    0.103738
     8  H    0.110186
     9  H    0.087231
    10  H    0.252190
    11  H    0.077758
    12  H    0.103653
    13  H    0.101188
    14  H    0.083507
    15  H    0.259428
    16  H    0.120350
    17  H    0.091265
    18  H    0.110183
 Sum of Mulliken charges =  -0.00000
 Mulliken charges with hydrogens summed into heavy atoms:
               1
     1  C    0.129879
     2  N   -0.279618
     3  C    0.149586
     4  C    0.120744
     5  N   -0.262578
     6  C    0.141988
 APT charges:
               1
     1  C   -1.115596
     2  N   -0.504581
     3  C   -0.537468
     4  C   -0.689735
     5  N   -0.879565
     6  C   -1.016684
     7  H    0.508663
     8  H    0.467491
     9  H    0.220341
    10  H    0.303454
    11  H    0.236499
    12  H    0.436745
    13  H    0.388616
    14  H    0.371620
    15  H    0.691086
    16  H    0.198503
    17  H    0.391404
    18  H    0.529206
 Sum of APT charges =  -0.00000
 APT charges with hydrogens summed into heavy atoms:
               1
     1  C    0.080899
     2  N   -0.201128
     3  C    0.135776
     4  C    0.070502
     5  N   -0.188479
     6  C    0.102430
 Electronic spatial extent (au):  <R**2>=            806.8982
 Charge=             -0.0000 electrons
 Dipole moment (field-independent basis, Debye):
    X=              1.7471    Y=             -0.3554    Z=              1.2392  Tot=              2.1712
 Quadrupole moment (field-independent basis, Debye-Ang):
   XX=            -35.8737   YY=            -38.2868   ZZ=            -41.2524
   XY=              1.9534   XZ=             -2.3673   YZ=              0.6038
 Traceless Quadrupole moment (field-independent basis, Debye-Ang):
   XX=              2.5973   YY=              0.1842   ZZ=             -2.7815
   XY=              1.9534   XZ=             -2.3673   YZ=              0.6038
 Octapole moment (field-independent basis, Debye-Ang**2):
  XXX=             11.9131  YYY=              0.0604  ZZZ=             -1.8788  XYY=              2.2155
  XXY=             -1.5544  XXZ=             -2.8199  XZZ=              2.9838  YZZ=             -0.2730
  YYZ=             -0.9696  XYZ=             -4.2491
 Hexadecapole moment (field-independent basis, Debye-Ang**3):
 XXXX=           -707.7661 YYYY=           -211.3506 ZZZZ=           -121.4122 XXXY=              4.6826
 XXXZ=            -19.8718 YYYX=             -2.7104 YYYZ=              0.4008 ZZZX=             -4.0188
 ZZZY=              0.4117 XXYY=           -156.8762 XXZZ=           -141.7488 YYZZ=            -53.8419
 XXYZ=              4.4299 YYXZ=             -2.7577 ZZXY=              4.9479
 N-N= 2.592119749184D+02 E-N=-1.142651862611D+03  KE= 2.665302699128D+02
  Exact polarizability:   0.000   0.000   0.000   0.000   0.000   0.000
 Approx polarizability:  79.043  -0.188  76.697  -0.854   1.286  75.543
 D2PCM: PCM CHGder 2nd derivatives, FixD1E=F FixD2E=F DoIter=F DoCFld=F I1PDM=0
 Calling FoFJK, ICntrl=    100147 FMM=F ISym2X=0 I1Cent= 0 IOpClX= 0 NMat=1 NMatS=1 NMatT=0.
 ***** Axes restored to original set *****
 -------------------------------------------------------------------
 Center     Atomic                   Forces (Hartrees/Bohr)
 Number     Number              X              Y              Z
 -------------------------------------------------------------------
      1        6          -0.001175103    0.000846501   -0.008447314
      2        7          -0.006169102   -0.008061183    0.002707997
      3        6          -0.010859344    0.002730652   -0.012561443
      4        6          -0.000120418   -0.007164592   -0.005263060
      5        7           0.011139829   -0.003213125    0.000151414
      6        6          -0.006856740    0.001715736   -0.005300135
      7        1           0.001203508    0.000295223   -0.000398375
      8        1          -0.001237106   -0.000326650    0.001150221
      9        1           0.004808921    0.005890309    0.004162364
     10        1           0.003819746   -0.001939365    0.003802671
     11        1           0.001151281    0.003947029    0.005543809
     12        1          -0.000519935    0.000070341    0.001164979
     13        1           0.000043705    0.000805779   -0.000924240
     14        1           0.001630129    0.000452758    0.006592540
     15        1           0.003522075    0.001148098    0.000442089
     16        1           0.000425919   -0.002032683    0.000714385
     17        1          -0.000795260    0.004389585    0.006466567
     18        1          -0.000012104    0.000445587   -0.000004470
 -------------------------------------------------------------------
 Cartesian Forces:  Max     0.012561443 RMS     0.004407296
 FormGI is forming the generalized inverse of G from B-inverse, IUseBI=4.

 GradGradGradGradGradGradGradGradGradGradGradGradGradGradGradGradGradGrad
 Berny optimization.
 Internal  Forces:  Max     0.008303502 RMS     0.003130192
 Search for a local minimum.
 Step number   1 out of a maximum of   90
 All quantities printed in internal units (Hartrees-Bohrs-Radians)
 Mixed Optimization -- RFO/linear search
 Second derivative matrix not updated -- analytic derivatives used.
 ITU=  0
     Eigenvalues ---    0.00291   0.00328   0.00356   0.00458   0.00500
     Eigenvalues ---    0.02405   0.02491   0.04418   0.04457   0.04756
     Eigenvalues ---    0.05171   0.06242   0.06265   0.06422   0.06426
     Eigenvalues ---    0.07994   0.08604   0.09878   0.10244   0.11836
     Eigenvalues ---    0.12919   0.13190   0.13274   0.16364   0.16560
     Eigenvalues ---    0.17833   0.17874   0.20821   0.22961   0.24345
     Eigenvalues ---    0.25386   0.28455   0.31644   0.31894   0.32564
     Eigenvalues ---    0.32669   0.32863   0.33041   0.33669   0.33713
     Eigenvalues ---    0.33841   0.33962   0.35593   0.35807   0.38187
     Eigenvalues ---    0.38590   0.42047   0.43378
 RFO step:  Lambda=-4.43586168D-03 EMin= 2.91231599D-03
 Linear search not attempted -- first point.
 Iteration  1 RMS(Cart)=  0.07171146 RMS(Int)=  0.00204434
 Iteration  2 RMS(Cart)=  0.00272117 RMS(Int)=  0.00019004
 Iteration  3 RMS(Cart)=  0.00000475 RMS(Int)=  0.00019002
 Iteration  4 RMS(Cart)=  0.00000000 RMS(Int)=  0.00019002
 Variable       Old X    -DE/DX   Delta X   Delta X   Delta X     New X
                                 (Linear)    (Quad)   (Total)
    R1        2.74487   0.00601   0.00000   0.00995   0.00995   2.75482
    R2        2.06798   0.00089   0.00000   0.00061   0.00061   2.06859
    R3        2.06882   0.00018   0.00000   0.00310   0.00310   2.07192
    R4        2.06905   0.00629   0.00000   0.01905   0.01905   2.08810
    R5        2.77349  -0.00202   0.00000  -0.01363  -0.01363   2.75986
    R6        1.93670  -0.00566   0.00000  -0.01171  -0.01171   1.92499
    R7        2.91957  -0.00830   0.00000  -0.02771  -0.02771   2.89186
    R8        2.07209   0.00607   0.00000   0.01926   0.01926   2.09136
    R9        2.07071   0.00045   0.00000   0.00474   0.00474   2.07545
   R10        2.78840  -0.00365   0.00000  -0.01454  -0.01454   2.77386
   R11        2.07352  -0.00047   0.00000  -0.00317  -0.00317   2.07034
   R12        2.07222   0.00501   0.00000   0.01523   0.01523   2.08745
   R13        2.75381   0.00594   0.00000   0.01152   0.01152   2.76534
   R14        1.92792  -0.00369   0.00000  -0.00756  -0.00756   1.92036
   R15        2.06710  -0.00050   0.00000   0.00039   0.00039   2.06749
   R16        2.06880   0.00588   0.00000   0.01699   0.01699   2.08579
   R17        2.06858   0.00024   0.00000  -0.00144  -0.00144   2.06714
    A1        1.91128   0.00109   0.00000   0.00604   0.00567   1.91696
    A2        1.93998  -0.00440   0.00000  -0.02412  -0.02397   1.91600
    A3        1.94778   0.00804   0.00000   0.04286   0.04267   1.99045
    A4        1.87708   0.00039   0.00000   0.00189   0.00186   1.87894
    A5        1.88197  -0.00198   0.00000   0.00394   0.00332   1.88530
    A6        1.90350  -0.00335   0.00000  -0.03126  -0.03098   1.87252
    A7        1.94801   0.00559   0.00000   0.02453   0.02457   1.97258
    A8        1.92843  -0.00181   0.00000  -0.01007  -0.01002   1.91841
    A9        1.86800  -0.00197   0.00000  -0.00975  -0.00969   1.85832
   A10        1.92671  -0.00128   0.00000  -0.00076  -0.00102   1.92569
   A11        1.93427   0.00222   0.00000   0.02891   0.02867   1.96294
   A12        1.91430   0.00008   0.00000  -0.00646  -0.00647   1.90783
   A13        1.90156   0.00118   0.00000   0.01615   0.01583   1.91739
   A14        1.90693  -0.00096   0.00000  -0.01221  -0.01223   1.89469
   A15        1.87928  -0.00128   0.00000  -0.02660  -0.02644   1.85283
   A16        1.98740  -0.00799   0.00000  -0.03415  -0.03423   1.95316
   A17        1.88637   0.00236   0.00000   0.00559   0.00560   1.89197
   A18        1.92130  -0.00101   0.00000  -0.01970  -0.01947   1.90183
   A19        1.87329   0.00181   0.00000   0.00395   0.00371   1.87700
   A20        1.93195   0.00547   0.00000   0.03098   0.03048   1.96243
   A21        1.85775  -0.00014   0.00000   0.01689   0.01667   1.87443
   A22        1.95733   0.00615   0.00000   0.02793   0.02788   1.98522
   A23        1.88817  -0.00208   0.00000   0.00062   0.00059   1.88876
   A24        1.89756  -0.00196   0.00000  -0.00711  -0.00724   1.89032
   A25        1.95052  -0.00450   0.00000  -0.02563  -0.02553   1.92499
   A26        1.94772   0.00710   0.00000   0.03615   0.03604   1.98377
   A27        1.90626   0.00051   0.00000   0.00245   0.00219   1.90845
   A28        1.90668  -0.00283   0.00000  -0.02795  -0.02774   1.87894
   A29        1.86896   0.00096   0.00000   0.00729   0.00725   1.87621
   A30        1.88073  -0.00138   0.00000   0.00782   0.00739   1.88812
    D1        3.12216  -0.00108   0.00000   0.04223   0.04201  -3.11902
    D2       -1.08464  -0.00113   0.00000   0.03921   0.03897  -1.04567
    D3        1.05062   0.00045   0.00000   0.05091   0.05080   1.10143
    D4        3.12702   0.00040   0.00000   0.04789   0.04776  -3.10841
    D5       -1.07858   0.00222   0.00000   0.07803   0.07839  -1.00019
    D6        0.99782   0.00217   0.00000   0.07501   0.07535   1.07316
    D7        2.86885   0.00150   0.00000   0.05591   0.05600   2.92485
    D8        0.76043  -0.00060   0.00000   0.01704   0.01689   0.77733
    D9       -1.31220  -0.00045   0.00000   0.03614   0.03618  -1.27602
   D10        0.75689   0.00167   0.00000   0.05999   0.06009   0.81698
   D11       -1.35153  -0.00043   0.00000   0.02112   0.02099  -1.33055
   D12        2.85902  -0.00028   0.00000   0.04021   0.04027   2.89929
   D13       -0.92239  -0.00127   0.00000  -0.07255  -0.07242  -0.99481
   D14        1.15724  -0.00233   0.00000  -0.08493  -0.08491   1.07233
   D15       -3.10358  -0.00170   0.00000  -0.07225  -0.07248   3.10713
   D16        1.20545   0.00145   0.00000  -0.02659  -0.02638   1.17907
   D17       -2.99811   0.00039   0.00000  -0.03897  -0.03887  -3.03698
   D18       -0.97574   0.00102   0.00000  -0.02629  -0.02644  -1.00218
   D19       -3.02893   0.00004   0.00000  -0.05626  -0.05614  -3.08507
   D20       -0.94931  -0.00102   0.00000  -0.06865  -0.06863  -1.01793
   D21        1.07306  -0.00039   0.00000  -0.05596  -0.05619   1.01687
   D22       -1.27247   0.00007   0.00000  -0.06710  -0.06685  -1.33932
   D23        2.91810   0.00010   0.00000  -0.07580  -0.07563   2.84247
   D24        2.92366   0.00075   0.00000  -0.05598  -0.05581   2.86785
   D25        0.83105   0.00077   0.00000  -0.06468  -0.06459   0.76646
   D26        0.90303  -0.00302   0.00000  -0.09476  -0.09506   0.80798
   D27       -1.18958  -0.00299   0.00000  -0.10345  -0.10384  -1.29342
   D28        1.13584   0.00020   0.00000   0.01907   0.01899   1.15482
   D29       -1.00499   0.00198   0.00000   0.04766   0.04793  -0.95706
   D30       -3.08261  -0.00103   0.00000   0.01401   0.01388  -3.06873
   D31       -3.06021   0.00013   0.00000   0.03249   0.03237  -3.02784
   D32        1.08215   0.00191   0.00000   0.06108   0.06131   1.14346
   D33       -0.99547  -0.00110   0.00000   0.02743   0.02726  -0.96821
         Item               Value     Threshold  Converged?
 Maximum Force            0.008304     0.000450     NO 
 RMS     Force            0.003130     0.000300     NO 
 Maximum Displacement     0.234276     0.001800     NO 
 RMS     Displacement     0.071733     0.001200     NO 
 Predicted change in Energy=-2.491204D-03
 GradGradGradGradGradGradGradGradGradGradGradGradGradGradGradGradGradGrad

                          Input orientation:                          
 ---------------------------------------------------------------------
 Center     Atomic      Atomic             Coordinates (Angstroms)
 Number     Number       Type             X           Y           Z
 ---------------------------------------------------------------------
      1          6           0        2.567772   -0.004951   -0.398372
      2          7           0        1.247357   -0.619821   -0.458277
      3          6           0        0.531878   -0.561354    0.813574
      4          6           0       -0.938672   -0.934906    0.614109
      5          7           0       -1.594150   -0.070275   -0.374517
      6          6           0       -1.933097    1.258147    0.137160
      7          1           0        3.046715   -0.057146   -1.381302
      8          1           0        3.200607   -0.553268    0.309433
      9          1           0        2.557795    1.052737   -0.078732
     10          1           0        0.667590   -0.131235   -1.138587
     11          1           0        0.605350    0.432485    1.294890
     12          1           0        0.981666   -1.275393    1.516469
     13          1           0       -0.986435   -1.962557    0.237356
     14          1           0       -1.449395   -0.918106    1.593442
     15          1           0       -2.451807   -0.524916   -0.675198
     16          1           0       -1.022769    1.821454    0.362930
     17          1           0       -2.548980    1.236267    1.052844
     18          1           0       -2.481425    1.812839   -0.629804
 ---------------------------------------------------------------------
                    Distance matrix (angstroms):
                    1          2          3          4          5
     1  C    0.000000
     2  N    1.457789   0.000000
     3  C    2.433775   1.460457   0.000000
     4  C    3.766308   2.455201   1.530308   0.000000
     5  N    4.162503   2.895372   2.484495   1.467862   0.000000
     6  C    4.705320   3.741202   3.137550   2.454759   1.463354
     7  H    1.094652   2.099111   3.375813   4.542624   4.748834
     8  H    1.096412   2.099761   2.715942   4.167986   4.867316
     9  H    1.104976   2.158414   2.739679   4.081180   4.311299
    10  H    2.043173   1.018659   2.003585   2.509562   2.388093
    11  H    2.628609   2.143155   1.106698   2.171917   2.806687
    12  H    2.792198   2.097615   1.098282   2.148926   3.415108
    13  H    4.107159   2.697530   2.144917   1.095578   2.079528
    14  H    4.575893   3.401616   2.158913   1.104633   2.147704
    15  H    5.054024   3.706733   3.334688   2.029773   1.016209
    16  H    4.099673   3.433318   2.880587   2.769058   2.109253
    17  H    5.461484   4.487842   3.574966   2.738535   2.157803
    18  H    5.371434   4.455453   4.098795   3.387846   2.097271
                    6          7          8          9         10
     6  C    0.000000
     7  H    5.369754   0.000000
     8  H    5.446634   1.768730   0.000000
     9  H    4.500768   1.779767   1.772887   0.000000
    10  H    3.212707   2.392622   2.948059   2.469404   0.000000
    11  H    2.909600   3.655407   2.945877   2.466494   2.498692
    12  H    4.100873   3.761068   2.627185   3.232497   2.908103
    13  H    3.358443   4.745202   4.418440   4.664062   2.825377
    14  H    2.662856   5.459428   4.837799   4.768433   3.544682
    15  H    2.026894   5.563374   5.737602   5.285912   3.178104
    16  H    1.094069   4.809593   4.845521   3.688689   2.987451
    17  H    1.103752   6.237771   6.067360   5.233861   4.125379
    18  H    1.093883   5.884040   6.226244   5.125931   3.735582
                   11         12         13         14         15
    11  H    0.000000
    12  H    1.762827   0.000000
    13  H    3.064047   2.445761   0.000000
    14  H    2.476935   2.458380   1.773183   0.000000
    15  H    3.760860   4.141902   2.246526   2.511206   0.000000
    16  H    2.334214   3.865084   3.786269   3.033375   2.936888
    17  H    3.264116   4.357620   3.652266   2.478439   2.469279
    18  H    3.890758   5.112403   4.152177   3.669601   2.338383
                   16         17         18
    16  H    0.000000
    17  H    1.774189   0.000000
    18  H    1.764446   1.779972   0.000000
 Stoichiometry    C4H12N2
 Framework group  C1[X(C4H12N2)]
 Deg. of freedom    48
 Full point group                 C1      NOp   1
 Largest Abelian subgroup         C1      NOp   1
 Largest concise Abelian subgroup C1      NOp   1
                         Standard orientation:                         
 ---------------------------------------------------------------------
 Center     Atomic      Atomic             Coordinates (Angstroms)
 Number     Number       Type             X           Y           Z
 ---------------------------------------------------------------------
      1          6           0       -2.561251   -0.602071    0.017463
      2          7           0       -1.377439    0.077255   -0.494644
      3          6           0       -0.553631    0.662240    0.559902
      4          6           0        0.806907    1.083242   -0.000041
      5          7           0        1.512480   -0.040642   -0.627471
      6          6           0        2.119579   -0.964404    0.331434
      7          1           0       -3.126531   -1.039147   -0.811805
      8          1           0       -3.214626    0.120069    0.521186
      9          1           0       -2.340554   -1.406459    0.742187
     10          1           0       -0.784033   -0.585889   -0.990401
     11          1           0       -0.411623   -0.024786    1.415827
     12          1           0       -1.056508    1.551893    0.962213
     13          1           0        0.643024    1.842837   -0.772343
     14          1           0        1.396929    1.554123    0.806407
     15          1           0        2.248845    0.336236   -1.217734
     16          1           0        1.343738   -1.477089    0.907812
     17          1           0        2.800485   -0.474186    1.048595
     18          1           0        2.685950   -1.727940   -0.209690
 ---------------------------------------------------------------------
 Rotational constants (GHZ):           6.6202718           1.8111702           1.6455406
 Standard basis: 6-31G(d,p) (6D, 7F)
 There are   150 symmetry adapted cartesian basis functions of A   symmetry.
 There are   150 symmetry adapted basis functions of A   symmetry.
   150 basis functions,   252 primitive gaussians,   150 cartesian basis functions
    25 alpha electrons       25 beta electrons
       nuclear repulsion energy       258.8364193666 Hartrees.
 NAtoms=   18 NActive=   18 NUniq=   18 SFac= 1.00D+00 NAtFMM=   60 NAOKFM=F Big=F
 Integral buffers will be    131072 words long.
 Raffenetti 2 integral format.
 Two-electron integral symmetry is turned on.
 ------------------------------------------------------------------------------
 Polarizable Continuum Model (PCM)
 =================================
 Model                : PCM.
 Atomic radii         : UFF (Universal Force Field).
 Polarization charges : Total charges.
 Charge compensation  : None.
 Solution method      : Matrix inversion.
 Cavity type          : Scaled VdW (van der Waals Surface) (Alpha=1.100).
 Cavity algorithm     : GePol (No added spheres)
                        Default sphere list used, NSphG=   18.
                        Lebedev-Laikov grids with approx.  5.0 points / Ang**2.
                        Smoothing algorithm: York/Karplus (Gamma=1.0000).
                        Polarization charges: spherical gaussians, with
                                              point-specific exponents (IZeta= 3).
                        Self-potential: point-specific (ISelfS= 7).
                        Self-field    : sphere-specific E.n sum rule (ISelfD= 2).
 1st derivatives      : Analytical E(r).r(x)/FMM algorithm (CHGder, D1EAlg=3).
                        Cavity 1st derivative terms included.
 Solvent              : Water, Eps=  78.355300 Eps(inf)=   1.777849
 ------------------------------------------------------------------------------
 Spheres list:
 ISph  on   Nord     Re0    Alpha      Xe            Ye            Ze
    1   C      1    1.9255  1.100     -2.561251     -0.602071      0.017463
    2   N      2    1.8300  1.100     -1.377439      0.077255     -0.494644
    3   C      3    1.9255  1.100     -0.553631      0.662240      0.559902
    4   C      4    1.9255  1.100      0.806907      1.083242     -0.000041
    5   N      5    1.8300  1.100      1.512480     -0.040642     -0.627471
    6   C      6    1.9255  1.100      2.119579     -0.964404      0.331434
    7   H      7    1.4430  1.100     -3.126531     -1.039147     -0.811805
    8   H      8    1.4430  1.100     -3.214626      0.120069      0.521186
    9   H      9    1.4430  1.100     -2.340554     -1.406459      0.742187
   10   H     10    1.4430  1.100     -0.784033     -0.585889     -0.990401
   11   H     11    1.4430  1.100     -0.411623     -0.024786      1.415827
   12   H     12    1.4430  1.100     -1.056508      1.551893      0.962213
   13   H     13    1.4430  1.100      0.643024      1.842837     -0.772343
   14   H     14    1.4430  1.100      1.396929      1.554123      0.806407
   15   H     15    1.4430  1.100      2.248845      0.336236     -1.217734
   16   H     16    1.4430  1.100      1.343738     -1.477089      0.907812
   17   H     17    1.4430  1.100      2.800485     -0.474186      1.048595
   18   H     18    1.4430  1.100      2.685950     -1.727940     -0.209690
 ------------------------------------------------------------------------------
 One-electron integrals computed using PRISM.
 NBasis=   150 RedAO= T EigKep=  4.09D-03  NBF=   150
 NBsUse=   150 1.00D-06 EigRej= -1.00D+00 NBFU=   150
 Initial guess from the checkpoint file:  "KVKFRMCSXWQSNT-UHFFFAOYSA-N_conf_2_0.chk"
 B after Tr=     0.000000    0.000000    0.000000
         Rot=    0.999971    0.001114   -0.005225   -0.005352 Ang=   0.87 deg.
 ExpMin= 1.61D-01 ExpMax= 4.17D+03 ExpMxC= 6.27D+02 IAcc=2 IRadAn=         4 AccDes= 0.00D+00
 Harris functional with IExCor=  402 and IRadAn=       4 diagonalized for initial guess.
 HarFok:  IExCor=  402 AccDes= 0.00D+00 IRadAn=         4 IDoV= 1 UseB2=F ITyADJ=14
 ICtDFT=  3500011 ScaDFX=  1.000000  1.000000  1.000000  1.000000
 FoFCou: FMM=F IPFlag=           0 FMFlag=      100000 FMFlg1=           0
         NFxFlg=           0 DoJE=T BraDBF=F KetDBF=T FulRan=T
         wScrn=  0.000000 ICntrl=       500 IOpCl=  0 I1Cent=   200000004 NGrid=           0
         NMat0=    1 NMatS0=      1 NMatT0=    0 NMatD0=    1 NMtDS0=    0 NMtDT0=    0
 Petite list used in FoFCou.
 Keep R1 ints in memory in canonical form, NReq=67061194.
 Requested convergence on RMS density matrix=1.00D-08 within  32 cycles.
 Requested convergence on MAX density matrix=1.00D-06.
 Requested convergence on             energy=1.00D-06.
 No special actions if energy rises.
 Inv3:  Mode=1 IEnd=     5410947.
 Iteration    1 A*A^-1 deviation from unit magnitude is 5.55D-15 for    560.
 Iteration    1 A*A^-1 deviation from orthogonality  is 5.53D-15 for   1112    716.
 Iteration    1 A^-1*A deviation from unit magnitude is 5.11D-15 for     34.
 Iteration    1 A^-1*A deviation from orthogonality  is 2.47D-12 for   1128   1112.
 Error on total polarization charges =  0.00872
 SCF Done:  E(RB3LYP) =  -269.153525617     A.U. after   10 cycles
            NFock= 10  Conv=0.36D-08     -V/T= 2.0099
 QCSCF skips out because SCF is already converged.
 D1PCM: PCM CHGder 1st derivatives, ID1Alg=3 FixD1E=F DoIter=F DoCFld=F I1PDM=0.
 Calling FoFJK, ICntrl=      2127 FMM=F ISym2X=0 I1Cent= 0 IOpClX= 0 NMat=1 NMatS=1 NMatT=0.
 ***** Axes restored to original set *****
 -------------------------------------------------------------------
 Center     Atomic                   Forces (Hartrees/Bohr)
 Number     Number              X              Y              Z
 -------------------------------------------------------------------
      1        6          -0.000002641    0.000104177   -0.000553457
      2        7          -0.000212000   -0.000904640    0.000496971
      3        6          -0.000130589    0.000142982   -0.000615365
      4        6          -0.000535796   -0.000872899    0.000098435
      5        7           0.000466949    0.000681860    0.000480423
      6        6          -0.000894375   -0.000118145   -0.000183103
      7        1           0.000037584    0.000158235   -0.000018738
      8        1           0.000056423   -0.000114358   -0.000137517
      9        1           0.000308242    0.000105362    0.000442317
     10        1           0.000303898    0.000017143   -0.000273068
     11        1          -0.000082555    0.000236397    0.000004381
     12        1           0.000093932    0.000348423    0.000407170
     13        1          -0.000196982    0.000082791   -0.000192550
     14        1           0.000386380   -0.000022110    0.000394002
     15        1           0.000286839   -0.000133134   -0.000708098
     16        1           0.000033348    0.000028030   -0.000058885
     17        1           0.000147682    0.000221634    0.000379915
     18        1          -0.000066338    0.000038252    0.000037168
 -------------------------------------------------------------------
 Cartesian Forces:  Max     0.000904640 RMS     0.000354083

 GradGradGradGradGradGradGradGradGradGradGradGradGradGradGradGradGradGrad
 Berny optimization.
 Using GEDIIS/GDIIS optimizer.
 FormGI is forming the generalized inverse of G from B-inverse, IUseBI=4.
 Internal  Forces:  Max     0.000472849 RMS     0.000224674
 Search for a local minimum.
 Step number   2 out of a maximum of   90
 All quantities printed in internal units (Hartrees-Bohrs-Radians)
 Mixed Optimization -- En-DIIS/RFO-DIIS
 Update second derivatives using D2CorX and points    1    2
 DE= -2.50D-03 DEPred=-2.49D-03 R= 1.00D+00
 TightC=F SS=  1.41D+00  RLast= 3.51D-01 DXNew= 5.0454D-01 1.0531D+00
 Trust test= 1.00D+00 RLast= 3.51D-01 DXMaxT set to 5.05D-01
 ITU=  1  0
 Use linear search instead of GDIIS.
     Eigenvalues ---    0.00291   0.00328   0.00357   0.00457   0.00500
     Eigenvalues ---    0.02404   0.02490   0.04417   0.04463   0.04757
     Eigenvalues ---    0.05165   0.06244   0.06268   0.06408   0.06424
     Eigenvalues ---    0.07991   0.08595   0.09877   0.10241   0.11821
     Eigenvalues ---    0.12920   0.13182   0.13253   0.16359   0.16554
     Eigenvalues ---    0.17670   0.17866   0.20820   0.22959   0.24339
     Eigenvalues ---    0.25451   0.28553   0.31663   0.31979   0.32549
     Eigenvalues ---    0.32657   0.32900   0.33044   0.33669   0.33710
     Eigenvalues ---    0.33836   0.33966   0.35670   0.35855   0.37974
     Eigenvalues ---    0.38405   0.42078   0.43397
 RFO step:  Lambda=-3.87980939D-04 EMin= 2.91158280D-03
 Quartic linear search produced a step of  0.14773.
 Iteration  1 RMS(Cart)=  0.08036614 RMS(Int)=  0.00171455
 Iteration  2 RMS(Cart)=  0.00258951 RMS(Int)=  0.00002973
 Iteration  3 RMS(Cart)=  0.00000212 RMS(Int)=  0.00002967
 Iteration  4 RMS(Cart)=  0.00000000 RMS(Int)=  0.00002967
 Variable       Old X    -DE/DX   Delta X   Delta X   Delta X     New X
                                 (Linear)    (Quad)   (Total)
    R1        2.75482   0.00046   0.00147  -0.00066   0.00081   2.75563
    R2        2.06859   0.00003   0.00009  -0.00049  -0.00040   2.06819
    R3        2.07192   0.00000   0.00046   0.00012   0.00058   2.07250
    R4        2.08810   0.00023   0.00281  -0.00163   0.00119   2.08929
    R5        2.75986   0.00030  -0.00201   0.00102  -0.00100   2.75887
    R6        1.92499   0.00002  -0.00173   0.00210   0.00037   1.92535
    R7        2.89186   0.00035  -0.00409   0.00372  -0.00037   2.89149
    R8        2.09136   0.00021   0.00285  -0.00138   0.00146   2.09282
    R9        2.07545   0.00007   0.00070  -0.00044   0.00026   2.07571
   R10        2.77386   0.00047  -0.00215   0.00190  -0.00024   2.77361
   R11        2.07034  -0.00000  -0.00047   0.00006  -0.00041   2.06993
   R12        2.08745   0.00017   0.00225  -0.00164   0.00061   2.08806
   R13        2.76534   0.00039   0.00170  -0.00267  -0.00096   2.76437
   R14        1.92036   0.00003  -0.00112   0.00057  -0.00055   1.91981
   R15        2.06749   0.00003   0.00006   0.00059   0.00065   2.06814
   R16        2.08579   0.00023   0.00251  -0.00157   0.00094   2.08673
   R17        2.06714   0.00003  -0.00021   0.00012  -0.00009   2.06705
    A1        1.91696   0.00011   0.00084  -0.00173  -0.00095   1.91601
    A2        1.91600  -0.00016  -0.00354   0.00400   0.00048   1.91648
    A3        1.99045   0.00041   0.00630  -0.00428   0.00199   1.99244
    A4        1.87894  -0.00007   0.00028  -0.00038  -0.00011   1.87883
    A5        1.88530  -0.00010   0.00049   0.00008   0.00048   1.88577
    A6        1.87252  -0.00021  -0.00458   0.00253  -0.00201   1.87051
    A7        1.97258   0.00032   0.00363  -0.00233   0.00130   1.97388
    A8        1.91841  -0.00014  -0.00148  -0.00300  -0.00448   1.91394
    A9        1.85832  -0.00003  -0.00143  -0.00015  -0.00157   1.85675
   A10        1.92569   0.00020  -0.00015  -0.00107  -0.00126   1.92442
   A11        1.96294   0.00013   0.00424  -0.00347   0.00073   1.96368
   A12        1.90783  -0.00015  -0.00096   0.00053  -0.00043   1.90740
   A13        1.91739  -0.00006   0.00234  -0.00219   0.00010   1.91748
   A14        1.89469  -0.00004  -0.00181   0.00510   0.00329   1.89799
   A15        1.85283  -0.00010  -0.00391   0.00155  -0.00233   1.85050
   A16        1.95316   0.00005  -0.00506   0.00168  -0.00339   1.94977
   A17        1.89197  -0.00007   0.00083  -0.00319  -0.00236   1.88961
   A18        1.90183  -0.00016  -0.00288   0.00371   0.00086   1.90269
   A19        1.87700   0.00003   0.00055   0.00116   0.00167   1.87867
   A20        1.96243   0.00009   0.00450  -0.00315   0.00127   1.96370
   A21        1.87443   0.00006   0.00246  -0.00041   0.00202   1.87645
   A22        1.98522   0.00028   0.00412  -0.00175   0.00235   1.98756
   A23        1.88876  -0.00002   0.00009   0.00526   0.00531   1.89407
   A24        1.89032  -0.00012  -0.00107   0.00512   0.00401   1.89432
   A25        1.92499  -0.00016  -0.00377   0.00342  -0.00033   1.92465
   A26        1.98377   0.00034   0.00532  -0.00450   0.00081   1.98457
   A27        1.90845   0.00007   0.00032   0.00109   0.00137   1.90982
   A28        1.87894  -0.00020  -0.00410   0.00128  -0.00279   1.87615
   A29        1.87621  -0.00003   0.00107  -0.00132  -0.00026   1.87595
   A30        1.88812  -0.00005   0.00109   0.00009   0.00112   1.88923
    D1       -3.11902   0.00008   0.00621   0.05217   0.05835  -3.06067
    D2       -1.04567   0.00015   0.00576   0.04843   0.05415  -0.99152
    D3        1.10143   0.00020   0.00751   0.05127   0.05876   1.16019
    D4       -3.10841   0.00027   0.00706   0.04753   0.05456  -3.05384
    D5       -1.00019   0.00032   0.01158   0.04802   0.05965  -0.94054
    D6        1.07316   0.00039   0.01113   0.04427   0.05545   1.12861
    D7        2.92485   0.00022   0.00827   0.04013   0.04842   2.97327
    D8        0.77733   0.00006   0.00250   0.04623   0.04870   0.82603
    D9       -1.27602   0.00020   0.00534   0.04608   0.05143  -1.22459
   D10        0.81698   0.00023   0.00888   0.04535   0.05424   0.87122
   D11       -1.33055   0.00007   0.00310   0.05144   0.05452  -1.27602
   D12        2.89929   0.00021   0.00595   0.05129   0.05725   2.95654
   D13       -0.99481  -0.00036  -0.01070  -0.04961  -0.06030  -1.05510
   D14        1.07233  -0.00034  -0.01254  -0.04922  -0.06176   1.01057
   D15        3.10713  -0.00039  -0.01071  -0.04945  -0.06019   3.04694
   D16        1.17907  -0.00009  -0.00390  -0.05630  -0.06017   1.11890
   D17       -3.03698  -0.00008  -0.00574  -0.05591  -0.06163  -3.09861
   D18       -1.00218  -0.00013  -0.00391  -0.05613  -0.06006  -1.06225
   D19       -3.08507  -0.00026  -0.00829  -0.05278  -0.06105   3.13707
   D20       -1.01793  -0.00025  -0.01014  -0.05238  -0.06251  -1.08044
   D21        1.01687  -0.00030  -0.00830  -0.05261  -0.06094   0.95592
   D22       -1.33932  -0.00034  -0.00988  -0.06302  -0.07285  -1.41217
   D23        2.84247  -0.00035  -0.01117  -0.07209  -0.08324   2.75923
   D24        2.86785  -0.00029  -0.00824  -0.06082  -0.06904   2.79882
   D25        0.76646  -0.00031  -0.00954  -0.06989  -0.07942   0.68703
   D26        0.80798  -0.00044  -0.01404  -0.05924  -0.07332   0.73465
   D27       -1.29342  -0.00046  -0.01534  -0.06830  -0.08371  -1.37713
   D28        1.15482   0.00009   0.00280   0.01691   0.01970   1.17453
   D29       -0.95706   0.00023   0.00708   0.01588   0.02300  -0.93406
   D30       -3.06873   0.00001   0.00205   0.01800   0.02002  -3.04871
   D31       -3.02784   0.00017   0.00478   0.02606   0.03083  -2.99701
   D32        1.14346   0.00030   0.00906   0.02502   0.03412   1.17758
   D33       -0.96821   0.00008   0.00403   0.02714   0.03115  -0.93706
         Item               Value     Threshold  Converged?
 Maximum Force            0.000473     0.000450     NO 
 RMS     Force            0.000225     0.000300     YES
 Maximum Displacement     0.250304     0.001800     NO 
 RMS     Displacement     0.079817     0.001200     NO 
 Predicted change in Energy=-2.492273D-04
 GradGradGradGradGradGradGradGradGradGradGradGradGradGradGradGradGradGrad

                          Input orientation:                          
 ---------------------------------------------------------------------
 Center     Atomic      Atomic             Coordinates (Angstroms)
 Number     Number       Type             X           Y           Z
 ---------------------------------------------------------------------
      1          6           0        2.615327   -0.069920   -0.400781
      2          7           0        1.271325   -0.632615   -0.459306
      3          6           0        0.544370   -0.511426    0.800949
      4          6           0       -0.923145   -0.897972    0.605446
      5          7           0       -1.587443   -0.030013   -0.374142
      6          6           0       -2.022549    1.255224    0.172446
      7          1           0        3.079049   -0.114743   -1.391111
      8          1           0        3.235929   -0.660426    0.284013
      9          1           0        2.652039    0.978767   -0.052539
     10          1           0        0.721258   -0.134497   -1.157421
     11          1           0        0.611151    0.506194    1.232788
     12          1           0        0.991163   -1.186007    1.543808
     13          1           0       -0.959872   -1.922561    0.219851
     14          1           0       -1.430422   -0.893749    1.587065
     15          1           0       -2.400602   -0.517922   -0.738568
     16          1           0       -1.155224    1.867029    0.439235
     17          1           0       -2.653973    1.163516    1.073704
     18          1           0       -2.588378    1.801123   -0.588019
 ---------------------------------------------------------------------
                    Distance matrix (angstroms):
                    1          2          3          4          5
     1  C    0.000000
     2  N    1.458215   0.000000
     3  C    2.434738   1.459930   0.000000
     4  C    3.770802   2.453530   1.530110   0.000000
     5  N    4.203044   2.922830   2.481375   1.467732   0.000000
     6  C    4.857416   3.848721   3.178859   2.456101   1.462844
     7  H    1.094441   2.098647   3.374476   4.540622   4.776772
     8  H    1.096717   2.100706   2.744798   4.178234   4.908717
     9  H    1.105605   2.160644   2.718711   4.091092   4.369699
    10  H    2.040630   1.018853   2.002144   2.528766   2.440193
    11  H    2.648996   2.143805   1.107472   2.172395   2.775528
    12  H    2.768571   2.096949   1.098418   2.151293   3.415269
    13  H    4.074250   2.665231   2.142830   1.095361   2.080483
    14  H    4.582392   3.399303   2.159618   1.104954   2.148727
    15  H    5.047211   3.684316   3.323103   2.033148   1.015917
    16  H    4.321394   3.597740   2.945591   2.779697   2.108830
    17  H    5.609009   4.580848   3.620666   2.732172   2.158299
    18  H    5.533028   4.564752   4.134154   3.388580   2.097779
                    6          7          8          9         10
     6  C    0.000000
     7  H    5.508886   0.000000
     8  H    5.597656   1.768734   0.000000
     9  H    4.688157   1.780415   1.772329   0.000000
    10  H    3.350873   2.369426   2.945828   2.487576   0.000000
    11  H    2.936281   3.655261   3.025002   2.457766   2.477036
    12  H    4.113721   3.757741   2.627221   3.161183   2.911213
    13  H    3.351097   4.709171   4.381992   4.640884   2.814294
    14  H    2.640047   5.460010   4.850487   4.781329   3.569089
    15  H    2.029019   5.533076   5.730310   5.314121   3.173083
    16  H    1.094411   5.020623   5.068959   3.940317   3.174366
    17  H    1.104251   6.369992   6.216214   5.427367   4.249110
    18  H    1.093835   6.036160   6.382963   5.331508   3.876149
                   11         12         13         14         15
    11  H    0.000000
    12  H    1.762011   0.000000
    13  H    3.064801   2.470205   0.000000
    14  H    2.500674   2.439541   1.774583   0.000000
    15  H    3.742420   4.142420   2.228740   2.547757   0.000000
    16  H    2.366786   3.892054   3.800958   3.002523   2.937035
    17  H    3.334428   4.362140   3.622556   2.448051   2.485107
    18  H    3.902456   5.126475   4.143731   3.651601   2.331500
                   16         17         18
    16  H    0.000000
    17  H    1.773057   0.000000
    18  H    1.764519   1.781059   0.000000
 Stoichiometry    C4H12N2
 Framework group  C1[X(C4H12N2)]
 Deg. of freedom    48
 Full point group                 C1      NOp   1
 Largest Abelian subgroup         C1      NOp   1
 Largest concise Abelian subgroup C1      NOp   1
                         Standard orientation:                         
 ---------------------------------------------------------------------
 Center     Atomic      Atomic             Coordinates (Angstroms)
 Number     Number       Type             X           Y           Z
 ---------------------------------------------------------------------
      1          6           0       -2.609966   -0.583383    0.025014
      2          7           0       -1.408342    0.065366   -0.486469
      3          6           0       -0.559804    0.612364    0.568126
      4          6           0        0.783532    1.060325   -0.011544
      5          7           0        1.508482   -0.056945   -0.628304
      6          6           0        2.227761   -0.896817    0.329384
      7          1           0       -3.162069   -1.043839   -0.800191
      8          1           0       -3.266375    0.162809    0.488817
      9          1           0       -2.414926   -1.363318    0.783976
     10          1           0       -0.839648   -0.614065   -0.989482
     11          1           0       -0.392438   -0.106865    1.393470
     12          1           0       -1.056980    1.481603    1.019523
     13          1           0        0.589679    1.802322   -0.793641
     14          1           0        1.369707    1.558609    0.781574
     15          1           0        2.177498    0.320276   -1.293292
     16          1           0        1.520426   -1.434295    0.968547
     17          1           0        2.909749   -0.332907    0.989890
     18          1           0        2.815255   -1.644215   -0.211656
 ---------------------------------------------------------------------
 Rotational constants (GHZ):           6.9686329           1.7366235           1.6054641
 Standard basis: 6-31G(d,p) (6D, 7F)
 There are   150 symmetry adapted cartesian basis functions of A   symmetry.
 There are   150 symmetry adapted basis functions of A   symmetry.
   150 basis functions,   252 primitive gaussians,   150 cartesian basis functions
    25 alpha electrons       25 beta electrons
       nuclear repulsion energy       257.9488214914 Hartrees.
 NAtoms=   18 NActive=   18 NUniq=   18 SFac= 1.00D+00 NAtFMM=   60 NAOKFM=F Big=F
 Integral buffers will be    131072 words long.
 Raffenetti 2 integral format.
 Two-electron integral symmetry is turned on.
 ------------------------------------------------------------------------------
 Polarizable Continuum Model (PCM)
 =================================
 Model                : PCM.
 Atomic radii         : UFF (Universal Force Field).
 Polarization charges : Total charges.
 Charge compensation  : None.
 Solution method      : Matrix inversion.
 Cavity type          : Scaled VdW (van der Waals Surface) (Alpha=1.100).
 Cavity algorithm     : GePol (No added spheres)
                        Default sphere list used, NSphG=   18.
                        Lebedev-Laikov grids with approx.  5.0 points / Ang**2.
                        Smoothing algorithm: York/Karplus (Gamma=1.0000).
                        Polarization charges: spherical gaussians, with
                                              point-specific exponents (IZeta= 3).
                        Self-potential: point-specific (ISelfS= 7).
                        Self-field    : sphere-specific E.n sum rule (ISelfD= 2).
 1st derivatives      : Analytical E(r).r(x)/FMM algorithm (CHGder, D1EAlg=3).
                        Cavity 1st derivative terms included.
 Solvent              : Water, Eps=  78.355300 Eps(inf)=   1.777849
 ------------------------------------------------------------------------------
 Spheres list:
 ISph  on   Nord     Re0    Alpha      Xe            Ye            Ze
    1   C      1    1.9255  1.100     -2.609966     -0.583383      0.025014
    2   N      2    1.8300  1.100     -1.408342      0.065366     -0.486469
    3   C      3    1.9255  1.100     -0.559804      0.612364      0.568126
    4   C      4    1.9255  1.100      0.783532      1.060325     -0.011544
    5   N      5    1.8300  1.100      1.508482     -0.056945     -0.628304
    6   C      6    1.9255  1.100      2.227761     -0.896817      0.329384
    7   H      7    1.4430  1.100     -3.162069     -1.043839     -0.800191
    8   H      8    1.4430  1.100     -3.266375      0.162809      0.488817
    9   H      9    1.4430  1.100     -2.414926     -1.363318      0.783976
   10   H     10    1.4430  1.100     -0.839648     -0.614065     -0.989482
   11   H     11    1.4430  1.100     -0.392438     -0.106865      1.393470
   12   H     12    1.4430  1.100     -1.056980      1.481603      1.019523
   13   H     13    1.4430  1.100      0.589679      1.802322     -0.793641
   14   H     14    1.4430  1.100      1.369707      1.558609      0.781574
   15   H     15    1.4430  1.100      2.177498      0.320276     -1.293292
   16   H     16    1.4430  1.100      1.520426     -1.434295      0.968547
   17   H     17    1.4430  1.100      2.909749     -0.332907      0.989890
   18   H     18    1.4430  1.100      2.815255     -1.644215     -0.211656
 ------------------------------------------------------------------------------
 One-electron integrals computed using PRISM.
 NBasis=   150 RedAO= T EigKep=  4.09D-03  NBF=   150
 NBsUse=   150 1.00D-06 EigRej= -1.00D+00 NBFU=   150
 Initial guess from the checkpoint file:  "KVKFRMCSXWQSNT-UHFFFAOYSA-N_conf_2_0.chk"
 B after Tr=    -0.000000    0.000000   -0.000000
         Rot=    0.999966    0.004038   -0.004022   -0.005988 Ang=   0.95 deg.
 ExpMin= 1.61D-01 ExpMax= 4.17D+03 ExpMxC= 6.27D+02 IAcc=2 IRadAn=         4 AccDes= 0.00D+00
 Harris functional with IExCor=  402 and IRadAn=       4 diagonalized for initial guess.
 HarFok:  IExCor=  402 AccDes= 0.00D+00 IRadAn=         4 IDoV= 1 UseB2=F ITyADJ=14
 ICtDFT=  3500011 ScaDFX=  1.000000  1.000000  1.000000  1.000000
 FoFCou: FMM=F IPFlag=           0 FMFlag=      100000 FMFlg1=           0
         NFxFlg=           0 DoJE=T BraDBF=F KetDBF=T FulRan=T
         wScrn=  0.000000 ICntrl=       500 IOpCl=  0 I1Cent=   200000004 NGrid=           0
         NMat0=    1 NMatS0=      1 NMatT0=    0 NMatD0=    1 NMtDS0=    0 NMtDT0=    0
 Petite list used in FoFCou.
 Keep R1 ints in memory in canonical form, NReq=67061194.
 Requested convergence on RMS density matrix=1.00D-08 within  32 cycles.
 Requested convergence on MAX density matrix=1.00D-06.
 Requested convergence on             energy=1.00D-06.
 No special actions if energy rises.
[...]
          Condensed to atoms (all electrons):
               1          2          3          4          5          6
     1  C    5.186735   0.261412  -0.038029   0.002676  -0.000260  -0.000066
     2  N    0.261412   7.240624   0.298689  -0.011875   0.005525  -0.000426
     3  C   -0.038029   0.298689   5.379464   0.410635  -0.069269   0.005027
     4  C    0.002676  -0.011875   0.410635   5.270657   0.359955  -0.067850
     5  N   -0.000260   0.005525  -0.069269   0.359955   7.525798   0.341582
     6  C   -0.000066  -0.000426   0.005027  -0.067850   0.341582   5.679653
     7  H    0.298056  -0.069837   0.004222  -0.000400   0.000002  -0.000001
     8  H    0.241187  -0.069160  -0.022696  -0.000864   0.000004  -0.000002
     9  H    0.263343  -0.074269  -0.025254  -0.000025  -0.000242  -0.000213
    10  H   -0.017317  -0.002340  -0.033848  -0.030994  -0.005746  -0.002424
    11  H   -0.006384  -0.106751   0.133035  -0.059099  -0.019814  -0.016474
    12  H   -0.004625  -0.092433   0.089805  -0.113450  -0.000028  -0.000239
    13  H    0.001863  -0.030260  -0.036024   0.127248  -0.134396   0.010419
    14  H    0.000170  -0.001130  -0.077477   0.259892  -0.082343  -0.013547
    15  H    0.000330  -0.008214   0.011779  -0.105482  -0.297173  -0.057674
    16  H    0.000585  -0.006993  -0.018305   0.006254  -0.105793   0.025083
    17  H    0.000021  -0.000267  -0.003891  -0.007193  -0.095661   0.177870
    18  H    0.000036  -0.000567  -0.000195   0.008715  -0.134494   0.065643
               7          8          9         10         11         12
     1  C    0.298056   0.241187   0.263343  -0.017317  -0.006384  -0.004625
     2  N   -0.069837  -0.069160  -0.074269  -0.002340  -0.106751  -0.092433
     3  C    0.004222  -0.022696  -0.025254  -0.033848   0.133035   0.089805
     4  C   -0.000400  -0.000864  -0.000025  -0.030994  -0.059099  -0.113450
     5  N    0.000002   0.000004  -0.000242  -0.005746  -0.019814  -0.000028
     6  C   -0.000001  -0.000002  -0.000213  -0.002424  -0.016474  -0.000239
     7  H    0.627389   0.005285  -0.004212   0.021146   0.002200   0.002003
     8  H    0.005285   0.668627   0.007932   0.018868   0.009975   0.027433
     9  H   -0.004212   0.007932   0.656754   0.022015   0.029154   0.007704
    10  H    0.021146   0.018868   0.022015   0.713772   0.036176   0.029763
    11  H    0.002200   0.009975   0.029154   0.036176   0.783135   0.056537
    12  H    0.002003   0.027433   0.007704   0.029763   0.056537   0.876141
    13  H    0.000160   0.000532   0.000257   0.022579   0.018667   0.035712
    14  H    0.000015   0.000114   0.000095   0.004526   0.015040   0.029320
    15  H    0.000022   0.000017   0.000059   0.019723   0.005879   0.002468
    16  H    0.000069   0.000089   0.001642   0.012712   0.050029   0.003125
    17  H    0.000001   0.000001   0.000013   0.000998   0.004905   0.000735
    18  H    0.000002   0.000001   0.000034   0.002817   0.002393   0.000118
              13         14         15         16         17         18
     1  C    0.001863   0.000170   0.000330   0.000585   0.000021   0.000036
     2  N   -0.030260  -0.001130  -0.008214  -0.006993  -0.000267  -0.000567
     3  C   -0.036024  -0.077477   0.011779  -0.018305  -0.003891  -0.000195
     4  C    0.127248   0.259892  -0.105482   0.006254  -0.007193   0.008715
     5  N   -0.134396  -0.082343  -0.297173  -0.105793  -0.095661  -0.134494
     6  C    0.010419  -0.013547  -0.057674   0.025083   0.177870   0.065643
     7  H    0.000160   0.000015   0.000022   0.000069   0.000001   0.000002
     8  H    0.000532   0.000114   0.000017   0.000089   0.000001   0.000001
     9  H    0.000257   0.000095   0.000059   0.001642   0.000013   0.000034
    10  H    0.022579   0.004526   0.019723   0.012712   0.000998   0.002817
    11  H    0.018667   0.015040   0.005879   0.050029   0.004905   0.002393
    12  H    0.035712   0.029320   0.002468   0.003125   0.000735   0.000118
    13  H    0.820077   0.020436   0.082802   0.003669   0.003521   0.001314
    14  H    0.020436   0.669784   0.036743   0.011389   0.024776   0.003172
    15  H    0.082802   0.036743   1.103623   0.037760   0.043155   0.076114
    16  H    0.003669   0.011389   0.037760   0.830428   0.033172   0.071028
    17  H    0.003521   0.024776   0.043155   0.033172   0.698758   0.031652
    18  H    0.001314   0.003172   0.076114   0.071028   0.031652   0.830917
 Mulliken charges:
               1
     1  C   -0.189733
     2  N   -0.331728
     3  C   -0.007668
     4  C   -0.048800
     5  N   -0.287647
     6  C   -0.146362
     7  H    0.113878
     8  H    0.112657
     9  H    0.115211
    10  H    0.187575
    11  H    0.061397
    12  H    0.049912
    13  H    0.051423
    14  H    0.099024
    15  H    0.048070
    16  H    0.044056
    17  H    0.087434
    18  H    0.041300
 Sum of Mulliken charges =  -0.00000
 Mulliken charges with hydrogens summed into heavy atoms:
               1
     1  C    0.152014
     2  N   -0.144153
     3  C    0.103641
     4  C    0.101647
     5  N   -0.239577
     6  C    0.026429
 Electronic spatial extent (au):  <R**2>=            844.4394
 Charge=             -0.0000 electrons
 Dipole moment (field-independent basis, Debye):
    X=             -1.6555    Y=             -0.0945    Z=              0.8890  Tot=              1.8815
 Quadrupole moment (field-independent basis, Debye-Ang):
   XX=            -40.6609   YY=            -42.0860   ZZ=            -42.7095
   XY=              2.7508   XZ=              1.1811   YZ=              0.8374
 Traceless Quadrupole moment (field-independent basis, Debye-Ang):
   XX=              1.1579   YY=             -0.2672   ZZ=             -0.8907
   XY=              2.7508   XZ=              1.1811   YZ=              0.8374
 Octapole moment (field-independent basis, Debye-Ang**2):
  XXX=            -20.6917  YYY=              0.2425  ZZZ=             -0.2918  XYY=             -2.5785
  XXY=             -3.7159  XXZ=              4.7341  XZZ=             -3.2833  YZZ=             -0.6184
  YYZ=              0.3164  XYZ=             -0.9793
 Hexadecapole moment (field-independent basis, Debye-Ang**3):
 XXXX=           -840.4649 YYYY=           -211.3679 ZZZZ=           -136.8587 XXXY=             14.9080
 XXXZ=             13.5835 YYYX=              6.2162 YYYZ=              1.4349 ZZZX=              6.3238
 ZZZY=              2.4123 XXYY=           -177.3826 XXZZ=           -166.7728 YYZZ=            -57.0475
 XXYZ=              1.3604 YYXZ=              2.5734 ZZXY=              3.2999
 N-N= 2.577908809843D+02 E-N=-1.138278693660D+03  KE= 2.666606529863D+02
 Evaluate density.
 Using the total density.
 Monte-Carlo method of calculating molar volume:
 based on  0.001 e/bohr**3 density envelope.
 Number of points per bohr**3 =   20 CutOff= 1.00D-04
 Using the CI density.
 There are       348 points.  Will hold       348 in memory.
 LenV=   805230126 MDV=   805306368.
 Box volume = 5286.768 fraction occupied=0.218
 Integrated density= 5.6357270996741711D+01 error= 6.3572709967417111D+00
 Molar volume = 1154.581 bohr**3/mol (103.034 cm**3/mol)
 Recommended a0 for SCRF calculation =  4.29 angstrom (  8.11 bohr)
 ******************************Gaussian NBO Version 3.1******************************
             N A T U R A L   A T O M I C   O R B I T A L   A N D
          N A T U R A L   B O N D   O R B I T A L   A N A L Y S I S
 ******************************Gaussian NBO Version 3.1******************************
       /RESON  / : Allow strongly delocalized NBO set

 Analyzing the CI density

 Job title: KVKFRMCSXWQSNT-UHFFFAOYSA-N_conf_2                              

 Storage needed:     68640 in NPA ( 805304568 available)
 GSVD:  LWork=       11556 too small for GESVD, short by        9684 words or        9684 for optimal perf.


 NATURAL POPULATIONS:  Natural atomic orbital occupancies 
                                                          
   NAO  Atom  No  lang   Type(AO)    Occupancy
 --------------------------------------------
     1    C    1  S      Cor( 1S)     1.99948
     2    C    1  S      Val( 2S)     1.10621
     3    C    1  S      Ryd( 3S)     0.00132
     4    C    1  S      Ryd( 4S)     0.00002
     5    C    1  px     Val( 2p)     1.01652
     6    C    1  px     Ryd( 3p)     0.00712
     7    C    1  py     Val( 2p)     1.17916
     8    C    1  py     Ryd( 3p)     0.00176
     9    C    1  pz     Val( 2p)     1.21825
    10    C    1  pz     Ryd( 3p)     0.00373
    11    C    1  dxy    Ryd( 3d)     0.00107
    12    C    1  dxz    Ryd( 3d)     0.00097
    13    C    1  dyz    Ryd( 3d)     0.00105
    14    C    1  dx2y2  Ryd( 3d)     0.00063
    15    C    1  dz2    Ryd( 3d)     0.00042

    16    N    2  S      Cor( 1S)     1.99945
    17    N    2  S      Val( 2S)     1.38454
    18    N    2  S      Ryd( 3S)     0.00288
    19    N    2  S      Ryd( 4S)     0.00008
    20    N    2  px     Val( 2p)     1.28587
    21    N    2  px     Ryd( 3p)     0.00200
    22    N    2  py     Val( 2p)     1.36023
    23    N    2  py     Ryd( 3p)     0.00313
    24    N    2  pz     Val( 2p)     1.40528
    25    N    2  pz     Ryd( 3p)     0.00176
    26    N    2  dxy    Ryd( 3d)     0.00099
    27    N    2  dxz    Ryd( 3d)     0.00087
    28    N    2  dyz    Ryd( 3d)     0.00084
    29    N    2  dx2y2  Ryd( 3d)     0.00049
    30    N    2  dz2    Ryd( 3d)     0.00066

    31    C    3  S      Cor( 1S)     1.99929
    32    C    3  S      Val( 2S)     1.04173
    33    C    3  S      Ryd( 3S)     0.00220
    34    C    3  S      Ryd( 4S)     0.00004
    35    C    3  px     Val( 2p)     1.00699
    36    C    3  px     Ryd( 3p)     0.00339
    37    C    3  py     Val( 2p)     1.17854
    38    C    3  py     Ryd( 3p)     0.00335
    39    C    3  pz     Val( 2p)     1.06597
    40    C    3  pz     Ryd( 3p)     0.00602
    41    C    3  dxy    Ryd( 3d)     0.00090
    42    C    3  dxz    Ryd( 3d)     0.00116
    43    C    3  dyz    Ryd( 3d)     0.00118
    44    C    3  dx2y2  Ryd( 3d)     0.00067
    45    C    3  dz2    Ryd( 3d)     0.00066

    46    C    4  S      Cor( 1S)     1.99933
    47    C    4  S      Val( 2S)     1.03682
    48    C    4  S      Ryd( 3S)     0.00181
    49    C    4  S      Ryd( 4S)     0.00004
    50    C    4  px     Val( 2p)     1.03717
    51    C    4  px     Ryd( 3p)     0.00431
    52    C    4  py     Val( 2p)     1.04666
    53    C    4  py     Ryd( 3p)     0.00295
    54    C    4  pz     Val( 2p)     1.17901
    55    C    4  pz     Ryd( 3p)     0.00578
    56    C    4  dxy    Ryd( 3d)     0.00096
    57    C    4  dxz    Ryd( 3d)     0.00088
    58    C    4  dyz    Ryd( 3d)     0.00144
    59    C    4  dx2y2  Ryd( 3d)     0.00075
    60    C    4  dz2    Ryd( 3d)     0.00046

    61    N    5  S      Cor( 1S)     1.99946
    62    N    5  S      Val( 2S)     1.40482
    63    N    5  S      Ryd( 3S)     0.00350
    64    N    5  S      Ryd( 4S)     0.00021
    65    N    5  px     Val( 2p)     1.37582
    66    N    5  px     Ryd( 3p)     0.00436
    67    N    5  py     Val( 2p)     1.30894
    68    N    5  py     Ryd( 3p)     0.00299
    69    N    5  pz     Val( 2p)     1.36881
    70    N    5  pz     Ryd( 3p)     0.00141
    71    N    5  dxy    Ryd( 3d)     0.00084
    72    N    5  dxz    Ryd( 3d)     0.00092
    73    N    5  dyz    Ryd( 3d)     0.00089
    74    N    5  dx2y2  Ryd( 3d)     0.00065
    75    N    5  dz2    Ryd( 3d)     0.00043

    76    C    6  S      Cor( 1S)     1.99948
    77    C    6  S      Val( 2S)     1.11694
    78    C    6  S      Ryd( 3S)     0.00158
    79    C    6  S      Ryd( 4S)     0.00004
    80    C    6  px     Val( 2p)     1.15089
    81    C    6  px     Ryd( 3p)     0.00261
    82    C    6  py     Val( 2p)     1.14621
    83    C    6  py     Ryd( 3p)     0.00723
    84    C    6  pz     Val( 2p)     1.11081
    85    C    6  pz     Ryd( 3p)     0.00750
    86    C    6  dxy    Ryd( 3d)     0.00097
    87    C    6  dxz    Ryd( 3d)     0.00132
    88    C    6  dyz    Ryd( 3d)     0.00113
    89    C    6  dx2y2  Ryd( 3d)     0.00036
    90    C    6  dz2    Ryd( 3d)     0.00037

    91    H    7  S      Val( 1S)     0.76054
    92    H    7  S      Ryd( 2S)     0.00654
    93    H    7  px     Ryd( 2p)     0.00015
    94    H    7  py     Ryd( 2p)     0.00012
    95    H    7  pz     Ryd( 2p)     0.00022

    96    H    8  S      Val( 1S)     0.76388
    97    H    8  S      Ryd( 2S)     0.01190
    98    H    8  px     Ryd( 2p)     0.00020
    99    H    8  py     Ryd( 2p)     0.00020
   100    H    8  pz     Ryd( 2p)     0.00013

   101    H    9  S      Val( 1S)     0.76185
   102    H    9  S      Ryd( 2S)     0.01204
   103    H    9  px     Ryd( 2p)     0.00008
   104    H    9  py     Ryd( 2p)     0.00023
   105    H    9  pz     Ryd( 2p)     0.00021

   106    H   10  S      Val( 1S)     0.62216
   107    H   10  S      Ryd( 2S)     0.03561
   108    H   10  px     Ryd( 2p)     0.00042
   109    H   10  py     Ryd( 2p)     0.00051
   110    H   10  pz     Ryd( 2p)     0.00039

   111    H   11  S      Val( 1S)     0.76592
   112    H   11  S      Ryd( 2S)     0.03209
   113    H   11  px     Ryd( 2p)     0.00012
   114    H   11  py     Ryd( 2p)     0.00021
   115    H   11  pz     Ryd( 2p)     0.00024

   116    H   12  S      Val( 1S)     0.78512
   117    H   12  S      Ryd( 2S)     0.02520
   118    H   12  px     Ryd( 2p)     0.00014
   119    H   12  py     Ryd( 2p)     0.00027
   120    H   12  pz     Ryd( 2p)     0.00014

   121    H   13  S      Val( 1S)     0.77775
   122    H   13  S      Ryd( 2S)     0.02509
   123    H   13  px     Ryd( 2p)     0.00009
   124    H   13  py     Ryd( 2p)     0.00023
   125    H   13  pz     Ryd( 2p)     0.00021

   126    H   14  S      Val( 1S)     0.75444
   127    H   14  S      Ryd( 2S)     0.01608
   128    H   14  px     Ryd( 2p)     0.00018
   129    H   14  py     Ryd( 2p)     0.00015
   130    H   14  pz     Ryd( 2p)     0.00022

   131    H   15  S      Val( 1S)     0.69516
   132    H   15  S      Ryd( 2S)     0.07434
   133    H   15  px     Ryd( 2p)     0.00050
   134    H   15  py     Ryd( 2p)     0.00034
   135    H   15  pz     Ryd( 2p)     0.00038

   136    H   16  S      Val( 1S)     0.79478
   137    H   16  S      Ryd( 2S)     0.02964
   138    H   16  px     Ryd( 2p)     0.00021
   139    H   16  py     Ryd( 2p)     0.00016
   140    H   16  pz     Ryd( 2p)     0.00017

   141    H   17  S      Val( 1S)     0.76874
   142    H   17  S      Ryd( 2S)     0.01595
   143    H   17  px     Ryd( 2p)     0.00019
   144    H   17  py     Ryd( 2p)     0.00015
   145    H   17  pz     Ryd( 2p)     0.00018

   146    H   18  S      Val( 1S)     0.79645
   147    H   18  S      Ryd( 2S)     0.02217
   148    H   18  px     Ryd( 2p)     0.00015
   149    H   18  py     Ryd( 2p)     0.00022
   150    H   18  pz     Ryd( 2p)     0.00012


 Summary of Natural Population Analysis:                  
                                                          
                                       Natural Population 
                Natural  -----------------------------------------------
    Atom  No    Charge         Core      Valence    Rydberg      Total
 -----------------------------------------------------------------------
      C    1   -0.53773      1.99948     4.52014    0.01810     6.53773
      N    2   -0.44907      1.99945     5.43592    0.01369     7.44907
      C    3   -0.31209      1.99929     4.29323    0.01957     6.31209
      C    4   -0.31837      1.99933     4.29966    0.01938     6.31837
      N    5   -0.47406      1.99946     5.45839    0.01621     7.47406
      C    6   -0.54743      1.99948     4.52484    0.02311     6.54743
      H    7    0.23242      0.00000     0.76054    0.00704     0.76758
      H    8    0.22369      0.00000     0.76388    0.01242     0.77631
      H    9    0.22559      0.00000     0.76185    0.01256     0.77441
      H   10    0.34091      0.00000     0.62216    0.03693     0.65909
      H   11    0.20143      0.00000     0.76592    0.03265     0.79857
      H   12    0.18912      0.00000     0.78512    0.02576     0.81088
      H   13    0.19663      0.00000     0.77775    0.02562     0.80337
      H   14    0.22893      0.00000     0.75444    0.01663     0.77107
      H   15    0.22929      0.00000     0.69516    0.07555     0.77071
      H   16    0.17504      0.00000     0.79478    0.03019     0.82496
      H   17    0.21479      0.00000     0.76874    0.01647     0.78521
      H   18    0.18090      0.00000     0.79645    0.02266     0.81910
 =======================================================================
   * Total *   -0.00000     11.99649    37.57897    0.42454    50.00000

                                 Natural Population      
 --------------------------------------------------------
   Core                      11.99649 ( 99.9707% of  12)
   Valence                   37.57897 ( 98.8920% of  38)
   Natural Minimal Basis     49.57546 ( 99.1509% of  50)
   Natural Rydberg Basis      0.42454 (  0.8491% of  50)
 --------------------------------------------------------

    Atom  No          Natural Electron Configuration
 ----------------------------------------------------------------------------
      C    1      [core]2S( 1.11)2p( 3.41)3p( 0.01)
      N    2      [core]2S( 1.38)2p( 4.05)3p( 0.01)
      C    3      [core]2S( 1.04)2p( 3.25)3p( 0.01)
      C    4      [core]2S( 1.04)2p( 3.26)3p( 0.01)
      N    5      [core]2S( 1.40)2p( 4.05)3p( 0.01)
      C    6      [core]2S( 1.12)2p( 3.41)3p( 0.02)
      H    7            1S( 0.76)2S( 0.01)
      H    8            1S( 0.76)2S( 0.01)
      H    9            1S( 0.76)2S( 0.01)
      H   10            1S( 0.62)2S( 0.04)
      H   11            1S( 0.77)2S( 0.03)
      H   12            1S( 0.79)2S( 0.03)
      H   13            1S( 0.78)2S( 0.03)
      H   14            1S( 0.75)2S( 0.02)
      H   15            1S( 0.70)2S( 0.07)
      H   16            1S( 0.79)2S( 0.03)
      H   17            1S( 0.77)2S( 0.02)
      H   18            1S( 0.80)2S( 0.02)


 NBO analysis skipped by request.
 1\1\GINC-CN13\SP\RB3LYP TD-FC\6-31G(d,p)\C4H12N2\QDUEZ\11-Jul-2024\0\\
 # TD(NStates=10, Root=1) B3LYP/6-31G** SCRF=(Solvent=water) volume pop
 =NPA density=current Geom=AllCheck Guess=Read\\KVKFRMCSXWQSNT-UHFFFAOY
 SA-N_conf_2\\0,1\C,0,2.6213784366,-0.0766744458,-0.4021170204\N,0,1.27
 59315988,-0.6373084012,-0.460031789\C,0,0.5468853226,-0.5078150631,0.7
 987511145\C,0,-0.9212446913,-0.8929356741,0.6048778294\N,0,-1.58475079
 41,-0.0224805631,-0.3739445138\C,0,-2.0345641135,1.2549780232,0.179043
 401\H,0,3.0865093905,-0.12653325,-1.3915633819\H,0,3.2398899065,-0.665
 292711,0.2860469255\H,0,2.6592280556,0.9733720236,-0.0587967033\H,0,0.
 7292769401,-0.1419413555,-1.1625853059\H,0,0.612451465,0.5130346994,1.
 2226810287\H,0,0.9937139425,-1.1771964047,1.5462410393\H,0,-0.96072899
 62,-1.917960495,0.2207341207\H,0,-1.4280752323,-0.886960425,1.58641584
 16\H,0,-2.3910610617,-0.5135268193,-0.74902605\H,0,-1.1740567661,1.869
 9252113,0.4609161779\H,0,-2.6751096492,1.1511956712,1.0724260899\H,0,-
 2.5956737538,1.804119979,-0.5826507984\\Version=EM64L-G16RevA.03\State
 =1-A\HF=-269.1537849\RMSD=1.111e-09\Dipole=0.6997726,0.0555841,0.23488
 91\Quadrupole=1.0136534,-1.262418,0.2487646,1.0239319,-1.8567662,-0.33
 68149\PG=C01 [X(C4H12N2)]\\@


 WHAT, THEN, IS TIME?  IF NO ONE ASKS ME, I KNOW WHAT IT IS.
 IF I WISH TO EXPLAIN WHAT IT IS TO HIM WHO ASKS ME, I DO NOT KNOW.
                                   -- ST. AUGUSTINE (FIFTH CENTURY)
 Job cpu time:       0 days  0 hours 23 minutes 14.7 seconds.
 Elapsed time:       0 days  0 hours 13 minutes 38.6 seconds.
 File lengths (MBytes):  RWF=    245 Int=      0 D2E=      0 Chk=     15 Scr=      1
 Normal termination of Gaussian 16 at Thu Jul 11 20:20:38 2024.
