 Entering Gaussian System, Link 0=g16
 Initial command:
 /opt/sw/arch/manual/gaussian/G16_A03/g16/l1.exe "/scratch/1032065.jesse.materianova.be/Gau-64750.inp" -scrdir="/scratch/1032065.jesse.materianova.be/"
 Entering Link 1 = /opt/sw/arch/manual/gaussian/G16_A03/g16/l1.exe PID=     64751.
  
 Copyright (c) 1988,1990,1992,1993,1995,1998,2003,2009,2016,
            Gaussian, Inc.  All Rights Reserved.
  
 This is part of the Gaussian(R) 16 program.  It is based on
 the Gaussian(R) 09 system (copyright 2009, Gaussian, Inc.),
 the Gaussian(R) 03 system (copyright 2003, Gaussian, Inc.),
 the Gaussian(R) 98 system (copyright 1998, Gaussian, Inc.),
 the Gaussian(R) 94 system (copyright 1995, Gaussian, Inc.),
 the Gaussian 92(TM) system (copyright 1992, Gaussian, Inc.),
 the Gaussian 90(TM) system (copyright 1990, Gaussian, Inc.),
 the Gaussian 88(TM) system (copyright 1988, Gaussian, Inc.),
 the Gaussian 86(TM) system (copyright 1986, Carnegie Mellon
 University), and the Gaussian 82(TM) system (copyright 1983,
 Carnegie Mellon University). Gaussian is a federally registered
 trademark of Gaussian, Inc.
  
 This software contains proprietary and confidential information,
 including trade secrets, belonging to Gaussian, Inc.
  
 This software is provided under written license and may be
 used, copied, transmitted, or stored only in accord with that
 written license.
  
 The following legend is applicable only to US Government
 contracts under FAR:
  
                    RESTRICTED RIGHTS LEGEND
  
 Use, reproduction and disclosure by the US Government is
 subject to restrictions as set forth in subparagraphs (a)
 and (c) of the Commercial Computer Software - Restricted
 Rights clause in FAR 52.227-19.
  
 Gaussian, Inc.
 340 Quinnipiac St., Bldg. 40, Wallingford CT 06492
  
  
 ---------------------------------------------------------------
 Warning -- This program may not be used in any manner that
 competes with the business of Gaussian, Inc. or will provide
 assistance to any competitor of Gaussian, Inc.  The licensee
 of this program is prohibited from giving any competitor of
 Gaussian, Inc. access to this program.  By using this program,
 the user acknowledges that Gaussian, Inc. is engaged in the
 business of creating and licensing software in the field of
 computational chemistry and represents and warrants to the
 licensee that it is not a competitor of Gaussian, Inc. and that
 it will not use this program in any manner prohibited above.
 ---------------------------------------------------------------
  

 Cite this work as:
 Gaussian 16, Revision A.03,
 M. J. Frisch, G. W. Trucks, H. B. Schlegel, G. E. Scuseria, 
 M. A. Robb, J. R. Cheeseman, G. Scalmani, V. Barone, 
 G. A. Petersson, H. Nakatsuji, X. Li, M. Caricato, A. V. Marenich, 
 J. Bloino, B. G. Janesko, R. Gomperts, B. Mennucci, H. P. Hratchian, 
 J. V. Ortiz, A. F. Izmaylov, J. L. Sonnenberg, D. Williams-Young, 
 F. Ding, F. Lipparini, F. Egidi, J. Goings, B. Peng, A. Petrone, 
 T. Henderson, D. Ranasinghe, V. G. Zakrzewski, J. Gao, N. Rega, 
 G. Zheng, W. Liang, M. Hada, M. Ehara, K. Toyota, R. Fukuda, 
 J. Hasegawa, M. Ishida, T. Nakajima, Y. Honda, O. Kitao, H. Nakai, 
 T. Vreven, K. Throssell, J. A. Montgomery, Jr., J. E. Peralta, 
 F. Ogliaro, M. J. Bearpark, J. J. Heyd, E. N. Brothers, K. N. Kudin, 
 V. N. Staroverov, T. A. Keith, R. Kobayashi, J. Normand, 
 K. Raghavachari, A. P. Rendell, J. C. Burant, S. S. Iyengar, 
 J. Tomasi, M. Cossi, J. M. Millam, M. Klene, C. Adamo, R. Cammi, 
 J. W. Ochterski, R. L. Martin, K. Morokuma, O. Farkas, 
 J. B. Foresman, and D. J. Fox, Gaussian, Inc., Wallingford CT, 2016.
 
 ******************************************
 Gaussian 16:  EM64L-G16RevA.03 25-Dec-2016
                11-Jul-2024 
 ******************************************
 %nprocshared=3
 Will use up to    3 processors via shared memory.
 %mem=6GB
 %Chk=KVKFRMCSXWQSNT-UHFFFAOYSA-N_conf_1_0.chk
 -------------------------------------------------------
 # opt=CalcFc B3LYP/6-31G** SCRF=(Solvent=water) scf=xqc
 -------------------------------------------------------
 1/10=4,18=20,19=15,26=3,38=1/1,3;
 2/9=110,12=2,17=6,18=5,40=1/2;
 3/5=1,6=6,7=101,11=2,25=1,30=1,70=2201,71=2,72=1,74=-5,140=1/1,2,3;
 4//1;
 5/5=2,8=3,13=1,38=5,53=1/2,8;
 8/6=4,10=90,11=11/1;
 11/6=1,8=1,9=11,15=111,16=1/1,2,10;
 10/6=1,13=1/2;
 6/7=2,8=2,9=2,10=2,28=1/1;
 7/10=1,18=20,25=1/1,2,3,16;
 1/10=4,18=20,19=15,26=3/3(2);
 2/9=110/2;
 99//99;
 2/9=110/2;
 3/5=1,6=6,7=101,11=2,25=1,30=1,70=2205,71=1,72=1,74=-5/1,2,3;
 4/5=5,16=3,69=1/1;
 5/5=2,8=3,13=1,38=5,53=1/2,8;
 7//1,2,3,16;
 1/18=20,19=15,26=3/3(-5);
 2/9=110/2;
 6/7=2,8=2,9=2,10=2,19=2,28=1/1;
 99/9=1/99;
 ----------------------------------
 KVKFRMCSXWQSNT-UHFFFAOYSA-N_conf_1
 ----------------------------------
 Symbolic Z-matrix:
 Charge =  0 Multiplicity = 1
 C                    -2.68863   0.81615   0.06829 
 N                    -1.23541   0.75103  -0.00352 
 C                    -0.79435  -0.57732  -0.46565 
 C                     0.74631  -0.65696  -0.5293 
 N                     1.33081  -0.36645   0.78451 
 C                     2.75203  -0.08241   0.68874 
 H                    -2.99202   1.80868   0.41542 
 H                    -3.14724   0.64723  -0.91142 
 H                    -3.08306   0.08386   0.78011 
 H                    -0.89644   1.45963  -0.65331 
 H                    -1.1648   -1.35128   0.21788 
 H                    -1.19941  -0.78451  -1.46328 
 H                     1.04574  -1.65907  -0.85566 
 H                     1.10053   0.06302  -1.27807 
 H                     0.82776   0.43721   1.17239 
 H                     2.94547   0.80402   0.07592 
 H                     3.29758  -0.93349   0.26855 
 H                     3.15515   0.10671   1.68839 
 

 GradGradGradGradGradGradGradGradGradGradGradGradGradGradGradGradGradGrad
 Berny optimization.
 Initialization pass.
                           ----------------------------
                           !    Initial Parameters    !
                           ! (Angstroms and Degrees)  !
 --------------------------                            --------------------------
 ! Name  Definition              Value          Derivative Info.                !
 --------------------------------------------------------------------------------
 ! R1    R(1,2)                  1.4565         calculate D2E/DX2 analytically  !
 ! R2    R(1,7)                  1.0944         calculate D2E/DX2 analytically  !
 ! R3    R(1,8)                  1.0948         calculate D2E/DX2 analytically  !
 ! R4    R(1,9)                  1.0948         calculate D2E/DX2 analytically  !
 ! R5    R(2,3)                  1.474          calculate D2E/DX2 analytically  !
 ! R6    R(2,10)                 1.0194         calculate D2E/DX2 analytically  !
 ! R7    R(3,4)                  1.544          calculate D2E/DX2 analytically  !
 ! R8    R(3,11)                 1.097          calculate D2E/DX2 analytically  !
 ! R9    R(3,12)                 1.0965         calculate D2E/DX2 analytically  !
 ! R10   R(4,5)                  1.467          calculate D2E/DX2 analytically  !
 ! R11   R(4,13)                 1.0956         calculate D2E/DX2 analytically  !
 ! R12   R(4,14)                 1.0975         calculate D2E/DX2 analytically  !
 ! R13   R(5,6)                  1.4525         calculate D2E/DX2 analytically  !
 ! R14   R(5,15)                 1.0244         calculate D2E/DX2 analytically  !
 ! R15   R(6,16)                 1.0949         calculate D2E/DX2 analytically  !
 ! R16   R(6,17)                 1.0948         calculate D2E/DX2 analytically  !
 ! R17   R(6,18)                 1.0943         calculate D2E/DX2 analytically  !
 ! A1    A(2,1,7)              109.4385         calculate D2E/DX2 analytically  !
 ! A2    A(2,1,8)              111.5269         calculate D2E/DX2 analytically  !
 ! A3    A(2,1,9)              111.2008         calculate D2E/DX2 analytically  !
 ! A4    A(7,1,8)              107.917          calculate D2E/DX2 analytically  !
 ! A5    A(7,1,9)              107.4893         calculate D2E/DX2 analytically  !
 ! A6    A(8,1,9)              109.13           calculate D2E/DX2 analytically  !
 ! A7    A(1,2,3)              110.7516         calculate D2E/DX2 analytically  !
 ! A8    A(1,2,10)             109.3975         calculate D2E/DX2 analytically  !
 ! A9    A(3,2,10)             109.0914         calculate D2E/DX2 analytically  !
 ! A10   A(2,3,4)              110.9763         calculate D2E/DX2 analytically  !
 ! A11   A(2,3,11)             109.8408         calculate D2E/DX2 analytically  !
 ! A12   A(2,3,12)             110.1827         calculate D2E/DX2 analytically  !
 ! A13   A(4,3,11)             109.041          calculate D2E/DX2 analytically  !
 ! A14   A(4,3,12)             108.7452         calculate D2E/DX2 analytically  !
 ! A15   A(11,3,12)            107.9896         calculate D2E/DX2 analytically  !
 ! A16   A(3,4,5)              110.5135         calculate D2E/DX2 analytically  !
 ! A17   A(3,4,13)             109.3993         calculate D2E/DX2 analytically  !
 ! A18   A(3,4,14)             108.4417         calculate D2E/DX2 analytically  !
 ! A19   A(5,4,13)             109.8163         calculate D2E/DX2 analytically  !
 ! A20   A(5,4,14)             110.6399         calculate D2E/DX2 analytically  !
 ! A21   A(13,4,14)            107.9748         calculate D2E/DX2 analytically  !
 ! A22   A(4,5,6)              111.6867         calculate D2E/DX2 analytically  !
 ! A23   A(4,5,15)             107.3854         calculate D2E/DX2 analytically  !
 ! A24   A(6,5,15)             110.613          calculate D2E/DX2 analytically  !
 ! A25   A(5,6,16)             111.599          calculate D2E/DX2 analytically  !
 ! A26   A(5,6,17)             111.1544         calculate D2E/DX2 analytically  !
 ! A27   A(5,6,18)             109.5125         calculate D2E/DX2 analytically  !
 ! A28   A(16,6,17)            109.0583         calculate D2E/DX2 analytically  !
 ! A29   A(16,6,18)            107.836          calculate D2E/DX2 analytically  !
 ! A30   A(17,6,18)            107.5404         calculate D2E/DX2 analytically  !
 ! D1    D(7,1,2,3)            179.8565         calculate D2E/DX2 analytically  !
 ! D2    D(7,1,2,10)           -59.8633         calculate D2E/DX2 analytically  !
 ! D3    D(8,1,2,3)            -60.8091         calculate D2E/DX2 analytically  !
 ! D4    D(8,1,2,10)            59.4711         calculate D2E/DX2 analytically  !
 ! D5    D(9,1,2,3)             61.2547         calculate D2E/DX2 analytically  !
 ! D6    D(9,1,2,10)          -178.4651         calculate D2E/DX2 analytically  !
 ! D7    D(1,2,3,4)           -179.3959         calculate D2E/DX2 analytically  !
 ! D8    D(1,2,3,11)           -58.7463         calculate D2E/DX2 analytically  !
 ! D9    D(1,2,3,12)            60.0991         calculate D2E/DX2 analytically  !
 ! D10   D(10,2,3,4)            60.1416         calculate D2E/DX2 analytically  !
 ! D11   D(10,2,3,11)         -179.2088         calculate D2E/DX2 analytically  !
 ! D12   D(10,2,3,12)          -60.3634         calculate D2E/DX2 analytically  !
 ! D13   D(2,3,4,5)             57.8415         calculate D2E/DX2 analytically  !
 ! D14   D(2,3,4,13)           178.8723         calculate D2E/DX2 analytically  !
 ! D15   D(2,3,4,14)           -63.5913         calculate D2E/DX2 analytically  !
 ! D16   D(11,3,4,5)           -63.28           calculate D2E/DX2 analytically  !
 ! D17   D(11,3,4,13)           57.7507         calculate D2E/DX2 analytically  !
 ! D18   D(11,3,4,14)          175.2871         calculate D2E/DX2 analytically  !
 ! D19   D(12,3,4,5)           179.1944         calculate D2E/DX2 analytically  !
 ! D20   D(12,3,4,13)          -59.7748         calculate D2E/DX2 analytically  !
 ! D21   D(12,3,4,14)           57.7615         calculate D2E/DX2 analytically  !
 ! D22   D(3,4,5,6)           -164.7063         calculate D2E/DX2 analytically  !
 ! D23   D(3,4,5,15)           -43.272          calculate D2E/DX2 analytically  !
 ! D24   D(13,4,5,6)            74.5111         calculate D2E/DX2 analytically  !
 ! D25   D(13,4,5,15)         -164.0546         calculate D2E/DX2 analytically  !
 ! D26   D(14,4,5,6)           -44.5834         calculate D2E/DX2 analytically  !
 ! D27   D(14,4,5,15)           76.8508         calculate D2E/DX2 analytically  !
 ! D28   D(4,5,6,16)            61.9275         calculate D2E/DX2 analytically  !
 ! D29   D(4,5,6,17)           -60.0621         calculate D2E/DX2 analytically  !
 ! D30   D(4,5,6,18)          -178.7455         calculate D2E/DX2 analytically  !
 ! D31   D(15,5,6,16)          -57.6192         calculate D2E/DX2 analytically  !
 ! D32   D(15,5,6,17)         -179.6088         calculate D2E/DX2 analytically  !
 ! D33   D(15,5,6,18)           61.7078         calculate D2E/DX2 analytically  !
 --------------------------------------------------------------------------------
 Trust Radius=3.00D-01 FncErr=1.00D-07 GrdErr=1.00D-06 EigMax=2.50D+02 EigMin=1.00D-04
 Number of steps in this run=     90 maximum allowed number of steps=    108.
 GradGradGradGradGradGradGradGradGradGradGradGradGradGradGradGradGradGrad

                          Input orientation:                          
 ---------------------------------------------------------------------
 Center     Atomic      Atomic             Coordinates (Angstroms)
 Number     Number       Type             X           Y           Z
 ---------------------------------------------------------------------
      1          6           0       -2.688633    0.816147    0.068289
      2          7           0       -1.235411    0.751028   -0.003519
      3          6           0       -0.794355   -0.577320   -0.465654
      4          6           0        0.746311   -0.656957   -0.529303
      5          7           0        1.330812   -0.366447    0.784509
      6          6           0        2.752025   -0.082406    0.688744
      7          1           0       -2.992018    1.808680    0.415422
      8          1           0       -3.147244    0.647233   -0.911418
      9          1           0       -3.083063    0.083857    0.780114
     10          1           0       -0.896440    1.459628   -0.653308
     11          1           0       -1.164803   -1.351281    0.217876
     12          1           0       -1.199413   -0.784511   -1.463277
     13          1           0        1.045738   -1.659074   -0.855663
     14          1           0        1.100534    0.063022   -1.278066
     15          1           0        0.827756    0.437211    1.172388
     16          1           0        2.945466    0.804022    0.075922
     17          1           0        3.297585   -0.933489    0.268553
     18          1           0        3.155152    0.106712    1.688392
 ---------------------------------------------------------------------
                    Distance matrix (angstroms):
                    1          2          3          4          5
     1  C    0.000000
     2  N    1.456451   0.000000
     3  C    2.411459   1.473977   0.000000
     4  C    3.784969   2.487186   1.544035   0.000000
     5  N    4.250581   2.907790   2.474613   1.467017   0.000000
     6  C    5.549155   4.132008   3.762231   2.415912   1.452479
     7  H    1.094380   2.092799   3.361401   4.576787   4.853273
     8  H    1.094844   2.119000   2.689670   4.123918   4.894559
     9  H    1.094769   2.114950   2.688359   4.114302   4.436788
    10  H    2.036350   1.019432   2.048119   2.682153   3.219087
    11  H    2.653710   2.115113   1.097024   2.166269   2.742091
    12  H    2.669377   2.118979   1.096473   2.162041   3.410185
    13  H    4.574487   3.426132   2.169848   1.095630   2.107680
    14  H    4.091168   2.748539   2.158856   1.097493   2.119360
    15  H    3.705079   2.395390   2.518669   2.024744   1.024394
    16  H    5.634116   4.181967   4.023390   2.708697   2.116412
    17  H    6.239882   4.843519   4.172516   2.687386   2.110910
    18  H    6.105559   4.749184   4.550430   3.362123   2.090239
                    6          7          8          9         10
     6  C    0.000000
     7  H    6.053506   0.000000
     8  H    6.155832   1.770187   0.000000
     9  H    5.838171   1.765306   1.784038   0.000000
    10  H    4.182137   2.378122   2.406808   2.954448   0.000000
    11  H    4.144068   3.655557   3.033058   2.460783   2.955028
    12  H    4.553900   3.669821   2.479614   3.055323   2.404995
    13  H    2.789712   5.472152   4.785735   4.770804   3.679580
    14  H    2.572336   4.760694   4.303412   4.662513   2.515698
    15  H    2.051030   4.128510   4.492992   3.946294   2.711338
    16  H    1.094863   6.031443   6.174183   6.112093   3.965077
    17  H    1.094778   6.862956   6.739943   6.481462   4.915962
    18  H    1.094337   6.504217   6.838959   6.304031   4.871277
                   11         12         13         14         15
    11  H    0.000000
    12  H    1.774459   0.000000
    13  H    2.476633   2.484906   0.000000
    14  H    3.061021   2.458124   1.773991   0.000000
    15  H    2.842549   3.542421   2.924879   2.493822   0.000000
    16  H    4.643252   4.698148   3.247100   2.405439   2.412775
    17  H    4.482190   4.821247   2.619380   2.865676   2.965770
    18  H    4.790633   5.448810   3.746978   3.608772   2.406712
                   16         17         18
    16  H    0.000000
    17  H    1.783267   0.000000
    18  H    1.769257   1.765856   0.000000
 Stoichiometry    C4H12N2
 Framework group  C1[X(C4H12N2)]
 Deg. of freedom    48
 Full point group                 C1      NOp   1
 Largest Abelian subgroup         C1      NOp   1
 Largest concise Abelian subgroup C1      NOp   1
                         Standard orientation:                         
 ---------------------------------------------------------------------
 Center     Atomic      Atomic             Coordinates (Angstroms)
 Number     Number       Type             X           Y           Z
 ---------------------------------------------------------------------
      1          6           0       -2.782281   -0.451936   -0.086268
      2          7           0       -1.364951   -0.438035    0.248743
      3          6           0       -0.745485    0.837230   -0.154455
      4          6           0        0.760760    0.851675    0.184752
      5          7           0        1.446584   -0.265980   -0.472995
      6          6           0        2.763760   -0.496079    0.094277
      7          1           0       -3.219432   -1.407494    0.219467
      8          1           0       -3.324843    0.347031    0.429446
      9          1           0       -2.934996   -0.350598   -1.165585
     10          1           0       -1.253637   -0.559416    1.254784
     11          1           0       -0.870695    0.987103   -1.233956
     12          1           0       -1.231045    1.673666    0.362128
     13          1           0        1.198582    1.800931   -0.143319
     14          1           0        0.871836    0.786210    1.274645
     15          1           0        0.856048   -1.095599   -0.361721
     16          1           0        2.704714   -0.766855    1.153484
     17          1           0        3.400389    0.387989   -0.013740
     18          1           0        3.251114   -1.320200   -0.435707
 ---------------------------------------------------------------------
 Rotational constants (GHZ):           9.5023595           1.5159142           1.4018292
 Standard basis: 6-31G(d,p) (6D, 7F)
 There are   150 symmetry adapted cartesian basis functions of A   symmetry.
 There are   150 symmetry adapted basis functions of A   symmetry.
   150 basis functions,   252 primitive gaussians,   150 cartesian basis functions
    25 alpha electrons       25 beta electrons
       nuclear repulsion energy       255.1680798428 Hartrees.
 NAtoms=   18 NActive=   18 NUniq=   18 SFac= 1.00D+00 NAtFMM=   60 NAOKFM=F Big=F
 Integral buffers will be    131072 words long.
 Raffenetti 2 integral format.
 Two-electron integral symmetry is turned on.
 Force inversion solution in PCM.
 ------------------------------------------------------------------------------
 Polarizable Continuum Model (PCM)
 =================================
 Model                : PCM.
 Atomic radii         : UFF (Universal Force Field).
 Polarization charges : Total charges.
 Charge compensation  : None.
 Solution method      : Matrix inversion.
 Cavity type          : Scaled VdW (van der Waals Surface) (Alpha=1.100).
 Cavity algorithm     : GePol (No added spheres)
                        Default sphere list used, NSphG=   18.
                        Lebedev-Laikov grids with approx.  5.0 points / Ang**2.
                        Smoothing algorithm: York/Karplus (Gamma=1.0000).
                        Polarization charges: spherical gaussians, with
                                              point-specific exponents (IZeta= 3).
                        Self-potential: point-specific (ISelfS= 7).
                        Self-field    : sphere-specific E.n sum rule (ISelfD= 2).
 1st derivatives      : Analytical E(r).r(x)/FMM algorithm (CHGder, D1EAlg=3).
                        Cavity 1st derivative terms included.
 2nd derivatives      : Analytical E(r).r(xy)/FMM algorithm (CHGder, D2EAlg=3).
                        Cavity 2nd derivative terms included.
 Solvent              : Water, Eps=  78.355300 Eps(inf)=   1.777849
 ------------------------------------------------------------------------------
 Spheres list:
 ISph  on   Nord     Re0    Alpha      Xe            Ye            Ze
    1   C      1    1.9255  1.100     -2.782281     -0.451936     -0.086268
    2   N      2    1.8300  1.100     -1.364951     -0.438035      0.248743
    3   C      3    1.9255  1.100     -0.745485      0.837230     -0.154455
    4   C      4    1.9255  1.100      0.760760      0.851675      0.184752
    5   N      5    1.8300  1.100      1.446584     -0.265980     -0.472995
    6   C      6    1.9255  1.100      2.763760     -0.496079      0.094277
    7   H      7    1.4430  1.100     -3.219432     -1.407494      0.219467
    8   H      8    1.4430  1.100     -3.324843      0.347031      0.429446
    9   H      9    1.4430  1.100     -2.934996     -0.350598     -1.165585
   10   H     10    1.4430  1.100     -1.253637     -0.559416      1.254784
   11   H     11    1.4430  1.100     -0.870695      0.987103     -1.233956
   12   H     12    1.4430  1.100     -1.231045      1.673666      0.362128
   13   H     13    1.4430  1.100      1.198582      1.800931     -0.143319
   14   H     14    1.4430  1.100      0.871836      0.786210      1.274645
   15   H     15    1.4430  1.100      0.856048     -1.095599     -0.361721
   16   H     16    1.4430  1.100      2.704714     -0.766855      1.153484
   17   H     17    1.4430  1.100      3.400389      0.387989     -0.013740
   18   H     18    1.4430  1.100      3.251114     -1.320200     -0.435707
 ------------------------------------------------------------------------------
 One-electron integrals computed using PRISM.
 NBasis=   150 RedAO= T EigKep=  3.76D-03  NBF=   150
 NBsUse=   150 1.00D-06 EigRej= -1.00D+00 NBFU=   150
 ExpMin= 1.61D-01 ExpMax= 4.17D+03 ExpMxC= 6.27D+02 IAcc=3 IRadAn=         5 AccDes= 0.00D+00
 Harris functional with IExCor=  402 and IRadAn=       5 diagonalized for initial guess.
 HarFok:  IExCor=  402 AccDes= 0.00D+00 IRadAn=         5 IDoV= 1 UseB2=F ITyADJ=14
 ICtDFT=  3500011 ScaDFX=  1.000000  1.000000  1.000000  1.000000
 FoFCou: FMM=F IPFlag=           0 FMFlag=      100000 FMFlg1=           0
         NFxFlg=           0 DoJE=T BraDBF=F KetDBF=T FulRan=T
         wScrn=  0.000000 ICntrl=       500 IOpCl=  0 I1Cent=   200000004 NGrid=           0
         NMat0=    1 NMatS0=      1 NMatT0=    0 NMatD0=    1 NMtDS0=    0 NMtDT0=    0
 Petite list used in FoFCou.
 Keep R1 ints in memory in canonical form, NReq=67061194.
 Requested convergence on RMS density matrix=1.00D-08 within  32 cycles.
 Requested convergence on MAX density matrix=1.00D-06.
 Requested convergence on             energy=1.00D-06.
 No special actions if energy rises.
 Inv3:  Mode=1 IEnd=     5467500.
 Iteration    1 A*A^-1 deviation from unit magnitude is 5.55D-15 for    212.
 Iteration    1 A*A^-1 deviation from orthogonality  is 3.74D-15 for   1144    785.
 Iteration    1 A^-1*A deviation from unit magnitude is 5.88D-15 for    945.
 Iteration    1 A^-1*A deviation from orthogonality  is 1.91D-15 for   1349    508.
 Error on total polarization charges =  0.00897
 SCF Done:  E(RB3LYP) =  -269.152342403     A.U. after   11 cycles
            NFock= 11  Conv=0.12D-08     -V/T= 2.0098
 QCSCF skips out because SCF is already converged.
 DoSCS=F DFT=T ScalE2(SS,OS)=  1.000000  1.000000
 Range of M.O.s used for correlation:     1   150
 NBasis=   150 NAE=    25 NBE=    25 NFC=     0 NFV=     0
 NROrb=    150 NOA=    25 NOB=    25 NVA=   125 NVB=   125
 Symmetrizing basis deriv contribution to polar:
 IMax=3 JMax=2 DiffMx= 0.00D+00
 G2DrvN: will do    19 centers at a time, making    1 passes.
 Calling FoFCou, ICntrl=  3107 FMM=F I1Cent=   0 AccDes= 0.00D+00.
 NEqPCM:  Using equilibrium solvation (IEInf=0, Eps=  78.3553, EpsInf=   1.7778)
 G2PCM: DoFxE=T DoFxN=T DoGrad=T DoDP/DQ/DG/TGxP=FFFF NFrqRd=   0 IEInf=0 SqF1=F DoCFld=F IF1Alg=4.
 End of G2Drv F.D. properties file   721 does not exist.
 End of G2Drv F.D. properties file   722 does not exist.
 End of G2Drv F.D. properties file   788 does not exist.
          IDoAtm=111111111111111111
 NEqPCM:  Using equilibrium solvation (IEInf=0, Eps=  78.3553, EpsInf=   1.7778)
          Differentiating once with respect to nuclear coordinates.
 Keep R1 ints in memory in canonical form, NReq=69673891.
          There are    57 degrees of freedom in the 1st order CPHF.  IDoFFX=6 NUNeed=     0.
     51 vectors produced by pass  0 Test12= 5.48D-15 1.75D-09 XBig12= 8.25D-02 6.74D-02.
 AX will form    51 AO Fock derivatives at one time.
     51 vectors produced by pass  1 Test12= 5.48D-15 1.75D-09 XBig12= 6.14D-03 1.12D-02.
     51 vectors produced by pass  2 Test12= 5.48D-15 1.75D-09 XBig12= 6.61D-05 1.09D-03.
     51 vectors produced by pass  3 Test12= 5.48D-15 1.75D-09 XBig12= 1.52D-07 5.74D-05.
     51 vectors produced by pass  4 Test12= 5.48D-15 1.75D-09 XBig12= 1.50D-10 1.24D-06.
     18 vectors produced by pass  5 Test12= 5.48D-15 1.75D-09 XBig12= 1.15D-13 4.92D-08.
      1 vectors produced by pass  6 Test12= 5.48D-15 1.75D-09 XBig12= 9.44D-17 2.08D-09.
 InvSVY:  IOpt=1 It=  1 EMax= 3.89D-16
 Solved reduced A of dimension   274 with    57 vectors.
 End of Minotr F.D. properties file   721 does not exist.
 End of Minotr F.D. properties file   722 does not exist.
 End of Minotr F.D. properties file   788 does not exist.

 **********************************************************************

            Population analysis using the SCF density.

 **********************************************************************

 Orbital symmetries:
       Occupied  (A) (A) (A) (A) (A) (A) (A) (A) (A) (A) (A) (A)
                 (A) (A) (A) (A) (A) (A) (A) (A) (A) (A) (A) (A)
                 (A)
       Virtual   (A) (A) (A) (A) (A) (A) (A) (A) (A) (A) (A) (A)
                 (A) (A) (A) (A) (A) (A) (A) (A) (A) (A) (A) (A)
                 (A) (A) (A) (A) (A) (A) (A) (A) (A) (A) (A) (A)
                 (A) (A) (A) (A) (A) (A) (A) (A) (A) (A) (A) (A)
                 (A) (A) (A) (A) (A) (A) (A) (A) (A) (A) (A) (A)
                 (A) (A) (A) (A) (A) (A) (A) (A) (A) (A) (A) (A)
                 (A) (A) (A) (A) (A) (A) (A) (A) (A) (A) (A) (A)
                 (A) (A) (A) (A) (A) (A) (A) (A) (A) (A) (A) (A)
                 (A) (A) (A) (A) (A) (A) (A) (A) (A) (A) (A) (A)
                 (A) (A) (A) (A) (A) (A) (A) (A) (A) (A) (A) (A)
                 (A) (A) (A) (A) (A)
 The electronic state is 1-A.
 Alpha  occ. eigenvalues --  -14.31833 -14.30702 -10.20334 -10.20035 -10.19752
 Alpha  occ. eigenvalues --  -10.19377  -0.90670  -0.87981  -0.73203  -0.66091
 Alpha  occ. eigenvalues --   -0.63558  -0.59199  -0.48795  -0.46762  -0.45508
 Alpha  occ. eigenvalues --   -0.43799  -0.41833  -0.41003  -0.38438  -0.37356
 Alpha  occ. eigenvalues --   -0.35434  -0.34817  -0.33046  -0.22635  -0.21226
 Alpha virt. eigenvalues --    0.08574   0.10752   0.12947   0.13392   0.14954
 Alpha virt. eigenvalues --    0.16004   0.16806   0.17355   0.17971   0.19051
 Alpha virt. eigenvalues --    0.19429   0.19963   0.22428   0.24164   0.25950
 Alpha virt. eigenvalues --    0.26570   0.27177   0.50684   0.51849   0.52949
 Alpha virt. eigenvalues --    0.54835   0.57591   0.58676   0.60127   0.61451
 Alpha virt. eigenvalues --    0.62706   0.67123   0.72178   0.73691   0.75150
 Alpha virt. eigenvalues --    0.78251   0.80985   0.81204   0.82561   0.87212
 Alpha virt. eigenvalues --    0.88245   0.89138   0.89197   0.90543   0.91400
 Alpha virt. eigenvalues --    0.92088   0.94208   0.95238   0.96574   0.98536
 Alpha virt. eigenvalues --    1.00214   1.05566   1.07400   1.20487   1.29385
 Alpha virt. eigenvalues --    1.31814   1.35745   1.38876   1.42443   1.45399
 Alpha virt. eigenvalues --    1.50679   1.60695   1.66016   1.71666   1.76921
 Alpha virt. eigenvalues --    1.79127   1.81129   1.81686   1.83574   1.93131
 Alpha virt. eigenvalues --    1.93649   1.96019   1.98621   2.02576   2.03623
 Alpha virt. eigenvalues --    2.04165   2.05633   2.06671   2.07644   2.09625
 Alpha virt. eigenvalues --    2.10778   2.12044   2.13022   2.16697   2.19153
 Alpha virt. eigenvalues --    2.29153   2.30668   2.33477   2.36643   2.40480
 Alpha virt. eigenvalues --    2.43043   2.46801   2.50238   2.51312   2.56211
 Alpha virt. eigenvalues --    2.59447   2.63241   2.65289   2.69188   2.70187
 Alpha virt. eigenvalues --    2.71558   2.72980   2.76190   2.80019   2.82516
 Alpha virt. eigenvalues --    2.85563   2.90187   2.91950   2.94942   2.95436
 Alpha virt. eigenvalues --    2.97613   3.00804   3.19018   3.20201   3.25287
 Alpha virt. eigenvalues --    3.30805   3.33768   3.35933   3.44057   3.45300
 Alpha virt. eigenvalues --    3.47974   3.51015   3.54199   3.55438   4.02163
 Alpha virt. eigenvalues --    4.04414   4.41602   4.47957   4.48955   4.64347
          Condensed to atoms (all electrons):
               1          2          3          4          5          6
     1  C    4.799016   0.313145  -0.051877   0.005237   0.000269   0.000001
     2  N    0.313145   6.817744   0.307591  -0.045039  -0.012972   0.000228
     3  C   -0.051877   0.307591   4.833341   0.367241  -0.040872   0.004790
     4  C    0.005237  -0.045039   0.367241   4.835801   0.317682  -0.052029
     5  N    0.000269  -0.012972  -0.040872   0.317682   6.842481   0.315010
     6  C    0.000001   0.000228   0.004790  -0.052029   0.315010   4.797056
     7  H    0.387393  -0.034969   0.005483  -0.000253   0.000007  -0.000000
     8  H    0.373193  -0.050191  -0.007452  -0.000152  -0.000016   0.000000
     9  H    0.393144  -0.038888  -0.004741   0.000253   0.000008  -0.000000
    10  H   -0.037480   0.340425  -0.039699  -0.001801  -0.000179  -0.000063
    11  H   -0.004531  -0.044506   0.378487  -0.029953   0.001527  -0.000013
    12  H   -0.005263  -0.053503   0.369186  -0.040148   0.003687  -0.000191
    13  H   -0.000148   0.003846  -0.025030   0.381302  -0.045676  -0.002317
    14  H   -0.000122  -0.008579  -0.034386   0.361682  -0.060260  -0.006218
    15  H   -0.000509   0.033077  -0.013026  -0.049583   0.338668  -0.037605
    16  H   -0.000003  -0.000075   0.000407  -0.009222  -0.053174   0.374163
    17  H    0.000000  -0.000007   0.000033  -0.003507  -0.039714   0.390688
    18  H   -0.000000   0.000014  -0.000280   0.005585  -0.035827   0.387070
               7          8          9         10         11         12
     1  C    0.387393   0.373193   0.393144  -0.037480  -0.004531  -0.005263
     2  N   -0.034969  -0.050191  -0.038888   0.340425  -0.044506  -0.053503
     3  C    0.005483  -0.007452  -0.004741  -0.039699   0.378487   0.369186
     4  C   -0.000253  -0.000152   0.000253  -0.001801  -0.029953  -0.040148
     5  N    0.000007  -0.000016   0.000008  -0.000179   0.001527   0.003687
     6  C   -0.000000   0.000000  -0.000000  -0.000063  -0.000013  -0.000191
     7  H    0.605225  -0.039344  -0.028611  -0.003071   0.000119  -0.000228
     8  H   -0.039344   0.670833  -0.043445  -0.005661  -0.001943   0.013292
     9  H   -0.028611  -0.043445   0.594766   0.005782   0.006564  -0.001751
    10  H   -0.003071  -0.005661   0.005782   0.481813   0.006436  -0.005856
    11  H    0.000119  -0.001943   0.006564   0.006436   0.626768  -0.046150
    12  H   -0.000228   0.013292  -0.001751  -0.005856  -0.046150   0.684672
    13  H    0.000003   0.000008  -0.000000  -0.000154  -0.006126  -0.000445
    14  H    0.000006  -0.000023   0.000008   0.005469   0.006833  -0.003035
    15  H   -0.000025   0.000109  -0.000130  -0.001427  -0.001681   0.001064
    16  H    0.000000   0.000000  -0.000000   0.000032   0.000038   0.000027
    17  H    0.000000  -0.000000   0.000000   0.000001  -0.000015  -0.000012
    18  H    0.000000   0.000000  -0.000000   0.000001  -0.000000   0.000004
              13         14         15         16         17         18
     1  C   -0.000148  -0.000122  -0.000509  -0.000003   0.000000  -0.000000
     2  N    0.003846  -0.008579   0.033077  -0.000075  -0.000007   0.000014
     3  C   -0.025030  -0.034386  -0.013026   0.000407   0.000033  -0.000280
     4  C    0.381302   0.361682  -0.049583  -0.009222  -0.003507   0.005585
     5  N   -0.045676  -0.060260   0.338668  -0.053174  -0.039714  -0.035827
     6  C   -0.002317  -0.006218  -0.037605   0.374163   0.390688   0.387070
     7  H    0.000003   0.000006  -0.000025   0.000000   0.000000   0.000000
     8  H    0.000008  -0.000023   0.000109   0.000000  -0.000000   0.000000
     9  H   -0.000000   0.000008  -0.000130  -0.000000   0.000000  -0.000000
    10  H   -0.000154   0.005469  -0.001427   0.000032   0.000001   0.000001
    11  H   -0.006126   0.006833  -0.001681   0.000038  -0.000015  -0.000000
    12  H   -0.000445  -0.003035   0.001064   0.000027  -0.000012   0.000004
    13  H    0.634937  -0.052625   0.006495  -0.001676   0.005380  -0.000017
    14  H   -0.052625   0.704486  -0.002528   0.016107  -0.002412  -0.000173
    15  H    0.006495  -0.002528   0.479644  -0.004329   0.005239  -0.002615
    16  H   -0.001676   0.016107  -0.004329   0.675727  -0.044799  -0.039819
    17  H    0.005380  -0.002412   0.005239  -0.044799   0.608415  -0.029585
    18  H   -0.000017  -0.000173  -0.002615  -0.039819  -0.029585   0.611701
 Mulliken charges:
               1
     1  C   -0.171466
     2  N   -0.527342
     3  C   -0.049199
     4  C   -0.043096
     5  N   -0.530649
     6  C   -0.170572
     7  H    0.108264
     8  H    0.090790
     9  H    0.117041
    10  H    0.255430
    11  H    0.108147
    12  H    0.084652
    13  H    0.102244
    14  H    0.075767
    15  H    0.249161
    16  H    0.086594
    17  H    0.110293
    18  H    0.103940
 Sum of Mulliken charges =  -0.00000
 Mulliken charges with hydrogens summed into heavy atoms:
               1
     1  C    0.144630
     2  N   -0.271912
     3  C    0.143600
     4  C    0.134915
     5  N   -0.281488
     6  C    0.130255
 APT charges:
               1
     1  C   -1.168301
     2  N   -0.639853
     3  C   -0.606692
     4  C   -0.576483
     5  N   -0.488597
     6  C   -1.154985
     7  H    0.505468
     8  H    0.368950
     9  H    0.385399
    10  H    0.451696
    11  H    0.344929
    12  H    0.360030
    13  H    0.426206
    14  H    0.264505
    15  H    0.295102
    16  H    0.248033
    17  H    0.476016
    18  H    0.508578
 Sum of APT charges =  -0.00000
 APT charges with hydrogens summed into heavy atoms:
               1
     1  C    0.091516
     2  N   -0.188157
     3  C    0.098267
     4  C    0.114228
     5  N   -0.193495
     6  C    0.077641
 Electronic spatial extent (au):  <R**2>=            909.4850
 Charge=              0.0000 electrons
 Dipole moment (field-independent basis, Debye):
    X=             -1.0989    Y=              0.4427    Z=              1.9517  Tot=              2.2832
 Quadrupole moment (field-independent basis, Debye-Ang):
   XX=            -37.0424   YY=            -38.8675   ZZ=            -40.0221
   XY=             -0.2644   XZ=              0.8739   YZ=             -0.8849
 Traceless Quadrupole moment (field-independent basis, Debye-Ang):
   XX=              1.6016   YY=             -0.2235   ZZ=             -1.3781
   XY=             -0.2644   XZ=              0.8739   YZ=             -0.8849
 Octapole moment (field-independent basis, Debye-Ang**2):
  XXX=             -3.1970  YYY=             -1.8390  ZZZ=              4.2645  XYY=              2.2575
  XXY=             -3.1337  XXZ=              2.3705  XZZ=             -6.6539  YZZ=             -1.2559
  YYZ=             -0.1552  XYZ=              1.0532
 Hexadecapole moment (field-independent basis, Debye-Ang**3):
 XXXX=           -945.0171 YYYY=           -164.8143 ZZZZ=            -85.7372 XXXY=              8.2511
 XXXZ=             -2.3597 YYYX=              0.7462 YYYZ=             -0.5941 ZZZX=              0.9848
 ZZZY=             -3.1328 XXYY=           -183.0168 XXZZ=           -178.8592 YYZZ=            -42.0734
 XXYZ=             -0.2174 YYXZ=             -4.8670 ZZXY=              0.8885
 N-N= 2.551680798428D+02 E-N=-1.134546582063D+03  KE= 2.665348270617D+02
  Exact polarizability:   0.000   0.000   0.000   0.000   0.000   0.000
 Approx polarizability:  80.463   0.195  77.118   0.062  -0.200  74.190
 D2PCM: PCM CHGder 2nd derivatives, FixD1E=F FixD2E=F DoIter=F DoCFld=F I1PDM=0
 Calling FoFJK, ICntrl=    100147 FMM=F ISym2X=0 I1Cent= 0 IOpClX= 0 NMat=1 NMatS=1 NMatT=0.
 ***** Axes restored to original set *****
 -------------------------------------------------------------------
 Center     Atomic                   Forces (Hartrees/Bohr)
 Number     Number              X              Y              Z
 -------------------------------------------------------------------
      1        6           0.000695366    0.009581760   -0.000458979
      2        7           0.004736065   -0.010956785    0.009221101
      3        6           0.011937568    0.007153121   -0.003280080
      4        6          -0.011153044    0.005685850    0.010641574
      5        7          -0.006951439   -0.008229870   -0.000091248
      6        6          -0.001799349    0.003924801    0.007666377
      7        1          -0.000914068    0.000360084   -0.000009927
      8        1          -0.006947300   -0.002718329   -0.002628662
      9        1           0.001953251   -0.001213016   -0.000795436
     10        1          -0.001152597   -0.001911582   -0.000407855
     11        1          -0.001661034    0.003103230    0.001162849
     12        1          -0.001231204   -0.005703288   -0.003874219
     13        1           0.000936044   -0.000187912   -0.000964805
     14        1           0.001601940    0.001793402   -0.006963428
     15        1           0.003548419   -0.003456847   -0.003377435
     16        1           0.006426277    0.003038724   -0.005063971
     17        1          -0.001236511   -0.000430737   -0.001205058
     18        1           0.001211614    0.000167393    0.000429203
 -------------------------------------------------------------------
 Cartesian Forces:  Max     0.011937568 RMS     0.004903440
 FormGI is forming the generalized inverse of G from B-inverse, IUseBI=4.

 GradGradGradGradGradGradGradGradGradGradGradGradGradGradGradGradGradGrad
 Berny optimization.
 Internal  Forces:  Max     0.008904996 RMS     0.003114360
 Search for a local minimum.
 Step number   1 out of a maximum of   90
 All quantities printed in internal units (Hartrees-Bohrs-Radians)
 Mixed Optimization -- RFO/linear search
 Second derivative matrix not updated -- analytic derivatives used.
 ITU=  0
     Eigenvalues ---    0.00345   0.00357   0.00366   0.00420   0.00538
     Eigenvalues ---    0.02345   0.02376   0.04359   0.04497   0.04802
     Eigenvalues ---    0.05355   0.06256   0.06263   0.06418   0.06423
     Eigenvalues ---    0.07939   0.08302   0.09693   0.10194   0.12055
     Eigenvalues ---    0.12796   0.13226   0.13280   0.16350   0.16499
     Eigenvalues ---    0.17804   0.17935   0.20698   0.21348   0.23877
     Eigenvalues ---    0.25047   0.28443   0.31461   0.31732   0.32521
     Eigenvalues ---    0.32596   0.33031   0.33096   0.33672   0.33696
     Eigenvalues ---    0.33834   0.33935   0.34997   0.35713   0.38321
     Eigenvalues ---    0.38555   0.42187   0.43598
 RFO step:  Lambda=-4.45782374D-03 EMin= 3.44544524D-03
 Linear search not attempted -- first point.
 Iteration  1 RMS(Cart)=  0.06215706 RMS(Int)=  0.00210208
 Iteration  2 RMS(Cart)=  0.00241204 RMS(Int)=  0.00019753
 Iteration  3 RMS(Cart)=  0.00000402 RMS(Int)=  0.00019751
 Iteration  4 RMS(Cart)=  0.00000000 RMS(Int)=  0.00019751
 Variable       Old X    -DE/DX   Delta X   Delta X   Delta X     New X
                                 (Linear)    (Quad)   (Total)
    R1        2.75229   0.00528   0.00000   0.00909   0.00909   2.76138
    R2        2.06808   0.00058   0.00000  -0.00057  -0.00057   2.06751
    R3        2.06895   0.00568   0.00000   0.01660   0.01660   2.08556
    R4        2.06881  -0.00041   0.00000   0.00137   0.00137   2.07018
    R5        2.78541  -0.00416   0.00000  -0.01707  -0.01707   2.76835
    R6        1.92645  -0.00145   0.00000  -0.00098  -0.00098   1.92547
    R7        2.91780  -0.00756   0.00000  -0.03260  -0.03260   2.88520
    R8        2.07307  -0.00091   0.00000   0.00032   0.00032   2.07339
    R9        2.07203   0.00506   0.00000   0.01561   0.01561   2.08764
   R10        2.77226  -0.00197   0.00000  -0.01155  -0.01155   2.76071
   R11        2.07044   0.00071   0.00000   0.00442   0.00442   2.07486
   R12        2.07396   0.00645   0.00000   0.02092   0.02092   2.09488
   R13        2.74479   0.00569   0.00000   0.01064   0.01064   2.75543
   R14        1.93582  -0.00573   0.00000  -0.01155  -0.01155   1.92427
   R15        2.06899   0.00643   0.00000   0.01888   0.01888   2.08787
   R16        2.06883   0.00018   0.00000   0.00298   0.00298   2.07181
   R17        2.06800   0.00087   0.00000   0.00039   0.00039   2.06839
    A1        1.91006   0.00110   0.00000   0.00464   0.00431   1.91437
    A2        1.94651   0.00771   0.00000   0.04153   0.04140   1.98792
    A3        1.94082  -0.00523   0.00000  -0.02991  -0.02977   1.91106
    A4        1.88351  -0.00197   0.00000   0.00348   0.00294   1.88645
    A5        1.87604   0.00099   0.00000   0.00709   0.00705   1.88309
    A6        1.90468  -0.00276   0.00000  -0.02708  -0.02678   1.87790
    A7        1.93298   0.00890   0.00000   0.03665   0.03674   1.96972
    A8        1.90935  -0.00266   0.00000  -0.01445  -0.01430   1.89505
    A9        1.90400  -0.00368   0.00000  -0.01651  -0.01638   1.88762
   A10        1.93690  -0.00157   0.00000  -0.00452  -0.00488   1.93202
   A11        1.91708  -0.00311   0.00000  -0.03330  -0.03323   1.88385
   A12        1.92305   0.00415   0.00000   0.04322   0.04317   1.96623
   A13        1.90312   0.00227   0.00000   0.00317   0.00287   1.90600
   A14        1.89796  -0.00076   0.00000   0.00782   0.00743   1.90539
   A15        1.88477  -0.00096   0.00000  -0.01668  -0.01633   1.86845
   A16        1.92882  -0.00076   0.00000   0.00304   0.00281   1.93163
   A17        1.90938   0.00018   0.00000  -0.00478  -0.00479   1.90459
   A18        1.89267  -0.00006   0.00000   0.00865   0.00827   1.90094
   A19        1.91666  -0.00082   0.00000  -0.01110  -0.01102   1.90563
   A20        1.93103   0.00274   0.00000   0.03169   0.03150   1.96253
   A21        1.88452  -0.00130   0.00000  -0.02825  -0.02812   1.85640
   A22        1.94930   0.00601   0.00000   0.02199   0.02204   1.97134
   A23        1.87423  -0.00263   0.00000  -0.01352  -0.01343   1.86080
   A24        1.93056  -0.00192   0.00000  -0.01427  -0.01418   1.91638
   A25        1.94777   0.00797   0.00000   0.04256   0.04238   1.99015
   A26        1.94001  -0.00445   0.00000  -0.02494  -0.02480   1.91521
   A27        1.91135   0.00114   0.00000   0.00564   0.00528   1.91664
   A28        1.90343  -0.00330   0.00000  -0.03043  -0.03015   1.87328
   A29        1.88209  -0.00200   0.00000   0.00405   0.00345   1.88555
   A30        1.87693   0.00043   0.00000   0.00252   0.00249   1.87942
    D1        3.13909  -0.00070   0.00000   0.02890   0.02872  -3.11537
    D2       -1.04481  -0.00138   0.00000   0.02216   0.02195  -1.02286
    D3       -1.06132   0.00239   0.00000   0.06227   0.06261  -0.99871
    D4        1.03797   0.00171   0.00000   0.05553   0.05584   1.09381
    D5        1.06910   0.00058   0.00000   0.03555   0.03543   1.10453
    D6       -3.11480  -0.00010   0.00000   0.02881   0.02866  -3.08614
    D7       -3.13105   0.00038   0.00000   0.03455   0.03453  -3.09652
    D8       -1.02532   0.00016   0.00000   0.01364   0.01388  -1.01144
    D9        1.04893  -0.00040   0.00000  -0.00091  -0.00124   1.04769
   D10        1.04967   0.00048   0.00000   0.04017   0.04022   1.08989
   D11       -3.12778   0.00026   0.00000   0.01926   0.01957  -3.10822
   D12       -1.05354  -0.00029   0.00000   0.00471   0.00445  -1.04909
   D13        1.00953  -0.00065   0.00000   0.03271   0.03272   1.04224
   D14        3.12191  -0.00203   0.00000   0.01775   0.01774   3.13965
   D15       -1.10988  -0.00352   0.00000  -0.01385  -0.01388  -1.12376
   D16       -1.10444   0.00273   0.00000   0.07494   0.07498  -1.02947
   D17        1.00794   0.00135   0.00000   0.05999   0.06000   1.06794
   D18        3.05934  -0.00014   0.00000   0.02838   0.02838   3.08772
   D19        3.12753   0.00303   0.00000   0.08872   0.08874  -3.06692
   D20       -1.04327   0.00165   0.00000   0.07376   0.07376  -0.96951
   D21        1.00813   0.00016   0.00000   0.04215   0.04214   1.05027
   D22       -2.87467  -0.00081   0.00000  -0.05526  -0.05537  -2.93004
   D23       -0.75524  -0.00125   0.00000  -0.06838  -0.06852  -0.82376
   D24        1.30046  -0.00002   0.00000  -0.04404  -0.04409   1.25637
   D25       -2.86329  -0.00045   0.00000  -0.05717  -0.05725  -2.92054
   D26       -0.77813   0.00040   0.00000  -0.02181  -0.02160  -0.79973
   D27        1.34130  -0.00004   0.00000  -0.03493  -0.03476   1.30654
   D28        1.08084  -0.00249   0.00000  -0.07725  -0.07761   1.00323
   D29       -1.04828  -0.00071   0.00000  -0.05041  -0.05030  -1.09859
   D30       -3.11970   0.00077   0.00000  -0.04175  -0.04154   3.12194
   D31       -1.00564  -0.00184   0.00000  -0.06510  -0.06543  -1.07107
   D32       -3.13476  -0.00006   0.00000  -0.03826  -0.03812   3.11030
   D33        1.07700   0.00143   0.00000  -0.02960  -0.02936   1.04765
         Item               Value     Threshold  Converged?
 Maximum Force            0.008905     0.000450     NO 
 RMS     Force            0.003114     0.000300     NO 
 Maximum Displacement     0.185597     0.001800     NO 
 RMS     Displacement     0.062361     0.001200     NO 
 Predicted change in Energy=-2.429496D-03
 GradGradGradGradGradGradGradGradGradGradGradGradGradGradGradGradGradGrad

                          Input orientation:                          
 ---------------------------------------------------------------------
 Center     Atomic      Atomic             Coordinates (Angstroms)
 Number     Number       Type             X           Y           Z
 ---------------------------------------------------------------------
      1          6           0       -2.698812    0.816842    0.089278
      2          7           0       -1.244948    0.744116   -0.038269
      3          6           0       -0.779129   -0.565476   -0.500923
      4          6           0        0.746106   -0.607272   -0.555535
      5          7           0        1.316654   -0.353557    0.765201
      6          6           0        2.752513   -0.102892    0.725655
      7          1           0       -2.990788    1.820997    0.410890
      8          1           0       -3.241625    0.584336   -0.843080
      9          1           0       -3.034688    0.107631    0.853684
     10          1           0       -0.942813    1.445118   -0.713171
     11          1           0       -1.135688   -1.321407    0.209895
     12          1           0       -1.185176   -0.835758   -1.492137
     13          1           0        1.066605   -1.598384   -0.902695
     14          1           0        1.098531    0.118859   -1.315431
     15          1           0        0.834355    0.461631    1.139035
     16          1           0        3.043680    0.744045    0.078642
     17          1           0        3.273503   -0.992687    0.353066
     18          1           0        3.121720    0.099911    1.735895
 ---------------------------------------------------------------------
                    Distance matrix (angstroms):
                    1          2          3          4          5
     1  C    0.000000
     2  N    1.461260   0.000000
     3  C    2.438099   1.464946   0.000000
     4  C    3.783035   2.461323   1.526785   0.000000
     5  N    4.236823   2.900388   2.457699   1.460904   0.000000
     6  C    5.564875   4.157005   3.767091   2.433416   1.458112
     7  H    1.094080   2.099852   3.379067   4.560137   4.838210
     8  H    1.103629   2.158696   2.739165   4.171883   4.923831
     9  H    1.095495   2.098538   2.715802   4.097730   4.376608
    10  H    2.030318   1.018912   2.028381   2.662631   3.244381
    11  H    2.651418   2.083245   1.097192   2.153375   2.694268
    12  H    2.742819   2.147861   1.104732   2.158536   3.404004
    13  H    4.582106   3.402618   2.152917   1.097971   2.096186
    14  H    4.108553   2.741164   2.158088   1.108563   2.144710
    15  H    3.702896   2.406106   2.519472   2.005470   1.018280
    16  H    5.742963   4.290221   4.082230   2.739906   2.158405
    17  H    6.246001   4.856544   4.163607   2.713269   2.099429
    18  H    6.091299   4.757146   4.545625   3.375544   2.099081
                    6          7          8          9         10
     6  C    0.000000
     7  H    6.065141   0.000000
     8  H    6.234012   1.778958   0.000000
     9  H    5.792444   1.770203   1.774564   0.000000
    10  H    4.256993   2.366221   2.458121   2.935958   0.000000
    11  H    4.107176   3.654655   3.029122   2.462278   2.922827
    12  H    4.578328   3.733644   2.582039   3.132659   2.422380
    13  H    2.780343   5.466270   4.829975   4.776605   3.651929
    14  H    2.636448   4.753945   4.390528   4.667835   2.507741
    15  H    2.041788   4.124293   4.534033   3.895669   2.748862
    16  H    1.104855   6.138812   6.354536   6.160541   4.124390
    17  H    1.096352   6.867423   6.809159   6.422973   4.985687
    18  H    1.094544   6.486950   6.883163   6.219301   4.932335
                   11         12         13         14         15
    11  H    0.000000
    12  H    1.770654   0.000000
    13  H    2.482874   2.449399   0.000000
    14  H    3.064755   2.481499   1.766435   0.000000
    15  H    2.814888   3.561571   2.909684   2.492325   0.000000
    16  H    4.663736   4.779785   3.218512   2.473439   2.466841
    17  H    4.423745   4.827962   2.610402   2.958025   2.946562
    18  H    4.740711   5.463059   3.750981   3.661180   2.391468
                   16         17         18
    16  H    0.000000
    17  H    1.773236   0.000000
    18  H    1.779743   1.768905   0.000000
 Stoichiometry    C4H12N2
 Framework group  C1[X(C4H12N2)]
 Deg. of freedom    48
 Full point group                 C1      NOp   1
 Largest Abelian subgroup         C1      NOp   1
 Largest concise Abelian subgroup C1      NOp   1
                         Standard orientation:                         
 ---------------------------------------------------------------------
 Center     Atomic      Atomic             Coordinates (Angstroms)
 Number     Number       Type             X           Y           Z
 ---------------------------------------------------------------------
      1          6           0       -2.784604   -0.476480   -0.090646
      2          7           0       -1.373282   -0.397732    0.279825
      3          6           0       -0.734462    0.840537   -0.172576
      4          6           0        0.750169    0.843165    0.183701
      5          7           0        1.433163   -0.285588   -0.443737
      6          6           0        2.777644   -0.498431    0.078908
      7          1           0       -3.215403   -1.405579    0.294319
      8          1           0       -3.392934    0.364472    0.284497
      9          1           0       -2.875834   -0.490126   -1.182251
     10          1           0       -1.301421   -0.439341    1.295348
     11          1           0       -0.844131    0.898585   -1.262729
     12          1           0       -1.210426    1.743731    0.249480
     13          1           0        1.202859    1.779588   -0.168045
     14          1           0        0.854908    0.840871    1.287302
     15          1           0        0.859798   -1.108137   -0.266090
     16          1           0        2.815002   -0.663240    1.170763
     17          1           0        3.402901    0.374848   -0.141149
     18          1           0        3.233030   -1.365175   -0.410383
 ---------------------------------------------------------------------
 Rotational constants (GHZ):           9.5099166           1.5109866           1.3977974
 Standard basis: 6-31G(d,p) (6D, 7F)
 There are   150 symmetry adapted cartesian basis functions of A   symmetry.
 There are   150 symmetry adapted basis functions of A   symmetry.
   150 basis functions,   252 primitive gaussians,   150 cartesian basis functions
    25 alpha electrons       25 beta electrons
       nuclear repulsion energy       255.0794272670 Hartrees.
 NAtoms=   18 NActive=   18 NUniq=   18 SFac= 1.00D+00 NAtFMM=   60 NAOKFM=F Big=F
 Integral buffers will be    131072 words long.
 Raffenetti 2 integral format.
 Two-electron integral symmetry is turned on.
 ------------------------------------------------------------------------------
 Polarizable Continuum Model (PCM)
 =================================
 Model                : PCM.
 Atomic radii         : UFF (Universal Force Field).
 Polarization charges : Total charges.
 Charge compensation  : None.
 Solution method      : Matrix inversion.
 Cavity type          : Scaled VdW (van der Waals Surface) (Alpha=1.100).
 Cavity algorithm     : GePol (No added spheres)
                        Default sphere list used, NSphG=   18.
                        Lebedev-Laikov grids with approx.  5.0 points / Ang**2.
                        Smoothing algorithm: York/Karplus (Gamma=1.0000).
                        Polarization charges: spherical gaussians, with
                                              point-specific exponents (IZeta= 3).
                        Self-potential: point-specific (ISelfS= 7).
                        Self-field    : sphere-specific E.n sum rule (ISelfD= 2).
 1st derivatives      : Analytical E(r).r(x)/FMM algorithm (CHGder, D1EAlg=3).
                        Cavity 1st derivative terms included.
 Solvent              : Water, Eps=  78.355300 Eps(inf)=   1.777849
 ------------------------------------------------------------------------------
 Spheres list:
 ISph  on   Nord     Re0    Alpha      Xe            Ye            Ze
    1   C      1    1.9255  1.100     -2.784604     -0.476480     -0.090646
    2   N      2    1.8300  1.100     -1.373282     -0.397732      0.279825
    3   C      3    1.9255  1.100     -0.734462      0.840537     -0.172576
    4   C      4    1.9255  1.100      0.750169      0.843165      0.183701
    5   N      5    1.8300  1.100      1.433163     -0.285588     -0.443737
    6   C      6    1.9255  1.100      2.777644     -0.498431      0.078908
    7   H      7    1.4430  1.100     -3.215403     -1.405579      0.294319
    8   H      8    1.4430  1.100     -3.392934      0.364472      0.284497
    9   H      9    1.4430  1.100     -2.875834     -0.490126     -1.182251
   10   H     10    1.4430  1.100     -1.301421     -0.439341      1.295348
   11   H     11    1.4430  1.100     -0.844131      0.898585     -1.262729
   12   H     12    1.4430  1.100     -1.210426      1.743731      0.249480
   13   H     13    1.4430  1.100      1.202859      1.779588     -0.168045
   14   H     14    1.4430  1.100      0.854908      0.840871      1.287302
   15   H     15    1.4430  1.100      0.859798     -1.108137     -0.266090
   16   H     16    1.4430  1.100      2.815002     -0.663240      1.170763
   17   H     17    1.4430  1.100      3.402901      0.374848     -0.141149
   18   H     18    1.4430  1.100      3.233030     -1.365175     -0.410383
 ------------------------------------------------------------------------------
 One-electron integrals computed using PRISM.
 NBasis=   150 RedAO= T EigKep=  3.70D-03  NBF=   150
 NBsUse=   150 1.00D-06 EigRej= -1.00D+00 NBFU=   150
 Initial guess from the checkpoint file:  "KVKFRMCSXWQSNT-UHFFFAOYSA-N_conf_1_0.chk"
 B after Tr=    -0.000000    0.000000   -0.000000
         Rot=    0.999767    0.021603    0.000269   -0.000079 Ang=   2.48 deg.
 ExpMin= 1.61D-01 ExpMax= 4.17D+03 ExpMxC= 6.27D+02 IAcc=2 IRadAn=         4 AccDes= 0.00D+00
 Harris functional with IExCor=  402 and IRadAn=       4 diagonalized for initial guess.
 HarFok:  IExCor=  402 AccDes= 0.00D+00 IRadAn=         4 IDoV= 1 UseB2=F ITyADJ=14
 ICtDFT=  3500011 ScaDFX=  1.000000  1.000000  1.000000  1.000000
 FoFCou: FMM=F IPFlag=           0 FMFlag=      100000 FMFlg1=           0
         NFxFlg=           0 DoJE=T BraDBF=F KetDBF=T FulRan=T
         wScrn=  0.000000 ICntrl=       500 IOpCl=  0 I1Cent=   200000004 NGrid=           0
         NMat0=    1 NMatS0=      1 NMatT0=    0 NMatD0=    1 NMtDS0=    0 NMtDT0=    0
 Petite list used in FoFCou.
 Keep R1 ints in memory in canonical form, NReq=67061194.
 Requested convergence on RMS density matrix=1.00D-08 within  32 cycles.
 Requested convergence on MAX density matrix=1.00D-06.
 Requested convergence on             energy=1.00D-06.
 No special actions if energy rises.
 Inv3:  Mode=1 IEnd=     5467500.
 Iteration    1 A*A^-1 deviation from unit magnitude is 5.77D-15 for    998.
 Iteration    1 A*A^-1 deviation from orthogonality  is 3.08D-15 for   1049    927.
 Iteration    1 A^-1*A deviation from unit magnitude is 5.77D-15 for    502.
 Iteration    1 A^-1*A deviation from orthogonality  is 3.52D-15 for   1165    707.
 Error on total polarization charges =  0.00902
 SCF Done:  E(RB3LYP) =  -269.154787166     A.U. after    9 cycles
            NFock=  9  Conv=0.83D-08     -V/T= 2.0099
 QCSCF skips out because SCF is already converged.
 D1PCM: PCM CHGder 1st derivatives, ID1Alg=3 FixD1E=F DoIter=F DoCFld=F I1PDM=0.
 Calling FoFJK, ICntrl=      2127 FMM=F ISym2X=0 I1Cent= 0 IOpClX= 0 NMat=1 NMatS=1 NMatT=0.
 ***** Axes restored to original set *****
 -------------------------------------------------------------------
 Center     Atomic                   Forces (Hartrees/Bohr)
 Number     Number              X              Y              Z
 -------------------------------------------------------------------
      1        6           0.000009795    0.000585835   -0.000124631
      2        7           0.000230535   -0.000337327    0.000331329
      3        6           0.000076810    0.000077225   -0.000826067
      4        6          -0.000080902    0.000392038    0.000635369
      5        7          -0.000441416   -0.000978539   -0.000117696
      6        6          -0.000061361    0.000264017    0.000465684
      7        1          -0.000078230    0.000026554   -0.000073001
      8        1          -0.000349463   -0.000341967    0.000046297
      9        1           0.000009804    0.000071758    0.000077644
     10        1          -0.000115432    0.000185532    0.000116408
     11        1          -0.000102536    0.000191695    0.000203164
     12        1          -0.000073618   -0.000645163    0.000012504
     13        1           0.000213861    0.000170713   -0.000462235
     14        1           0.000002054    0.000222959   -0.000193545
     15        1           0.000294915    0.000153102    0.000185212
     16        1           0.000359328   -0.000114859   -0.000399223
     17        1           0.000027320   -0.000053572    0.000149198
     18        1           0.000078534    0.000130001   -0.000026413
 -------------------------------------------------------------------
 Cartesian Forces:  Max     0.000978539 RMS     0.000306061

 GradGradGradGradGradGradGradGradGradGradGradGradGradGradGradGradGradGrad
 Berny optimization.
 Using GEDIIS/GDIIS optimizer.
 FormGI is forming the generalized inverse of G from B-inverse, IUseBI=4.
 Internal  Forces:  Max     0.000486943 RMS     0.000205631
 Search for a local minimum.
 Step number   2 out of a maximum of   90
 All quantities printed in internal units (Hartrees-Bohrs-Radians)
 Mixed Optimization -- En-DIIS/RFO-DIIS
 Update second derivatives using D2CorX and points    1    2
 DE= -2.44D-03 DEPred=-2.43D-03 R= 1.01D+00
 TightC=F SS=  1.41D+00  RLast= 3.00D-01 DXNew= 5.0454D-01 8.9997D-01
 Trust test= 1.01D+00 RLast= 3.00D-01 DXMaxT set to 5.05D-01
 ITU=  1  0
 Use linear search instead of GDIIS.
     Eigenvalues ---    0.00345   0.00358   0.00366   0.00421   0.00538
     Eigenvalues ---    0.02346   0.02376   0.04359   0.04495   0.04798
     Eigenvalues ---    0.05354   0.06257   0.06268   0.06407   0.06419
     Eigenvalues ---    0.07937   0.08302   0.09690   0.10193   0.12058
     Eigenvalues ---    0.12797   0.13221   0.13249   0.16340   0.16479
     Eigenvalues ---    0.17685   0.17906   0.20650   0.21337   0.23972
     Eigenvalues ---    0.25046   0.28467   0.31491   0.31767   0.32503
     Eigenvalues ---    0.32593   0.33036   0.33110   0.33672   0.33694
     Eigenvalues ---    0.33826   0.33929   0.35034   0.35765   0.38004
     Eigenvalues ---    0.38439   0.42226   0.43603
 RFO step:  Lambda=-2.31513094D-04 EMin= 3.44520001D-03
 Quartic linear search produced a step of  0.10618.
 Iteration  1 RMS(Cart)=  0.04812417 RMS(Int)=  0.00103002
 Iteration  2 RMS(Cart)=  0.00138288 RMS(Int)=  0.00002206
 Iteration  3 RMS(Cart)=  0.00000120 RMS(Int)=  0.00002205
 Iteration  4 RMS(Cart)=  0.00000000 RMS(Int)=  0.00002205
 Variable       Old X    -DE/DX   Delta X   Delta X   Delta X     New X
                                 (Linear)    (Quad)   (Total)
    R1        2.76138   0.00042   0.00096  -0.00078   0.00019   2.76157
    R2        2.06751   0.00002  -0.00006  -0.00016  -0.00022   2.06730
    R3        2.08556   0.00021   0.00176  -0.00075   0.00101   2.08657
    R4        2.07018   0.00000   0.00015   0.00038   0.00053   2.07071
    R5        2.76835   0.00038  -0.00181   0.00195   0.00014   2.76848
    R6        1.92547   0.00002  -0.00010  -0.00007  -0.00017   1.92530
    R7        2.88520   0.00037  -0.00346   0.00302  -0.00044   2.88476
    R8        2.07339   0.00003   0.00003   0.00019   0.00022   2.07361
    R9        2.08764   0.00018   0.00166  -0.00100   0.00065   2.08829
   R10        2.76071   0.00024  -0.00123   0.00022  -0.00101   2.75970
   R11        2.07486   0.00005   0.00047  -0.00044   0.00003   2.07490
   R12        2.09488   0.00028   0.00222  -0.00087   0.00135   2.09623
   R13        2.75543   0.00043   0.00113  -0.00024   0.00089   2.75632
   R14        1.92427   0.00005  -0.00123   0.00133   0.00010   1.92437
   R15        2.08787   0.00024   0.00200  -0.00101   0.00099   2.08887
   R16        2.07181   0.00001   0.00032   0.00021   0.00053   2.07234
   R17        2.06839   0.00003   0.00004  -0.00048  -0.00044   2.06795
    A1        1.91437   0.00007   0.00046  -0.00095  -0.00053   1.91384
    A2        1.98792   0.00041   0.00440  -0.00210   0.00228   1.99020
    A3        1.91106  -0.00015  -0.00316   0.00362   0.00048   1.91153
    A4        1.88645  -0.00009   0.00031  -0.00008   0.00017   1.88662
    A5        1.88309  -0.00005   0.00075  -0.00126  -0.00052   1.88258
    A6        1.87790  -0.00022  -0.00284   0.00076  -0.00205   1.87585
    A7        1.96972   0.00049   0.00390  -0.00154   0.00236   1.97208
    A8        1.89505  -0.00017  -0.00152   0.00108  -0.00042   1.89463
    A9        1.88762  -0.00012  -0.00174   0.00322   0.00149   1.88911
   A10        1.93202   0.00003  -0.00052  -0.00039  -0.00095   1.93107
   A11        1.88385  -0.00013  -0.00353   0.00161  -0.00192   1.88193
   A12        1.96623   0.00019   0.00458  -0.00081   0.00376   1.96999
   A13        1.90600  -0.00002   0.00030  -0.00357  -0.00331   1.90269
   A14        1.90539   0.00002   0.00079   0.00276   0.00350   1.90890
   A15        1.86845  -0.00010  -0.00173   0.00025  -0.00144   1.86701
   A16        1.93163   0.00017   0.00030   0.00021   0.00048   1.93212
   A17        1.90459  -0.00007  -0.00051   0.00241   0.00190   1.90648
   A18        1.90094  -0.00002   0.00088  -0.00019   0.00065   1.90158
   A19        1.90563  -0.00010  -0.00117  -0.00025  -0.00141   1.90422
   A20        1.96253   0.00012   0.00334  -0.00180   0.00153   1.96406
   A21        1.85640  -0.00012  -0.00299  -0.00027  -0.00324   1.85316
   A22        1.97134   0.00029   0.00234  -0.00163   0.00072   1.97206
   A23        1.86080  -0.00007  -0.00143   0.00346   0.00205   1.86285
   A24        1.91638  -0.00013  -0.00151  -0.00185  -0.00335   1.91303
   A25        1.99015   0.00040   0.00450  -0.00242   0.00206   1.99222
   A26        1.91521  -0.00014  -0.00263   0.00282   0.00020   1.91541
   A27        1.91664   0.00010   0.00056  -0.00154  -0.00102   1.91562
   A28        1.87328  -0.00023  -0.00320   0.00136  -0.00181   1.87147
   A29        1.88555  -0.00009   0.00037   0.00019   0.00049   1.88604
   A30        1.87942  -0.00007   0.00026  -0.00030  -0.00003   1.87939
    D1       -3.11537   0.00004   0.00305   0.03850   0.04153  -3.07384
    D2       -1.02286   0.00009   0.00233   0.04230   0.04460  -0.97826
    D3       -0.99871   0.00026   0.00665   0.03625   0.04294  -0.95577
    D4        1.09381   0.00030   0.00593   0.04005   0.04601   1.13982
    D5        1.10453   0.00015   0.00376   0.03843   0.04218   1.14671
    D6       -3.08614   0.00019   0.00304   0.04223   0.04526  -3.04088
    D7       -3.09652   0.00017   0.00367   0.01492   0.01859  -3.07793
    D8       -1.01144   0.00009   0.00147   0.01133   0.01283  -0.99860
    D9        1.04769  -0.00001  -0.00013   0.01220   0.01203   1.05972
   D10        1.08989   0.00016   0.00427   0.01235   0.01662   1.10651
   D11       -3.10822   0.00007   0.00208   0.00876   0.01087  -3.09735
   D12       -1.04909  -0.00002   0.00047   0.00963   0.01007  -1.03902
   D13        1.04224   0.00015   0.00347   0.03944   0.04291   1.08515
   D14        3.13965   0.00009   0.00188   0.04080   0.04269  -3.10085
   D15       -1.12376  -0.00009  -0.00147   0.04169   0.04022  -1.08355
   D16       -1.02947   0.00030   0.00796   0.03992   0.04788  -0.98158
   D17        1.06794   0.00024   0.00637   0.04128   0.04765   1.11559
   D18        3.08772   0.00005   0.00301   0.04218   0.04519   3.13290
   D19       -3.06692   0.00042   0.00942   0.04007   0.04950  -3.01742
   D20       -0.96951   0.00037   0.00783   0.04144   0.04927  -0.92024
   D21        1.05027   0.00018   0.00447   0.04233   0.04680   1.09707
   D22       -2.93004  -0.00025  -0.00588  -0.04417  -0.05006  -2.98010
   D23       -0.82376  -0.00029  -0.00728  -0.04512  -0.05241  -0.87617
   D24        1.25637  -0.00021  -0.00468  -0.04712  -0.05181   1.20456
   D25       -2.92054  -0.00025  -0.00608  -0.04807  -0.05416  -2.97470
   D26       -0.79973  -0.00007  -0.00229  -0.04553  -0.04780  -0.84753
   D27        1.30654  -0.00011  -0.00369  -0.04648  -0.05015   1.25639
   D28        1.00323  -0.00034  -0.00824  -0.04757  -0.05585   0.94738
   D29       -1.09859  -0.00021  -0.00534  -0.04974  -0.05507  -1.15365
   D30        3.12194  -0.00010  -0.00441  -0.05014  -0.05453   3.06741
   D31       -1.07107  -0.00034  -0.00695  -0.04963  -0.05661  -1.12768
   D32        3.11030  -0.00022  -0.00405  -0.05180  -0.05583   3.05447
   D33        1.04765  -0.00011  -0.00312  -0.05220  -0.05530   0.99235
         Item               Value     Threshold  Converged?
 Maximum Force            0.000487     0.000450     NO 
 RMS     Force            0.000206     0.000300     YES
 Maximum Displacement     0.151662     0.001800     NO 
 RMS     Displacement     0.048020     0.001200     NO 
 Predicted change in Energy=-1.455285D-04
 GradGradGradGradGradGradGradGradGradGradGradGradGradGradGradGradGradGrad

                          Input orientation:                          
 ---------------------------------------------------------------------
 Center     Atomic      Atomic             Coordinates (Angstroms)
 Number     Number       Type             X           Y           Z
 ---------------------------------------------------------------------
      1          6           0       -2.713710    0.803978    0.094435
      2          7           0       -1.261228    0.757463   -0.059526
      3          6           0       -0.775011   -0.549289   -0.509273
      4          6           0        0.750417   -0.565710   -0.565455
      5          7           0        1.318303   -0.346327    0.761970
      6          6           0        2.761752   -0.138278    0.736815
      7          1           0       -3.022905    1.818215    0.363662
      8          1           0       -3.271566    0.504079   -0.810019
      9          1           0       -3.017587    0.133355    0.906005
     10          1           0       -0.985844    1.454822   -0.749348
     11          1           0       -1.114256   -1.301187    0.214362
     12          1           0       -1.181264   -0.843037   -1.494091
     13          1           0        1.087947   -1.539442   -0.944269
     14          1           0        1.091885    0.188417   -1.303824
     15          1           0        0.860626    0.479314    1.143872
     16          1           0        3.090090    0.671941    0.060350
     17          1           0        3.262886   -1.057331    0.409993
     18          1           0        3.119465    0.095072    1.744340
 ---------------------------------------------------------------------
                    Distance matrix (angstroms):
                    1          2          3          4          5
     1  C    0.000000
     2  N    1.461360   0.000000
     3  C    2.440154   1.465019   0.000000
     4  C    3.783078   2.460380   1.526550   0.000000
     5  N    4.245695   2.923557   2.457481   1.460370   0.000000
     6  C    5.592959   4.197723   3.772314   2.433942   1.458583
     7  H    1.093965   2.099474   3.379367   4.558982   4.867235
     8  H    1.104165   2.160764   2.726320   4.169006   4.925569
     9  H    1.095775   2.099181   2.738278   4.105088   4.364720
    10  H    2.030047   1.018823   2.029420   2.670387   3.292007
    11  H    2.646574   2.081983   1.097308   2.150824   2.670013
    12  H    2.753991   2.150807   1.105078   2.161173   3.403582
    13  H    4.585097   3.402523   2.154120   1.097989   2.094717
    14  H    4.100804   2.721990   2.158894   1.109278   2.145861
    15  H    3.739332   2.455158   2.542876   2.006495   1.018332
    16  H    5.805402   4.353809   4.093272   2.719831   2.160642
    17  H    6.267674   4.897094   4.172261   2.739651   2.100195
    18  H    6.103332   4.783635   4.545428   3.374044   2.098587
                    6          7          8          9         10
     6  C    0.000000
     7  H    6.117955   0.000000
     8  H    6.261489   1.779413   0.000000
     9  H    5.788193   1.770005   1.773889   0.000000
    10  H    4.334873   2.349567   2.476311   2.935038   0.000000
    11  H    4.080288   3.660041   2.993715   2.481723   2.922466
    12  H    4.584867   3.731641   2.579155   3.175828   2.423424
    13  H    2.755164   5.466594   4.816571   4.803871   3.647494
    14  H    2.656952   4.729508   4.402635   4.666277   2.495632
    15  H    2.039950   4.181292   4.570921   3.900872   2.818749
    16  H    1.105380   6.226930   6.423113   6.189421   4.228682
    17  H    1.096633   6.912458   6.828286   6.411560   5.070176
    18  H    1.094312   6.527190   6.894731   6.194165   4.992089
                   11         12         13         14         15
    11  H    0.000000
    12  H    1.770086   0.000000
    13  H    2.499778   2.436515   0.000000
    14  H    3.064452   2.503459   1.764878   0.000000
    15  H    2.816794   3.588423   2.913312   2.475746   0.000000
    16  H    4.646878   4.791233   3.147706   2.467303   2.486289
    17  H    4.388291   4.839621   2.607071   3.033529   2.944606
    18  H    4.713254   5.464774   3.745307   3.662116   2.368661
                   16         17         18
    16  H    0.000000
    17  H    1.772706   0.000000
    18  H    1.780299   1.768922   0.000000
 Stoichiometry    C4H12N2
 Framework group  C1[X(C4H12N2)]
 Deg. of freedom    48
 Full point group                 C1      NOp   1
 Largest Abelian subgroup         C1      NOp   1
 Largest concise Abelian subgroup C1      NOp   1
                         Standard orientation:                         
 ---------------------------------------------------------------------
 Center     Atomic      Atomic             Coordinates (Angstroms)
 Number     Number       Type             X           Y           Z
 ---------------------------------------------------------------------
      1          6           0       -2.793388   -0.472919   -0.100332
      2          7           0       -1.392814   -0.380311    0.306348
      3          6           0       -0.731430    0.828832   -0.190465
      4          6           0        0.747491    0.827385    0.187883
      5          7           0        1.436410   -0.304315   -0.426388
      6          6           0        2.797004   -0.480066    0.068952
      7          1           0       -3.251158   -1.356005    0.355044
      8          1           0       -3.400327    0.407842    0.173649
      9          1           0       -2.851923   -0.587328   -1.188545
     10          1           0       -1.350709   -0.371436    1.324262
     11          1           0       -0.820692    0.835317   -1.284117
     12          1           0       -1.202929    1.758200    0.177179
     13          1           0        1.210356    1.760862   -0.158462
     14          1           0        0.836508    0.829947    1.293580
     15          1           0        0.885354   -1.133744   -0.213353
     16          1           0        2.870887   -0.560502    1.168923
     17          1           0        3.415529    0.372369   -0.236639
     18          1           0        3.235866   -1.382535   -0.367475
 ---------------------------------------------------------------------
 Rotational constants (GHZ):           9.6671011           1.4951362           1.3890302
 Standard basis: 6-31G(d,p) (6D, 7F)
 There are   150 symmetry adapted cartesian basis functions of A   symmetry.
 There are   150 symmetry adapted basis functions of A   symmetry.
   150 basis functions,   252 primitive gaussians,   150 cartesian basis functions
    25 alpha electrons       25 beta electrons
       nuclear repulsion energy       254.7784004899 Hartrees.
 NAtoms=   18 NActive=   18 NUniq=   18 SFac= 1.00D+00 NAtFMM=   60 NAOKFM=F Big=F
 Integral buffers will be    131072 words long.
 Raffenetti 2 integral format.
 Two-electron integral symmetry is turned on.
 ------------------------------------------------------------------------------
 Polarizable Continuum Model (PCM)
 =================================
 Model                : PCM.
 Atomic radii         : UFF (Universal Force Field).
 Polarization charges : Total charges.
 Charge compensation  : None.
 Solution method      : Matrix inversion.
 Cavity type          : Scaled VdW (van der Waals Surface) (Alpha=1.100).
 Cavity algorithm     : GePol (No added spheres)
                        Default sphere list used, NSphG=   18.
                        Lebedev-Laikov grids with approx.  5.0 points / Ang**2.
                        Smoothing algorithm: York/Karplus (Gamma=1.0000).
                        Polarization charges: spherical gaussians, with
                                              point-specific exponents (IZeta= 3).
                        Self-potential: point-specific (ISelfS= 7).
                        Self-field    : sphere-specific E.n sum rule (ISelfD= 2).
 1st derivatives      : Analytical E(r).r(x)/FMM algorithm (CHGder, D1EAlg=3).
                        Cavity 1st derivative terms included.
 Solvent              : Water, Eps=  78.355300 Eps(inf)=   1.777849
 ------------------------------------------------------------------------------
 Spheres list:
 ISph  on   Nord     Re0    Alpha      Xe            Ye            Ze
    1   C      1    1.9255  1.100     -2.793388     -0.472919     -0.100332
    2   N      2    1.8300  1.100     -1.392814     -0.380311      0.306348
    3   C      3    1.9255  1.100     -0.731430      0.828832     -0.190465
    4   C      4    1.9255  1.100      0.747491      0.827385      0.187883
    5   N      5    1.8300  1.100      1.436410     -0.304315     -0.426388
    6   C      6    1.9255  1.100      2.797004     -0.480066      0.068952
    7   H      7    1.4430  1.100     -3.251158     -1.356005      0.355044
    8   H      8    1.4430  1.100     -3.400327      0.407842      0.173649
    9   H      9    1.4430  1.100     -2.851923     -0.587328     -1.188545
   10   H     10    1.4430  1.100     -1.350709     -0.371436      1.324262
   11   H     11    1.4430  1.100     -0.820692      0.835317     -1.284117
   12   H     12    1.4430  1.100     -1.202929      1.758200      0.177179
   13   H     13    1.4430  1.100      1.210356      1.760862     -0.158462
   14   H     14    1.4430  1.100      0.836508      0.829947      1.293580
   15   H     15    1.4430  1.100      0.885354     -1.133744     -0.213353
   16   H     16    1.4430  1.100      2.870887     -0.560502      1.168923
   17   H     17    1.4430  1.100      3.415529      0.372369     -0.236639
   18   H     18    1.4430  1.100      3.235866     -1.382535     -0.367475
 ------------------------------------------------------------------------------
 One-electron integrals computed using PRISM.
 NBasis=   150 RedAO= T EigKep=  3.70D-03  NBF=   150
 NBsUse=   150 1.00D-06 EigRej= -1.00D+00 NBFU=   150
 Initial guess from the checkpoint file:  "KVKFRMCSXWQSNT-UHFFFAOYSA-N_conf_1_0.chk"
 B after Tr=     0.000000   -0.000000    0.000000
         Rot=    0.999899    0.014220    0.000712    0.000178 Ang=   1.63 deg.
 ExpMin= 1.61D-01 ExpMax= 4.17D+03 ExpMxC= 6.27D+02 IAcc=2 IRadAn=         4 AccDes= 0.00D+00
 Harris functional with IExCor=  402 and IRadAn=       4 diagonalized for initial guess.
 HarFok:  IExCor=  402 AccDes= 0.00D+00 IRadAn=         4 IDoV= 1 UseB2=F ITyADJ=14
 ICtDFT=  3500011 ScaDFX=  1.000000  1.000000  1.000000  1.000000
 FoFCou: FMM=F IPFlag=           0 FMFlag=      100000 FMFlg1=           0
         NFxFlg=           0 DoJE=T BraDBF=F KetDBF=T FulRan=T
         wScrn=  0.000000 ICntrl=       500 IOpCl=  0 I1Cent=   200000004 NGrid=           0
         NMat0=    1 NMatS0=      1 NMatT0=    0 NMatD0=    1 NMtDS0=    0 NMtDT0=    0
 Petite list used in FoFCou.
 Keep R1 ints in memory in canonical form, NReq=67061194.
 Requested convergence on RMS density matrix=1.00D-08 within  32 cycles.
 Requested convergence on MAX density matrix=1.00D-06.
[...]
     2  N    0.204870   7.963185   0.279912  -0.023528   0.015924  -0.001418
     3  C   -0.052859   0.279912   5.328630   0.412767  -0.030531   0.003487
     4  C    0.005016  -0.023528   0.412767   5.434811   0.332207  -0.045466
     5  N   -0.001769   0.015924  -0.030531   0.332207   7.204021   0.247905
     6  C    0.000094  -0.001418   0.003487  -0.045466   0.247905   5.142423
     7  H    0.221098  -0.122599   0.005155  -0.000089  -0.000139   0.000005
     8  H    0.247821  -0.101145  -0.018610   0.000109  -0.000090   0.000003
     9  H    0.249605  -0.083510  -0.018030   0.000935  -0.000425   0.000014
    10  H    0.014588  -0.569594  -0.030152  -0.043336  -0.021109   0.001814
    11  H    0.001059  -0.097193   0.204962  -0.034172  -0.016342   0.001455
    12  H    0.006465  -0.132522   0.146941  -0.088311  -0.001853   0.000368
    13  H    0.000613  -0.004377  -0.104988   0.120558  -0.080188  -0.001981
    14  H    0.003169  -0.064851  -0.063195   0.045191  -0.109918  -0.003158
    15  H    0.004565  -0.028353  -0.017873  -0.057079   0.020054  -0.008060
    16  H    0.000016  -0.000712   0.000360  -0.028593  -0.069980   0.284290
    17  H    0.000004  -0.000069  -0.000569  -0.026340  -0.068057   0.258118
    18  H    0.000004  -0.000053  -0.000277   0.002955  -0.067215   0.312498
               7          8          9         10         11         12
     1  C    0.221098   0.247821   0.249605   0.014588   0.001059   0.006465
     2  N   -0.122599  -0.101145  -0.083510  -0.569594  -0.097193  -0.132522
     3  C    0.005155  -0.018610  -0.018030  -0.030152   0.204962   0.146941
     4  C   -0.000089   0.000109   0.000935  -0.043336  -0.034172  -0.088311
     5  N   -0.000139  -0.000090  -0.000425  -0.021109  -0.016342  -0.001853
     6  C    0.000005   0.000003   0.000014   0.001814   0.001455   0.000368
     7  H    0.710944   0.013533   0.017089   0.063483   0.002594   0.002894
     8  H    0.013533   0.665610   0.005035   0.045634   0.006556   0.025119
     9  H    0.017089   0.005035   0.659286   0.028426   0.023278   0.007113
    10  H    0.063483   0.045634   0.028426   1.306190   0.033005   0.073644
    11  H    0.002594   0.006556   0.023278   0.033005   0.706512   0.025063
    12  H    0.002894   0.025119   0.007113   0.073644   0.025063   0.790161
    13  H    0.000029   0.000176   0.000155   0.008120   0.019820   0.038185
    14  H    0.000285   0.000487   0.000298   0.083139   0.017768   0.032367
    15  H    0.001019   0.000395   0.001601   0.042078   0.015175   0.006011
    16  H    0.000001   0.000000   0.000001   0.001212   0.000188   0.000125
    17  H    0.000000   0.000000   0.000001   0.000144   0.000345   0.000158
    18  H    0.000000   0.000000   0.000001   0.000117   0.000100   0.000019
              13         14         15         16         17         18
     1  C    0.000613   0.003169   0.004565   0.000016   0.000004   0.000004
     2  N   -0.004377  -0.064851  -0.028353  -0.000712  -0.000069  -0.000053
     3  C   -0.104988  -0.063195  -0.017873   0.000360  -0.000569  -0.000277
     4  C    0.120558   0.045191  -0.057079  -0.028593  -0.026340   0.002955
     5  N   -0.080188  -0.109918   0.020054  -0.069980  -0.068057  -0.067215
     6  C   -0.001981  -0.003158  -0.008060   0.284290   0.258118   0.312498
     7  H    0.000029   0.000285   0.001019   0.000001   0.000000   0.000000
     8  H    0.000176   0.000487   0.000395   0.000000   0.000000   0.000000
     9  H    0.000155   0.000298   0.001601   0.000001   0.000001   0.000001
    10  H    0.008120   0.083139   0.042078   0.001212   0.000144   0.000117
    11  H    0.019820   0.017768   0.015175   0.000188   0.000345   0.000100
    12  H    0.038185   0.032367   0.006011   0.000125   0.000158   0.000019
    13  H    0.823247   0.059898   0.027052   0.006130   0.025174   0.001697
    14  H    0.059898   0.886711   0.041741   0.031088   0.010674   0.002241
    15  H    0.027052   0.041741   0.710193   0.018884   0.018267   0.018507
    16  H    0.006130   0.031088   0.018884   0.652125   0.001072  -0.009591
    17  H    0.025174   0.010674   0.018267   0.001072   0.668481   0.001574
    18  H    0.001697   0.002241   0.018507  -0.009591   0.001574   0.624689
 Mulliken charges:
               1
     1  C   -0.201758
     2  N   -0.233967
     3  C   -0.045132
     4  C   -0.007632
     5  N   -0.352494
     6  C   -0.192392
     7  H    0.084698
     8  H    0.109366
     9  H    0.109127
    10  H   -0.037402
    11  H    0.089829
    12  H    0.068054
    13  H    0.060678
    14  H    0.026065
    15  H    0.185821
    16  H    0.113383
    17  H    0.111021
    18  H    0.112734
 Sum of Mulliken charges =  -0.00000
 Mulliken charges with hydrogens summed into heavy atoms:
               1
     1  C    0.101433
     2  N   -0.271369
     3  C    0.112751
     4  C    0.079111
     5  N   -0.166673
     6  C    0.144747
 Electronic spatial extent (au):  <R**2>=            922.9878
 Charge=              0.0000 electrons
 Dipole moment (field-independent basis, Debye):
    X=              0.6768    Y=              0.0622    Z=             -0.7309  Tot=              0.9981
 Quadrupole moment (field-independent basis, Debye-Ang):
   XX=            -36.3771   YY=            -41.0184   ZZ=            -44.6650
   XY=             -1.3162   XZ=              2.6797   YZ=              0.0374
 Traceless Quadrupole moment (field-independent basis, Debye-Ang):
   XX=              4.3098   YY=             -0.3316   ZZ=             -3.9782
   XY=             -1.3162   XZ=              2.6797   YZ=              0.0374
 Octapole moment (field-independent basis, Debye-Ang**2):
  XXX=              6.3525  YYY=             -2.4571  ZZZ=             -6.5830  XYY=              2.5798
  XXY=             -3.9958  XXZ=             -2.1573  XZZ=              1.6811  YZZ=             -0.4972
  YYZ=             -1.8665  XYZ=             -0.1266
 Hexadecapole moment (field-independent basis, Debye-Ang**3):
 XXXX=           -945.6803 YYYY=           -175.7595 ZZZZ=           -112.8327 XXXY=             -7.4308
 XXXZ=              9.8224 YYYX=             -4.1063 YYYZ=              1.1835 ZZZX=             10.0356
 ZZZY=              0.1914 XXYY=           -194.2787 XXZZ=           -191.1533 YYZZ=            -48.1386
 XXYZ=              1.0473 YYXZ=             -0.4412 ZZXY=             -0.9081
 N-N= 2.547426112316D+02 E-N=-1.132298676584D+03  KE= 2.666815667804D+02
 Evaluate density.
 Using the total density.
 Monte-Carlo method of calculating molar volume:
 based on  0.001 e/bohr**3 density envelope.
 Number of points per bohr**3 =   20 CutOff= 1.00D-04
 Using the CI density.
 There are       342 points.  Will hold       342 in memory.
 LenV=   805231050 MDV=   805306368.
 Box volume = 5024.377 fraction occupied=0.243
 Integrated density= 3.7022873074230297D+01 error=-1.2977126925769703D+01
 Molar volume = 1219.366 bohr**3/mol (108.815 cm**3/mol)
 Recommended a0 for SCRF calculation =  4.36 angstrom (  8.24 bohr)
 ******************************Gaussian NBO Version 3.1******************************
             N A T U R A L   A T O M I C   O R B I T A L   A N D
          N A T U R A L   B O N D   O R B I T A L   A N A L Y S I S
 ******************************Gaussian NBO Version 3.1******************************
       /RESON  / : Allow strongly delocalized NBO set

 Analyzing the CI density

 Job title: KVKFRMCSXWQSNT-UHFFFAOYSA-N_conf_1                              

 Storage needed:     68640 in NPA ( 805304568 available)
 GSVD:  LWork=       11556 too small for GESVD, short by        9684 words or        9684 for optimal perf.


 NATURAL POPULATIONS:  Natural atomic orbital occupancies 
                                                          
   NAO  Atom  No  lang   Type(AO)    Occupancy
 --------------------------------------------
     1    C    1  S      Cor( 1S)     1.99949
     2    C    1  S      Val( 2S)     1.10474
     3    C    1  S      Ryd( 3S)     0.00141
     4    C    1  S      Ryd( 4S)     0.00002
     5    C    1  px     Val( 2p)     0.95760
     6    C    1  px     Ryd( 3p)     0.00989
     7    C    1  py     Val( 2p)     1.24590
     8    C    1  py     Ryd( 3p)     0.00232
     9    C    1  pz     Val( 2p)     1.23023
    10    C    1  pz     Ryd( 3p)     0.00342
    11    C    1  dxy    Ryd( 3d)     0.00096
    12    C    1  dxz    Ryd( 3d)     0.00065
    13    C    1  dyz    Ryd( 3d)     0.00040
    14    C    1  dx2y2  Ryd( 3d)     0.00107
    15    C    1  dz2    Ryd( 3d)     0.00108

    16    N    2  S      Cor( 1S)     1.99944
    17    N    2  S      Val( 2S)     1.42517
    18    N    2  S      Ryd( 3S)     0.00637
    19    N    2  S      Ryd( 4S)     0.00013
    20    N    2  px     Val( 2p)     1.28033
    21    N    2  px     Ryd( 3p)     0.00265
    22    N    2  py     Val( 2p)     1.32823
    23    N    2  py     Ryd( 3p)     0.00263
    24    N    2  pz     Val( 2p)     1.40195
    25    N    2  pz     Ryd( 3p)     0.00345
    26    N    2  dxy    Ryd( 3d)     0.00084
    27    N    2  dxz    Ryd( 3d)     0.00027
    28    N    2  dyz    Ryd( 3d)     0.00042
    29    N    2  dx2y2  Ryd( 3d)     0.00102
    30    N    2  dz2    Ryd( 3d)     0.00104

    31    C    3  S      Cor( 1S)     1.99934
    32    C    3  S      Val( 2S)     1.04034
    33    C    3  S      Ryd( 3S)     0.00215
    34    C    3  S      Ryd( 4S)     0.00004
    35    C    3  px     Val( 2p)     1.02875
    36    C    3  px     Ryd( 3p)     0.00324
    37    C    3  py     Val( 2p)     1.03266
    38    C    3  py     Ryd( 3p)     0.00519
    39    C    3  pz     Val( 2p)     1.20721
    40    C    3  pz     Ryd( 3p)     0.00439
    41    C    3  dxy    Ryd( 3d)     0.00103
    42    C    3  dxz    Ryd( 3d)     0.00053
    43    C    3  dyz    Ryd( 3d)     0.00066
    44    C    3  dx2y2  Ryd( 3d)     0.00107
    45    C    3  dz2    Ryd( 3d)     0.00121

    46    C    4  S      Cor( 1S)     1.99931
    47    C    4  S      Val( 2S)     1.03616
    48    C    4  S      Ryd( 3S)     0.00224
    49    C    4  S      Ryd( 4S)     0.00004
    50    C    4  px     Val( 2p)     1.02423
    51    C    4  px     Ryd( 3p)     0.00319
    52    C    4  py     Val( 2p)     1.04916
    53    C    4  py     Ryd( 3p)     0.00424
    54    C    4  pz     Val( 2p)     1.17882
    55    C    4  pz     Ryd( 3p)     0.00405
    56    C    4  dxy    Ryd( 3d)     0.00106
    57    C    4  dxz    Ryd( 3d)     0.00060
    58    C    4  dyz    Ryd( 3d)     0.00084
    59    C    4  dx2y2  Ryd( 3d)     0.00090
    60    C    4  dz2    Ryd( 3d)     0.00115

    61    N    5  S      Cor( 1S)     1.99946
    62    N    5  S      Val( 2S)     1.38331
    63    N    5  S      Ryd( 3S)     0.00257
    64    N    5  S      Ryd( 4S)     0.00008
    65    N    5  px     Val( 2p)     1.27201
    66    N    5  px     Ryd( 3p)     0.00148
    67    N    5  py     Val( 2p)     1.32795
    68    N    5  py     Ryd( 3p)     0.00173
    69    N    5  pz     Val( 2p)     1.48473
    70    N    5  pz     Ryd( 3p)     0.00415
    71    N    5  dxy    Ryd( 3d)     0.00067
    72    N    5  dxz    Ryd( 3d)     0.00100
    73    N    5  dyz    Ryd( 3d)     0.00090
    74    N    5  dx2y2  Ryd( 3d)     0.00043
    75    N    5  dz2    Ryd( 3d)     0.00090

    76    C    6  S      Cor( 1S)     1.99949
    77    C    6  S      Val( 2S)     1.10284
    78    C    6  S      Ryd( 3S)     0.00128
    79    C    6  S      Ryd( 4S)     0.00002
    80    C    6  px     Val( 2p)     0.95718
    81    C    6  px     Ryd( 3p)     0.00850
    82    C    6  py     Val( 2p)     1.25339
    83    C    6  py     Ryd( 3p)     0.00204
    84    C    6  pz     Val( 2p)     1.20451
    85    C    6  pz     Ryd( 3p)     0.00214
    86    C    6  dxy    Ryd( 3d)     0.00092
    87    C    6  dxz    Ryd( 3d)     0.00089
    88    C    6  dyz    Ryd( 3d)     0.00041
    89    C    6  dx2y2  Ryd( 3d)     0.00093
    90    C    6  dz2    Ryd( 3d)     0.00102

    91    H    7  S      Val( 1S)     0.77241
    92    H    7  S      Ryd( 2S)     0.01342
    93    H    7  px     Ryd( 2p)     0.00013
    94    H    7  py     Ryd( 2p)     0.00026
    95    H    7  pz     Ryd( 2p)     0.00012

    96    H    8  S      Val( 1S)     0.75739
    97    H    8  S      Ryd( 2S)     0.01386
    98    H    8  px     Ryd( 2p)     0.00018
    99    H    8  py     Ryd( 2p)     0.00025
   100    H    8  pz     Ryd( 2p)     0.00011

   101    H    9  S      Val( 1S)     0.76719
   102    H    9  S      Ryd( 2S)     0.00997
   103    H    9  px     Ryd( 2p)     0.00011
   104    H    9  py     Ryd( 2p)     0.00008
   105    H    9  pz     Ryd( 2p)     0.00035

   106    H   10  S      Val( 1S)     0.72752
   107    H   10  S      Ryd( 2S)     0.09407
   108    H   10  px     Ryd( 2p)     0.00022
   109    H   10  py     Ryd( 2p)     0.00029
   110    H   10  pz     Ryd( 2p)     0.00067

   111    H   11  S      Val( 1S)     0.76181
   112    H   11  S      Ryd( 2S)     0.01555
   113    H   11  px     Ryd( 2p)     0.00008
   114    H   11  py     Ryd( 2p)     0.00010
   115    H   11  pz     Ryd( 2p)     0.00038

   116    H   12  S      Val( 1S)     0.76420
   117    H   12  S      Ryd( 2S)     0.02795
   118    H   12  px     Ryd( 2p)     0.00014
   119    H   12  py     Ryd( 2p)     0.00029
   120    H   12  pz     Ryd( 2p)     0.00012

   121    H   13  S      Val( 1S)     0.77854
   122    H   13  S      Ryd( 2S)     0.02171
   123    H   13  px     Ryd( 2p)     0.00014
   124    H   13  py     Ryd( 2p)     0.00030
   125    H   13  pz     Ryd( 2p)     0.00011

   126    H   14  S      Val( 1S)     0.78496
   127    H   14  S      Ryd( 2S)     0.03898
   128    H   14  px     Ryd( 2p)     0.00011
   129    H   14  py     Ryd( 2p)     0.00008
   130    H   14  pz     Ryd( 2p)     0.00038

   131    H   15  S      Val( 1S)     0.62315
   132    H   15  S      Ryd( 2S)     0.03426
   133    H   15  px     Ryd( 2p)     0.00037
   134    H   15  py     Ryd( 2p)     0.00050
   135    H   15  pz     Ryd( 2p)     0.00045

   136    H   16  S      Val( 1S)     0.76571
   137    H   16  S      Ryd( 2S)     0.01036
   138    H   16  px     Ryd( 2p)     0.00007
   139    H   16  py     Ryd( 2p)     0.00009
   140    H   16  pz     Ryd( 2p)     0.00036

   141    H   17  S      Val( 1S)     0.76665
   142    H   17  S      Ryd( 2S)     0.01109
   143    H   17  px     Ryd( 2p)     0.00018
   144    H   17  py     Ryd( 2p)     0.00023
   145    H   17  pz     Ryd( 2p)     0.00011

   146    H   18  S      Val( 1S)     0.76167
   147    H   18  S      Ryd( 2S)     0.00590
   148    H   18  px     Ryd( 2p)     0.00011
   149    H   18  py     Ryd( 2p)     0.00027
   150    H   18  pz     Ryd( 2p)     0.00011


 Summary of Natural Population Analysis:                  
                                                          
                                       Natural Population 
                Natural  -----------------------------------------------
    Atom  No    Charge         Core      Valence    Rydberg      Total
 -----------------------------------------------------------------------
      C    1   -0.55919      1.99949     4.53848    0.02122     6.55919
      N    2   -0.45394      1.99944     5.43568    0.01882     7.45394
      C    3   -0.32780      1.99934     4.30896    0.01951     6.32780
      C    4   -0.30599      1.99931     4.28838    0.01830     6.30599
      N    5   -0.48136      1.99946     5.46800    0.01390     7.48136
      C    6   -0.53555      1.99949     4.51792    0.01815     6.53555
      H    7    0.21366      0.00000     0.77241    0.01393     0.78634
      H    8    0.22821      0.00000     0.75739    0.01441     0.77179
      H    9    0.22230      0.00000     0.76719    0.01051     0.77770
      H   10    0.17723      0.00000     0.72752    0.09525     0.82277
      H   11    0.22207      0.00000     0.76181    0.01611     0.77793
      H   12    0.20730      0.00000     0.76420    0.02850     0.79270
      H   13    0.19920      0.00000     0.77854    0.02226     0.80080
      H   14    0.17550      0.00000     0.78496    0.03954     0.82450
      H   15    0.34127      0.00000     0.62315    0.03558     0.65873
      H   16    0.22341      0.00000     0.76571    0.01088     0.77659
      H   17    0.22173      0.00000     0.76665    0.01161     0.77827
      H   18    0.23194      0.00000     0.76167    0.00639     0.76806
 =======================================================================
   * Total *   -0.00000     11.99653    37.58860    0.41487    50.00000

                                 Natural Population      
 --------------------------------------------------------
   Core                      11.99653 ( 99.9711% of  12)
   Valence                   37.58860 ( 98.9174% of  38)
   Natural Minimal Basis     49.58513 ( 99.1703% of  50)
   Natural Rydberg Basis      0.41487 (  0.8297% of  50)
 --------------------------------------------------------

    Atom  No          Natural Electron Configuration
 ----------------------------------------------------------------------------
      C    1      [core]2S( 1.10)2p( 3.43)3p( 0.02)
      N    2      [core]2S( 1.43)2p( 4.01)3S( 0.01)3p( 0.01)
      C    3      [core]2S( 1.04)2p( 3.27)3p( 0.01)
      C    4      [core]2S( 1.04)2p( 3.25)3p( 0.01)
      N    5      [core]2S( 1.38)2p( 4.08)3p( 0.01)
      C    6      [core]2S( 1.10)2p( 3.42)3p( 0.01)
      H    7            1S( 0.77)2S( 0.01)
      H    8            1S( 0.76)2S( 0.01)
      H    9            1S( 0.77)2S( 0.01)
      H   10            1S( 0.73)2S( 0.09)
      H   11            1S( 0.76)2S( 0.02)
      H   12            1S( 0.76)2S( 0.03)
      H   13            1S( 0.78)2S( 0.02)
      H   14            1S( 0.78)2S( 0.04)
      H   15            1S( 0.62)2S( 0.03)
      H   16            1S( 0.77)2S( 0.01)
      H   17            1S( 0.77)2S( 0.01)
      H   18            1S( 0.76)2S( 0.01)


 NBO analysis skipped by request.
 1\1\GINC-CN33\SP\RB3LYP TD-FC\6-31G(d,p)\C4H12N2\QDUEZ\11-Jul-2024\0\\
 # TD(NStates=10, Root=1) B3LYP/6-31G** SCRF=(Solvent=water) volume pop
 =NPA density=current Geom=AllCheck Guess=Read\\KVKFRMCSXWQSNT-UHFFFAOY
 SA-N_conf_1\\0,1\C,0,-2.714002316,0.8044098364,0.0943958657\N,0,-1.261
 3570159,0.7573844455,-0.0599593465\C,0,-0.7752767637,-0.5494917538,-0.
 5096758219\C,0,0.7503467691,-0.5660086532,-0.5654908768\N,0,1.31876020
 26,-0.3473754645,0.7621230746\C,0,2.7623620184,-0.1381003345,0.7369445
 593\H,0,-3.0230292991,1.8190388762,0.3623713087\H,0,-3.2721439715,0.50
 34930721,-0.8094884263\H,0,-3.0179846851,0.1349065847,0.9068191151\H,0
 ,-0.9861145836,1.4544966895,-0.7500361001\H,0,-1.1146364498,-1.3011187
 939,0.2141927871\H,0,-1.1817757069,-0.8436384176,-1.4942575259\H,0,1.0
 878304102,-1.5394879374,-0.9450441751\H,0,1.0917508163,0.1885592857,-1
 .3032513903\H,0,0.8607671991,0.4774475577,1.1452540437\H,0,3.089801640
 7,0.6730592286,0.0613339152\H,0,3.2643969796,-1.0562729746,0.409227559
 6\H,0,3.1203047557,0.0947533671,1.7445414339\\Version=EM64L-G16RevA.03
 \State=1-A\HF=-269.1549305\RMSD=1.539e-09\Dipole=0.1917346,-0.2686053,
 0.2127915\Quadrupole=3.8320772,-2.2603562,-1.5717211,0.8339479,0.31437
 94,1.5934428\PG=C01 [X(C4H12N2)]\\@


 WE MIGHT AS WELL ATTEMPT TO INTRODUCE A NEW PLANET 
 INTO THE SOLAR SYSTEM, OR TO ANNIHILATE ONE ALREADYIN EXISTENCE, 
 AS TO CREATE OR DESTROY A PARTICLE OF HYDROGEN.
 ALL THE CHANGES WE CAN PRODUCE CONSIST IN SEPARATING PARTICLES
 THAT ARE IN A STATE OF ... COMBINATION, AND JOINING 
 THOSE THAT WERE PREVIOUSLY AT A DISTANCE.

                                    -- JOHN DALTON, 1810
 Job cpu time:       0 days  0 hours 27 minutes 45.9 seconds.
 Elapsed time:       0 days  0 hours 14 minutes 11.6 seconds.
 File lengths (MBytes):  RWF=    246 Int=      0 D2E=      0 Chk=     15 Scr=      1
 Normal termination of Gaussian 16 at Thu Jul 11 20:18:59 2024.
