 Entering Gaussian System, Link 0=g16
 Initial command:
 /opt/sw/arch/manual/gaussian/G16_A03/g16/l1.exe "/scratch/1380829/Gau-35989.inp" -scrdir="/scratch/1380829/"
 Entering Link 1 = /opt/sw/arch/manual/gaussian/G16_A03/g16/l1.exe PID=     35990.
  
 Copyright (c) 1988,1990,1992,1993,1995,1998,2003,2009,2016,
            Gaussian, Inc.  All Rights Reserved.
  
 This is part of the Gaussian(R) 16 program.  It is based on
 the Gaussian(R) 09 system (copyright 2009, Gaussian, Inc.),
 the Gaussian(R) 03 system (copyright 2003, Gaussian, Inc.),
 the Gaussian(R) 98 system (copyright 1998, Gaussian, Inc.),
 the Gaussian(R) 94 system (copyright 1995, Gaussian, Inc.),
 the Gaussian 92(TM) system (copyright 1992, Gaussian, Inc.),
 the Gaussian 90(TM) system (copyright 1990, Gaussian, Inc.),
 the Gaussian 88(TM) system (copyright 1988, Gaussian, Inc.),
 the Gaussian 86(TM) system (copyright 1986, Carnegie Mellon
 University), and the Gaussian 82(TM) system (copyright 1983,
 Carnegie Mellon University). Gaussian is a federally registered
 trademark of Gaussian, Inc.
  
 This software contains proprietary and confidential information,
 including trade secrets, belonging to Gaussian, Inc.
  
 This software is provided under written license and may be
 used, copied, transmitted, or stored only in accord with that
 written license.
  
 The following legend is applicable only to US Government
 contracts under FAR:
  
                    RESTRICTED RIGHTS LEGEND
  
 Use, reproduction and disclosure by the US Government is
 subject to restrictions as set forth in subparagraphs (a)
 and (c) of the Commercial Computer Software - Restricted
 Rights clause in FAR 52.227-19.
  
 Gaussian, Inc.
 340 Quinnipiac St., Bldg. 40, Wallingford CT 06492
  
  
 ---------------------------------------------------------------
 Warning -- This program may not be used in any manner that
 competes with the business of Gaussian, Inc. or will provide
 assistance to any competitor of Gaussian, Inc.  The licensee
 of this program is prohibited from giving any competitor of
 Gaussian, Inc. access to this program.  By using this program,
 the user acknowledges that Gaussian, Inc. is engaged in the
 business of creating and licensing software in the field of
 computational chemistry and represents and warrants to the
 licensee that it is not a competitor of Gaussian, Inc. and that
 it will not use this program in any manner prohibited above.
 ---------------------------------------------------------------
  

 Cite this work as:
 Gaussian 16, Revision A.03,
 M. J. Frisch, G. W. Trucks, H. B. Schlegel, G. E. Scuseria, 
 M. A. Robb, J. R. Cheeseman, G. Scalmani, V. Barone, 
 G. A. Petersson, H. Nakatsuji, X. Li, M. Caricato, A. V. Marenich, 
 J. Bloino, B. G. Janesko, R. Gomperts, B. Mennucci, H. P. Hratchian, 
 J. V. Ortiz, A. F. Izmaylov, J. L. Sonnenberg, D. Williams-Young, 
 F. Ding, F. Lipparini, F. Egidi, J. Goings, B. Peng, A. Petrone, 
 T. Henderson, D. Ranasinghe, V. G. Zakrzewski, J. Gao, N. Rega, 
 G. Zheng, W. Liang, M. Hada, M. Ehara, K. Toyota, R. Fukuda, 
 J. Hasegawa, M. Ishida, T. Nakajima, Y. Honda, O. Kitao, H. Nakai, 
 T. Vreven, K. Throssell, J. A. Montgomery, Jr., J. E. Peralta, 
 F. Ogliaro, M. J. Bearpark, J. J. Heyd, E. N. Brothers, K. N. Kudin, 
 V. N. Staroverov, T. A. Keith, R. Kobayashi, J. Normand, 
 K. Raghavachari, A. P. Rendell, J. C. Burant, S. S. Iyengar, 
 J. Tomasi, M. Cossi, J. M. Millam, M. Klene, C. Adamo, R. Cammi, 
 J. W. Ochterski, R. L. Martin, K. Morokuma, O. Farkas, 
 J. B. Foresman, and D. J. Fox, Gaussian, Inc., Wallingford CT, 2016.
 
 ******************************************
 Gaussian 16:  ES64L-G16RevA.03 25-Dec-2016
                17-Jul-2024 
 ******************************************
 %nprocshared=2
 Will use up to    2 processors via shared memory.
 %mem=4GB
 %Chk=GEYOCULIXLDCMW-UHFFFAOYSA-N_conf_0_0.chk
 -------------------------------------------------------
 # opt=CalcFc B3LYP/6-31G** SCRF=(Solvent=water) scf=xqc
 -------------------------------------------------------
 1/10=4,18=20,19=15,26=3,38=1/1,3;
 2/9=110,12=2,17=6,18=5,40=1/2;
 3/5=1,6=6,7=101,11=2,25=1,30=1,70=2201,71=2,72=1,74=-5,140=1/1,2,3;
 4//1;
 5/5=2,8=3,13=1,38=5,53=1/2,8;
 8/6=4,10=90,11=11/1;
 11/6=1,8=1,9=11,15=111,16=1/1,2,10;
 10/6=1,13=1/2;
 6/7=2,8=2,9=2,10=2,28=1/1;
 7/10=1,18=20,25=1/1,2,3,16;
 1/10=4,18=20,19=15,26=3/3(2);
 2/9=110/2;
 99//99;
 2/9=110/2;
 3/5=1,6=6,7=101,11=2,25=1,30=1,70=2205,71=1,72=1,74=-5/1,2,3;
 4/5=5,16=3,69=1/1;
 5/5=2,8=3,13=1,38=5,53=1/2,8;
 7//1,2,3,16;
 1/18=20,19=15,26=3/3(-5);
 2/9=110/2;
 6/7=2,8=2,9=2,10=2,19=2,28=1/1;
 99/9=1/99;
 ----------------------------------
 GEYOCULIXLDCMW-UHFFFAOYSA-N_conf_0
 ----------------------------------
 Symbolic Z-matrix:
 Charge =  0 Multiplicity = 1
 N                    -2.10434   0.37456  -0.53955 
 C                    -0.69951   0.3198   -0.34585 
 C                     0.04653   1.50012  -0.27402 
 C                     1.40089   1.45718   0.06255 
 C                     2.00955   0.23758   0.35439 
 C                     1.26114  -0.94026   0.32963 
 C                    -0.10213  -0.90196   0.02988 
 N                    -0.83337  -2.09876  -0.09112 
 H                    -2.56492   0.40063   0.36789 
 H                    -2.36816   1.19752  -1.07466 
 H                    -0.41577   2.45946  -0.48631 
 H                     1.98168   2.37525   0.09469 
 H                     3.06806   0.20146   0.59785 
 H                     1.74746  -1.88839   0.53936 
 H                    -1.8288   -1.89424  -0.16448 
 H                    -0.5983   -2.79997   0.59977 
 

 GradGradGradGradGradGradGradGradGradGradGradGradGradGradGradGradGradGrad
 Berny optimization.
 Initialization pass.
                           ----------------------------
                           !    Initial Parameters    !
                           ! (Angstroms and Degrees)  !
 --------------------------                            --------------------------
 ! Name  Definition              Value          Derivative Info.                !
 --------------------------------------------------------------------------------
 ! R1    R(1,2)                  1.4192         calculate D2E/DX2 analytically  !
 ! R2    R(1,9)                  1.018          calculate D2E/DX2 analytically  !
 ! R3    R(1,10)                 1.0165         calculate D2E/DX2 analytically  !
 ! R4    R(2,3)                  1.3982         calculate D2E/DX2 analytically  !
 ! R5    R(2,7)                  1.4109         calculate D2E/DX2 analytically  !
 ! R6    R(3,4)                  1.3962         calculate D2E/DX2 analytically  !
 ! R7    R(3,11)                 1.0859         calculate D2E/DX2 analytically  !
 ! R8    R(4,5)                  1.3939         calculate D2E/DX2 analytically  !
 ! R9    R(4,12)                 1.0868         calculate D2E/DX2 analytically  !
 ! R10   R(5,6)                  1.3957         calculate D2E/DX2 analytically  !
 ! R11   R(5,13)                 1.0868         calculate D2E/DX2 analytically  !
 ! R12   R(6,7)                  1.3964         calculate D2E/DX2 analytically  !
 ! R13   R(6,14)                 1.086          calculate D2E/DX2 analytically  !
 ! R14   R(7,8)                  1.4077         calculate D2E/DX2 analytically  !
 ! R15   R(8,15)                 1.0189         calculate D2E/DX2 analytically  !
 ! R16   R(8,16)                 1.0121         calculate D2E/DX2 analytically  !
 ! A1    A(2,1,9)              109.0987         calculate D2E/DX2 analytically  !
 ! A2    A(2,1,10)             111.1009         calculate D2E/DX2 analytically  !
 ! A3    A(9,1,10)             109.3356         calculate D2E/DX2 analytically  !
 ! A4    A(1,2,3)              120.1744         calculate D2E/DX2 analytically  !
 ! A5    A(1,2,7)              119.2661         calculate D2E/DX2 analytically  !
 ! A6    A(3,2,7)              119.4329         calculate D2E/DX2 analytically  !
 ! A7    A(2,3,4)              120.2658         calculate D2E/DX2 analytically  !
 ! A8    A(2,3,11)             120.5706         calculate D2E/DX2 analytically  !
 ! A9    A(4,3,11)             119.1618         calculate D2E/DX2 analytically  !
 ! A10   A(3,4,5)              120.0616         calculate D2E/DX2 analytically  !
 ! A11   A(3,4,12)             119.9684         calculate D2E/DX2 analytically  !
 ! A12   A(5,4,12)             119.9698         calculate D2E/DX2 analytically  !
 ! A13   A(4,5,6)              120.0332         calculate D2E/DX2 analytically  !
 ! A14   A(4,5,13)             120.0848         calculate D2E/DX2 analytically  !
 ! A15   A(6,5,13)             119.8816         calculate D2E/DX2 analytically  !
 ! A16   A(5,6,7)              120.2762         calculate D2E/DX2 analytically  !
 ! A17   A(5,6,14)             119.5508         calculate D2E/DX2 analytically  !
 ! A18   A(7,6,14)             120.1721         calculate D2E/DX2 analytically  !
 ! A19   A(2,7,6)              119.6221         calculate D2E/DX2 analytically  !
 ! A20   A(2,7,8)              119.5618         calculate D2E/DX2 analytically  !
 ! A21   A(6,7,8)              120.1502         calculate D2E/DX2 analytically  !
 ! A22   A(7,8,15)             110.062          calculate D2E/DX2 analytically  !
 ! A23   A(7,8,16)             114.1868         calculate D2E/DX2 analytically  !
 ! A24   A(15,8,16)            114.5282         calculate D2E/DX2 analytically  !
 ! D1    D(9,1,2,3)            -90.6689         calculate D2E/DX2 analytically  !
 ! D2    D(9,1,2,7)             77.1318         calculate D2E/DX2 analytically  !
 ! D3    D(10,1,2,3)            29.9408         calculate D2E/DX2 analytically  !
 ! D4    D(10,1,2,7)          -162.2586         calculate D2E/DX2 analytically  !
 ! D5    D(1,2,3,4)            172.9197         calculate D2E/DX2 analytically  !
 ! D6    D(1,2,3,11)            -7.5723         calculate D2E/DX2 analytically  !
 ! D7    D(7,2,3,4)              5.1393         calculate D2E/DX2 analytically  !
 ! D8    D(7,2,3,11)          -175.3526         calculate D2E/DX2 analytically  !
 ! D9    D(1,2,7,6)           -174.7421         calculate D2E/DX2 analytically  !
 ! D10   D(1,2,7,8)             14.5941         calculate D2E/DX2 analytically  !
 ! D11   D(3,2,7,6)             -6.85           calculate D2E/DX2 analytically  !
 ! D12   D(3,2,7,8)           -177.5138         calculate D2E/DX2 analytically  !
 ! D13   D(2,3,4,5)             -1.257          calculate D2E/DX2 analytically  !
 ! D14   D(2,3,4,12)           178.596          calculate D2E/DX2 analytically  !
 ! D15   D(11,3,4,5)           179.228          calculate D2E/DX2 analytically  !
 ! D16   D(11,3,4,12)           -0.919          calculate D2E/DX2 analytically  !
 ! D17   D(3,4,5,6)             -0.9378         calculate D2E/DX2 analytically  !
 ! D18   D(3,4,5,13)           178.8305         calculate D2E/DX2 analytically  !
 ! D19   D(12,4,5,6)           179.2092         calculate D2E/DX2 analytically  !
 ! D20   D(12,4,5,13)           -1.0225         calculate D2E/DX2 analytically  !
 ! D21   D(4,5,6,7)             -0.8202         calculate D2E/DX2 analytically  !
 ! D22   D(4,5,6,14)           178.817          calculate D2E/DX2 analytically  !
 ! D23   D(13,5,6,7)           179.411          calculate D2E/DX2 analytically  !
 ! D24   D(13,5,6,14)           -0.9518         calculate D2E/DX2 analytically  !
 ! D25   D(5,6,7,2)              4.717          calculate D2E/DX2 analytically  !
 ! D26   D(5,6,7,8)            175.325          calculate D2E/DX2 analytically  !
 ! D27   D(14,6,7,2)          -174.9179         calculate D2E/DX2 analytically  !
 ! D28   D(14,6,7,8)            -4.3099         calculate D2E/DX2 analytically  !
 ! D29   D(2,7,8,15)           -18.2646         calculate D2E/DX2 analytically  !
 ! D30   D(2,7,8,16)          -148.6944         calculate D2E/DX2 analytically  !
 ! D31   D(6,7,8,15)           171.1217         calculate D2E/DX2 analytically  !
 ! D32   D(6,7,8,16)            40.6919         calculate D2E/DX2 analytically  !
 --------------------------------------------------------------------------------
 Trust Radius=3.00D-01 FncErr=1.00D-07 GrdErr=1.00D-06 EigMax=2.50D+02 EigMin=1.00D-04
 Number of steps in this run=     82 maximum allowed number of steps=    100.
 GradGradGradGradGradGradGradGradGradGradGradGradGradGradGradGradGradGrad

                          Input orientation:                          
 ---------------------------------------------------------------------
 Center     Atomic      Atomic             Coordinates (Angstroms)
 Number     Number       Type             X           Y           Z
 ---------------------------------------------------------------------
      1          7           0       -2.104339    0.374555   -0.539553
      2          6           0       -0.699512    0.319805   -0.345851
      3          6           0        0.046530    1.500122   -0.274018
      4          6           0        1.400891    1.457184    0.062548
      5          6           0        2.009547    0.237582    0.354385
      6          6           0        1.261137   -0.940262    0.329625
      7          6           0       -0.102131   -0.901959    0.029877
      8          7           0       -0.833366   -2.098757   -0.091123
      9          1           0       -2.564925    0.400634    0.367894
     10          1           0       -2.368163    1.197524   -1.074663
     11          1           0       -0.415771    2.459457   -0.486309
     12          1           0        1.981682    2.375251    0.094691
     13          1           0        3.068060    0.201462    0.597845
     14          1           0        1.747464   -1.888386    0.539360
     15          1           0       -1.828804   -1.894243   -0.164480
     16          1           0       -0.598300   -2.799969    0.599770
 ---------------------------------------------------------------------
                    Distance matrix (angstroms):
                    1          2          3          4          5
     1  N    0.000000
     2  C    1.419174   0.000000
     3  C    2.442058   1.398173   0.000000
     4  C    3.717694   2.423245   1.396214   0.000000
     5  C    4.212118   2.799302   2.417092   1.393936   0.000000
     6  C    3.716268   2.426558   2.791976   2.416322   1.395725
     7  C    2.441838   1.410937   2.425788   2.797445   2.421372
     8  N    2.816688   2.435619   3.709393   4.202408   3.706631
     9  H    1.017979   1.998932   2.905275   4.115486   4.577396
    10  H    1.016476   2.021375   2.561902   3.945434   4.704042
    11  H    2.683451   2.162949   1.085870   2.146173   3.394946
    12  H    4.593541   3.407014   2.155600   1.086830   2.153566
    13  H    5.298806   3.885765   3.402397   2.154723   1.086751
    14  H    4.595796   3.412829   3.877725   3.397102   2.150034
    15  H    2.316041   2.492028   3.879510   4.659886   4.421181
    16  H    3.693753   3.261507   4.435098   4.733785   4.010959
                    6          7          8          9         10
     6  C    0.000000
     7  C    1.396359   0.000000
     8  N    2.430243   1.407718   0.000000
     9  H    4.054407   2.806485   3.075052   0.000000
    10  H    4.440043   3.280662   3.766752   1.659735   0.000000
    11  H    3.877610   3.415250   4.594330   3.096332   2.398014
    12  H    3.401031   3.884146   5.289213   4.964412   4.655705
    13  H    2.154170   3.404444   4.581137   5.641193   5.774249
    14  H    1.086021   2.157224   2.665042   4.885255   5.391318
    15  H    3.271385   2.000950   1.018874   2.468149   3.267778
    16  H    2.643671   2.042890   1.012070   3.763673   4.681463
                   11         12         13         14         15
    11  H    0.000000
    12  H    2.468286   0.000000
    13  H    4.290805   2.481681   0.000000
    14  H    4.963398   4.293157   2.472825   0.000000
    15  H    4.588566   5.728487   5.380744   3.644876   0.000000
    16  H    5.373494   5.804681   4.738227   2.517388   1.708378
                   16
    16  H    0.000000
 Stoichiometry    C6H8N2
 Framework group  C1[X(C6H8N2)]
 Deg. of freedom    42
 Full point group                 C1      NOp   1
 Largest Abelian subgroup         C1      NOp   1
 Largest concise Abelian subgroup C1      NOp   1
                         Standard orientation:                         
 ---------------------------------------------------------------------
 Center     Atomic      Atomic             Coordinates (Angstroms)
 Number     Number       Type             X           Y           Z
 ---------------------------------------------------------------------
      1          7           0        1.778198   -1.346949    0.009336
      2          6           0        0.531374   -0.676978   -0.093745
      3          6           0       -0.662940   -1.401170   -0.030109
      4          6           0       -1.888649   -0.734233    0.017282
      5          6           0       -1.925457    0.659178    0.027749
      6          6           0       -0.736207    1.389547    0.010629
      7          6           0        0.494713    0.730347    0.000243
      8          7           0        1.689535    1.465544   -0.116183
      9          1           0        2.058233   -1.380857    0.987452
     10          1           0        1.716329   -2.293469   -0.356037
     11          1           0       -0.650817   -2.486960   -0.024901
     12          1           0       -2.814996   -1.302025    0.043622
     13          1           0       -2.879762    1.178810    0.045443
     14          1           0       -0.774282    2.474843   -0.000552
     15          1           0        2.491309    0.856371    0.039289
     16          1           0        1.702855    2.322983    0.421317
 ---------------------------------------------------------------------
 Rotational constants (GHZ):           3.2336945           2.2457293           1.3364288
 Standard basis: 6-31G(d,p) (6D, 7F)
 There are   160 symmetry adapted cartesian basis functions of A   symmetry.
 There are   160 symmetry adapted basis functions of A   symmetry.
   160 basis functions,   280 primitive gaussians,   160 cartesian basis functions
    29 alpha electrons       29 beta electrons
       nuclear repulsion energy       350.1978924196 Hartrees.
 NAtoms=   16 NActive=   16 NUniq=   16 SFac= 1.00D+00 NAtFMM=   60 NAOKFM=F Big=F
 Integral buffers will be    131072 words long.
 Raffenetti 2 integral format.
 Two-electron integral symmetry is turned on.
 Force inversion solution in PCM.
 ------------------------------------------------------------------------------
 Polarizable Continuum Model (PCM)
 =================================
 Model                : PCM.
 Atomic radii         : UFF (Universal Force Field).
 Polarization charges : Total charges.
 Charge compensation  : None.
 Solution method      : Matrix inversion.
 Cavity type          : Scaled VdW (van der Waals Surface) (Alpha=1.100).
 Cavity algorithm     : GePol (No added spheres)
                        Default sphere list used, NSphG=   16.
                        Lebedev-Laikov grids with approx.  5.0 points / Ang**2.
                        Smoothing algorithm: York/Karplus (Gamma=1.0000).
                        Polarization charges: spherical gaussians, with
                                              point-specific exponents (IZeta= 3).
                        Self-potential: point-specific (ISelfS= 7).
                        Self-field    : sphere-specific E.n sum rule (ISelfD= 2).
 1st derivatives      : Analytical E(r).r(x)/FMM algorithm (CHGder, D1EAlg=3).
                        Cavity 1st derivative terms included.
 2nd derivatives      : Analytical E(r).r(xy)/FMM algorithm (CHGder, D2EAlg=3).
                        Cavity 2nd derivative terms included.
 Solvent              : Water, Eps=  78.355300 Eps(inf)=   1.777849
 ------------------------------------------------------------------------------
 Spheres list:
 ISph  on   Nord     Re0    Alpha      Xe            Ye            Ze
    1   N      1    1.8300  1.100      1.778198     -1.346949      0.009336
    2   C      2    1.9255  1.100      0.531374     -0.676978     -0.093745
    3   C      3    1.9255  1.100     -0.662940     -1.401170     -0.030109
    4   C      4    1.9255  1.100     -1.888649     -0.734233      0.017282
    5   C      5    1.9255  1.100     -1.925457      0.659178      0.027749
    6   C      6    1.9255  1.100     -0.736207      1.389547      0.010629
    7   C      7    1.9255  1.100      0.494713      0.730347      0.000243
    8   N      8    1.8300  1.100      1.689535      1.465544     -0.116183
    9   H      9    1.4430  1.100      2.058233     -1.380857      0.987452
   10   H     10    1.4430  1.100      1.716329     -2.293469     -0.356037
   11   H     11    1.4430  1.100     -0.650817     -2.486960     -0.024901
   12   H     12    1.4430  1.100     -2.814996     -1.302025      0.043622
   13   H     13    1.4430  1.100     -2.879762      1.178810      0.045443
   14   H     14    1.4430  1.100     -0.774282      2.474843     -0.000552
   15   H     15    1.4430  1.100      2.491309      0.856371      0.039289
   16   H     16    1.4430  1.100      1.702855      2.322983      0.421317
 ------------------------------------------------------------------------------
 One-electron integrals computed using PRISM.
 NBasis=   160 RedAO= T EigKep=  4.49D-04  NBF=   160
 NBsUse=   160 1.00D-06 EigRej= -1.00D+00 NBFU=   160
 ExpMin= 1.61D-01 ExpMax= 4.17D+03 ExpMxC= 6.27D+02 IAcc=3 IRadAn=         5 AccDes= 0.00D+00
 Harris functional with IExCor=  402 and IRadAn=       5 diagonalized for initial guess.
 HarFok:  IExCor=  402 AccDes= 0.00D+00 IRadAn=         5 IDoV= 1 UseB2=F ITyADJ=14
 ICtDFT=  3500011 ScaDFX=  1.000000  1.000000  1.000000  1.000000
 FoFCou: FMM=F IPFlag=           0 FMFlag=      100000 FMFlg1=           0
         NFxFlg=           0 DoJE=T BraDBF=F KetDBF=T FulRan=T
         wScrn=  0.000000 ICntrl=       500 IOpCl=  0 I1Cent=   200000004 NGrid=           0
         NMat0=    1 NMatS0=      1 NMatT0=    0 NMatD0=    1 NMtDS0=    0 NMtDT0=    0
 Petite list used in FoFCou.
 Keep R1 ints in memory in canonical form, NReq=85041267.
 Requested convergence on RMS density matrix=1.00D-08 within  32 cycles.
 Requested convergence on MAX density matrix=1.00D-06.
 Requested convergence on             energy=1.00D-06.
 No special actions if energy rises.
 Inv3:  Mode=1 IEnd=     5156163.
 Iteration    1 A*A^-1 deviation from unit magnitude is 2.66D-15 for    438.
 Iteration    1 A*A^-1 deviation from orthogonality  is 2.44D-15 for   1088    411.
 Iteration    1 A^-1*A deviation from unit magnitude is 2.66D-15 for    382.
 Iteration    1 A^-1*A deviation from orthogonality  is 2.30D-15 for    983    227.
 Error on total polarization charges =  0.00728
 SCF Done:  E(RB3LYP) =  -342.974292860     A.U. after   12 cycles
            NFock= 12  Conv=0.52D-08     -V/T= 2.0096
 QCSCF skips out because SCF is already converged.
 DoSCS=F DFT=T ScalE2(SS,OS)=  1.000000  1.000000
 Range of M.O.s used for correlation:     1   160
 NBasis=   160 NAE=    29 NBE=    29 NFC=     0 NFV=     0
 NROrb=    160 NOA=    29 NOB=    29 NVA=   131 NVB=   131
 Symmetrizing basis deriv contribution to polar:
 IMax=3 JMax=2 DiffMx= 0.00D+00
 G2DrvN: will do    17 centers at a time, making    1 passes.
 Calling FoFCou, ICntrl=  3107 FMM=F I1Cent=   0 AccDes= 0.00D+00.
 NEqPCM:  Using equilibrium solvation (IEInf=0, Eps=  78.3553, EpsInf=   1.7778)
 G2PCM: DoFxE=T DoFxN=T DoGrad=T DoDP/DQ/DG/TGxP=FFFF NFrqRd=   0 IEInf=0 SqF1=F DoCFld=F IF1Alg=4.
 End of G2Drv F.D. properties file   721 does not exist.
 End of G2Drv F.D. properties file   722 does not exist.
 End of G2Drv F.D. properties file   788 does not exist.
          IDoAtm=1111111111111111
 NEqPCM:  Using equilibrium solvation (IEInf=0, Eps=  78.3553, EpsInf=   1.7778)
          Differentiating once with respect to nuclear coordinates.
 Keep R1 ints in memory in canonical form, NReq=88269115.
          There are    51 degrees of freedom in the 1st order CPHF.  IDoFFX=6 NUNeed=     0.
     45 vectors produced by pass  0 Test12= 7.45D-15 1.96D-09 XBig12= 1.25D-01 1.53D-01.
 AX will form    45 AO Fock derivatives at one time.
     45 vectors produced by pass  1 Test12= 7.45D-15 1.96D-09 XBig12= 2.89D-02 4.34D-02.
     45 vectors produced by pass  2 Test12= 7.45D-15 1.96D-09 XBig12= 1.92D-04 2.21D-03.
     45 vectors produced by pass  3 Test12= 7.45D-15 1.96D-09 XBig12= 4.94D-07 1.16D-04.
     45 vectors produced by pass  4 Test12= 7.45D-15 1.96D-09 XBig12= 5.75D-10 3.40D-06.
     26 vectors produced by pass  5 Test12= 7.45D-15 1.96D-09 XBig12= 5.54D-13 8.28D-08.
      4 vectors produced by pass  6 Test12= 7.45D-15 1.96D-09 XBig12= 5.50D-16 2.65D-09.
 InvSVY:  IOpt=1 It=  1 EMax= 3.33D-16
 Solved reduced A of dimension   255 with    51 vectors.
 End of Minotr F.D. properties file   721 does not exist.
 End of Minotr F.D. properties file   722 does not exist.
 End of Minotr F.D. properties file   788 does not exist.

 **********************************************************************

            Population analysis using the SCF density.

 **********************************************************************

 Orbital symmetries:
       Occupied  (A) (A) (A) (A) (A) (A) (A) (A) (A) (A) (A) (A)
                 (A) (A) (A) (A) (A) (A) (A) (A) (A) (A) (A) (A)
                 (A) (A) (A) (A) (A)
       Virtual   (A) (A) (A) (A) (A) (A) (A) (A) (A) (A) (A) (A)
                 (A) (A) (A) (A) (A) (A) (A) (A) (A) (A) (A) (A)
                 (A) (A) (A) (A) (A) (A) (A) (A) (A) (A) (A) (A)
                 (A) (A) (A) (A) (A) (A) (A) (A) (A) (A) (A) (A)
                 (A) (A) (A) (A) (A) (A) (A) (A) (A) (A) (A) (A)
                 (A) (A) (A) (A) (A) (A) (A) (A) (A) (A) (A) (A)
                 (A) (A) (A) (A) (A) (A) (A) (A) (A) (A) (A) (A)
                 (A) (A) (A) (A) (A) (A) (A) (A) (A) (A) (A) (A)
                 (A) (A) (A) (A) (A) (A) (A) (A) (A) (A) (A) (A)
                 (A) (A) (A) (A) (A) (A) (A) (A) (A) (A) (A) (A)
                 (A) (A) (A) (A) (A) (A) (A) (A) (A) (A) (A)
 The electronic state is 1-A.
 Alpha  occ. eigenvalues --  -14.32901 -14.32531 -10.21947 -10.21135 -10.18153
 Alpha  occ. eigenvalues --  -10.18125 -10.17845 -10.17569  -0.92291  -0.88034
 Alpha  occ. eigenvalues --   -0.82201  -0.72716  -0.70879  -0.60821  -0.58299
 Alpha  occ. eigenvalues --   -0.51253  -0.50642  -0.48553  -0.47148  -0.42960
 Alpha  occ. eigenvalues --   -0.42178  -0.41738  -0.37316  -0.35890  -0.34368
 Alpha  occ. eigenvalues --   -0.30421  -0.27916  -0.22790  -0.19505
 Alpha virt. eigenvalues --    0.00389   0.01885   0.08614   0.10623   0.11558
 Alpha virt. eigenvalues --    0.14002   0.16326   0.17858   0.18215   0.19332
 Alpha virt. eigenvalues --    0.20509   0.26519   0.27237   0.33538   0.34603
 Alpha virt. eigenvalues --    0.34760   0.37114   0.51163   0.52437   0.53900
 Alpha virt. eigenvalues --    0.54613   0.55413   0.58450   0.59877   0.60188
 Alpha virt. eigenvalues --    0.61318   0.62024   0.62305   0.62991   0.65950
 Alpha virt. eigenvalues --    0.67149   0.69978   0.71980   0.74064   0.77247
 Alpha virt. eigenvalues --    0.81765   0.82734   0.83230   0.84537   0.85226
 Alpha virt. eigenvalues --    0.86600   0.87743   0.89429   0.90948   0.92857
 Alpha virt. eigenvalues --    0.96395   0.96736   1.00564   1.04071   1.07250
 Alpha virt. eigenvalues --    1.10585   1.11739   1.16790   1.18583   1.25301
 Alpha virt. eigenvalues --    1.28898   1.33945   1.34841   1.37878   1.38233
 Alpha virt. eigenvalues --    1.42403   1.43081   1.46100   1.57173   1.69964
 Alpha virt. eigenvalues --    1.75770   1.75927   1.79930   1.82734   1.84534
 Alpha virt. eigenvalues --    1.86359   1.89226   1.90534   1.94071   1.98147
 Alpha virt. eigenvalues --    1.98440   2.00447   2.00536   2.03674   2.09658
 Alpha virt. eigenvalues --    2.10636   2.14485   2.19936   2.22084   2.26007
 Alpha virt. eigenvalues --    2.27911   2.28197   2.31479   2.36110   2.38708
 Alpha virt. eigenvalues --    2.39038   2.41712   2.43404   2.43780   2.46358
 Alpha virt. eigenvalues --    2.48033   2.49102   2.51919   2.55262   2.59063
 Alpha virt. eigenvalues --    2.60185   2.65059   2.66963   2.71239   2.72478
 Alpha virt. eigenvalues --    2.74952   2.79157   2.86072   2.92288   2.95679
 Alpha virt. eigenvalues --    2.98211   3.07073   3.14823   3.18897   3.24629
 Alpha virt. eigenvalues --    3.27817   3.30828   3.34517   3.37779   3.45285
 Alpha virt. eigenvalues --    3.47776   3.52625   3.86494   4.02716   4.13997
 Alpha virt. eigenvalues --    4.14738   4.17250   4.17729   4.44432   4.45561
 Alpha virt. eigenvalues --    4.82864
          Condensed to atoms (all electrons):
               1          2          3          4          5          6
     1  N    6.836778   0.289037  -0.086973   0.008507   0.000011   0.005511
     2  C    0.289037   4.784231   0.526954  -0.022818  -0.040855  -0.039241
     3  C   -0.086973   0.526954   4.974931   0.483663  -0.033103  -0.050388
     4  C    0.008507  -0.022818   0.483663   4.899520   0.543370  -0.037740
     5  C    0.000011  -0.040855  -0.033103   0.543370   4.835048   0.528969
     6  C    0.005511  -0.039241  -0.050388  -0.037740   0.528969   4.949960
     7  C   -0.062348   0.526784  -0.029126  -0.041613  -0.021016   0.527972
     8  N   -0.015907  -0.073103   0.005367   0.000263   0.005048  -0.076905
     9  H    0.351275  -0.046344  -0.000456   0.000162   0.000005  -0.000094
    10  H    0.349281  -0.037284  -0.004402   0.000195   0.000006  -0.000173
    11  H   -0.007497  -0.041166   0.366106  -0.039228   0.004876   0.000607
    12  H   -0.000155   0.003550  -0.034822   0.364617  -0.041606   0.004634
    13  H    0.000004   0.000870   0.004784  -0.041223   0.368298  -0.038342
    14  H   -0.000106   0.004911   0.000538   0.004811  -0.038625   0.364516
    15  H    0.027800  -0.018342   0.000462  -0.000070  -0.000154   0.006434
    16  H    0.000210   0.005270  -0.000192   0.000015  -0.000139  -0.008756
               7          8          9         10         11         12
     1  N   -0.062348  -0.015907   0.351275   0.349281  -0.007497  -0.000155
     2  C    0.526784  -0.073103  -0.046344  -0.037284  -0.041166   0.003550
     3  C   -0.029126   0.005367  -0.000456  -0.004402   0.366106  -0.034822
     4  C   -0.041613   0.000263   0.000162   0.000195  -0.039228   0.364617
     5  C   -0.021016   0.005048   0.000005   0.000006   0.004876  -0.041606
     6  C    0.527972  -0.076905  -0.000094  -0.000173   0.000607   0.004634
     7  C    4.664925   0.292539  -0.006932   0.005421   0.004455   0.000944
     8  N    0.292539   6.860951   0.002250   0.000253  -0.000112   0.000006
     9  H   -0.006932   0.002250   0.449872  -0.027564   0.000182   0.000002
    10  H    0.005421   0.000253  -0.027564   0.438541   0.005053  -0.000011
    11  H    0.004455  -0.000112   0.000182   0.005053   0.620674  -0.006221
    12  H    0.000944   0.000006   0.000002  -0.000011  -0.006221   0.630440
    13  H    0.003975  -0.000116  -0.000000  -0.000000  -0.000195  -0.005991
    14  H   -0.040635  -0.006876   0.000002   0.000004   0.000016  -0.000200
    15  H   -0.029680   0.335670  -0.001020  -0.000552  -0.000009   0.000000
    16  H   -0.023063   0.342451   0.000099   0.000000   0.000003  -0.000000
              13         14         15         16
     1  N    0.000004  -0.000106   0.027800   0.000210
     2  C    0.000870   0.004911  -0.018342   0.005270
     3  C    0.004784   0.000538   0.000462  -0.000192
     4  C   -0.041223   0.004811  -0.000070   0.000015
     5  C    0.368298  -0.038625  -0.000154  -0.000139
     6  C   -0.038342   0.364516   0.006434  -0.008756
     7  C    0.003975  -0.040635  -0.029680  -0.023063
     8  N   -0.000116  -0.006876   0.335670   0.342451
     9  H   -0.000000   0.000002  -0.001020   0.000099
    10  H   -0.000000   0.000004  -0.000552   0.000000
    11  H   -0.000195   0.000016  -0.000009   0.000003
    12  H   -0.005991  -0.000200   0.000000  -0.000000
    13  H    0.623868  -0.006156   0.000003  -0.000005
    14  H   -0.006156   0.623694  -0.000103   0.003577
    15  H    0.000003  -0.000103   0.434659  -0.027041
    16  H   -0.000005   0.003577  -0.027041   0.432302
 Mulliken charges:
               1
     1  N   -0.695426
     2  C    0.177546
     3  C   -0.123343
     4  C   -0.122432
     5  C   -0.110133
     6  C   -0.136963
     7  C    0.227397
     8  N   -0.671778
     9  H    0.278563
    10  H    0.271232
    11  H    0.092458
    12  H    0.084811
    13  H    0.090226
    14  H    0.090632
    15  H    0.271943
    16  H    0.275268
 Sum of Mulliken charges =  -0.00000
 Mulliken charges with hydrogens summed into heavy atoms:
               1
     1  N   -0.145632
     2  C    0.177546
     3  C   -0.030885
     4  C   -0.037621
     5  C   -0.019907
     6  C   -0.046331
     7  C    0.227397
     8  N   -0.124567
 APT charges:
               1
     1  N   -1.192324
     2  C   -0.103840
     3  C   -0.465603
     4  C   -0.522526
     5  C   -0.488600
     6  C   -0.490666
     7  C   -0.137441
     8  N   -1.096500
     9  H    0.526112
    10  H    0.642724
    11  H    0.500159
    12  H    0.584411
    13  H    0.595195
    14  H    0.498798
    15  H    0.487522
    16  H    0.662579
 Sum of APT charges =  -0.00000
 APT charges with hydrogens summed into heavy atoms:
               1
     1  N   -0.023489
     2  C   -0.103840
     3  C    0.034556
     4  C    0.061885
     5  C    0.106595
     6  C    0.008132
     7  C   -0.137441
     8  N    0.053601
 Electronic spatial extent (au):  <R**2>=            887.8427
 Charge=             -0.0000 electrons
 Dipole moment (field-independent basis, Debye):
    X=              1.0840    Y=             -0.8680    Z=              2.2736  Tot=              2.6641
 Quadrupole moment (field-independent basis, Debye-Ang):
   XX=            -43.6229   YY=            -37.4825   ZZ=            -49.7865
   XY=             -1.1015   XZ=              4.7542   YZ=              1.9382
 Traceless Quadrupole moment (field-independent basis, Debye-Ang):
   XX=              0.0078   YY=              6.1481   ZZ=             -6.1558
   XY=             -1.1015   XZ=              4.7542   YZ=              1.9382
 Octapole moment (field-independent basis, Debye-Ang**2):
  XXX=              6.5792  YYY=             -4.9045  ZZZ=              3.4356  XYY=             10.8835
  XXY=              0.9105  XXZ=             11.0512  XZZ=              7.7243  YZZ=             -2.9156
  YYZ=              5.5902  XYZ=              2.5421
 Hexadecapole moment (field-independent basis, Debye-Ang**3):
 XXXX=           -606.4690 YYYY=           -386.5833 ZZZZ=            -54.5412 XXXY=              6.1789
 XXXZ=             23.5718 YYYX=             -9.0000 YYYZ=             16.6180 ZZZX=              7.1144
 ZZZY=             -0.3522 XXYY=           -159.6866 XXZZ=           -121.7269 YYZZ=            -90.0018
 XXYZ=              2.3598 YYXZ=             11.3848 ZZXY=             -5.7621
 N-N= 3.501978924196D+02 E-N=-1.496982717307D+03  KE= 3.397086622841D+02
  Exact polarizability:   0.000   0.000   0.000   0.000   0.000   0.000
 Approx polarizability: 157.941   4.503 146.243  -2.254   3.046  47.556
 D2PCM: PCM CHGder 2nd derivatives, FixD1E=F FixD2E=F DoIter=F DoCFld=F I1PDM=0
 Calling FoFJK, ICntrl=    100147 FMM=F ISym2X=0 I1Cent= 0 IOpClX= 0 NMat=1 NMatS=1 NMatT=0.
 ***** Axes restored to original set *****
 -------------------------------------------------------------------
 Center     Atomic                   Forces (Hartrees/Bohr)
 Number     Number              X              Y              Z
 -------------------------------------------------------------------
      1        7          -0.007662672   -0.009560537   -0.008152825
      2        6           0.001695590    0.014923222    0.019634845
      3        6           0.011563307   -0.004518181   -0.002308549
      4        6           0.003803801    0.005178023   -0.002938270
      5        6          -0.000280394   -0.001644512    0.001150546
      6        6           0.007885381    0.005998624    0.002986311
      7        6          -0.002100040   -0.013711981   -0.015776023
      8        7          -0.004059327    0.011423382    0.000417199
      9        1          -0.004061154    0.001793167   -0.002589731
     10        1          -0.001255839   -0.000293732    0.004083388
     11        1          -0.002990938   -0.000789600   -0.000218503
     12        1          -0.000367646   -0.000050104   -0.000023006
     13        1          -0.000404424   -0.000356239    0.000334684
     14        1          -0.001774207   -0.001349368    0.000646092
     15        1           0.003549673   -0.006976517    0.002633600
     16        1          -0.003541111   -0.000065648    0.000120242
 -------------------------------------------------------------------
 Cartesian Forces:  Max     0.019634845 RMS     0.006254613
 FormGI is forming the generalized inverse of G from B-inverse, IUseBI=4.

 GradGradGradGradGradGradGradGradGradGradGradGradGradGradGradGradGradGrad
 Berny optimization.
 Internal  Forces:  Max     0.013447667 RMS     0.003555424
 Search for a local minimum.
 Step number   1 out of a maximum of   82
 All quantities printed in internal units (Hartrees-Bohrs-Radians)
 Mixed Optimization -- RFO/linear search
 Second derivative matrix not updated -- analytic derivatives used.
 ITU=  0
     Eigenvalues ---   -0.00056   0.00526   0.01644   0.01726   0.01798
     Eigenvalues ---    0.02025   0.02168   0.02369   0.02447   0.02685
     Eigenvalues ---    0.02784   0.03019   0.03599   0.10899   0.11423
     Eigenvalues ---    0.12233   0.12312   0.13219   0.14197   0.16047
     Eigenvalues ---    0.16692   0.18808   0.19138   0.19584   0.21734
     Eigenvalues ---    0.23027   0.32843   0.35556   0.35656   0.36036
     Eigenvalues ---    0.36078   0.37710   0.39242   0.43848   0.44133
     Eigenvalues ---    0.44870   0.45218   0.45439   0.46669   0.47251
     Eigenvalues ---    0.47760   0.51629
 RFO step:  Lambda=-7.21360472D-03 EMin=-5.59318335D-04
 Linear search not attempted -- first point.
 Iteration  1 RMS(Cart)=  0.07081480 RMS(Int)=  0.06967521
 Iteration  2 RMS(Cart)=  0.05629085 RMS(Int)=  0.02168536
 Iteration  3 RMS(Cart)=  0.02511611 RMS(Int)=  0.00185353
 Iteration  4 RMS(Cart)=  0.00105526 RMS(Int)=  0.00152318
 Iteration  5 RMS(Cart)=  0.00000158 RMS(Int)=  0.00152318
 Iteration  6 RMS(Cart)=  0.00000000 RMS(Int)=  0.00152318
 Variable       Old X    -DE/DX   Delta X   Delta X   Delta X     New X
                                 (Linear)    (Quad)   (Total)
    R1        2.68185   0.01345   0.00000  -0.00787  -0.00787   2.67398
    R2        1.92370  -0.00042   0.00000   0.00149   0.00149   1.92520
    R3        1.92086  -0.00206   0.00000  -0.00490  -0.00490   1.91597
    R4        2.64216   0.00360   0.00000  -0.00144  -0.00073   2.64144
    R5        2.66628   0.00177   0.00000   0.01228   0.01290   2.67918
    R6        2.63846   0.00170   0.00000   0.00414   0.00426   2.64272
    R7        2.05200   0.00062   0.00000   0.00320   0.00320   2.05519
    R8        2.63416   0.00164   0.00000   0.00008  -0.00054   2.63362
    R9        2.05381  -0.00024   0.00000  -0.00199  -0.00199   2.05182
   R10        2.63754   0.00040   0.00000   0.00237   0.00165   2.63918
   R11        2.05366  -0.00031   0.00000  -0.00125  -0.00125   2.05241
   R12        2.63874   0.00713   0.00000   0.00883   0.00871   2.64745
   R13        2.05228   0.00051   0.00000   0.00240   0.00240   2.05468
   R14        2.66020  -0.00189   0.00000  -0.01269  -0.01269   2.64751
   R15        1.92539  -0.00506   0.00000  -0.02009  -0.02009   1.90530
   R16        1.91254  -0.00069   0.00000  -0.00157  -0.00157   1.91097
    A1        1.90413   0.00690   0.00000   0.06445   0.06416   1.96829
    A2        1.93908   0.00058   0.00000   0.00339   0.00309   1.94217
    A3        1.90827  -0.00461   0.00000  -0.02336  -0.02388   1.88438
    A4        2.09744   0.01183   0.00000   0.04479   0.03765   2.13509
    A5        2.08159  -0.00869   0.00000  -0.00623  -0.01340   2.06819
    A6        2.08450  -0.00216   0.00000   0.00002  -0.00461   2.07989
    A7        2.09903   0.00493   0.00000   0.01864   0.01977   2.11881
    A8        2.10435  -0.00555   0.00000  -0.03215  -0.03272   2.07163
    A9        2.07977   0.00062   0.00000   0.01355   0.01298   2.09274
   A10        2.09547  -0.00304   0.00000  -0.01125  -0.01155   2.08392
   A11        2.09384   0.00123   0.00000  -0.00147  -0.00147   2.09238
   A12        2.09387   0.00181   0.00000   0.01278   0.01278   2.10665
   A13        2.09497   0.00027   0.00000  -0.00217  -0.00324   2.09173
   A14        2.09588   0.00029   0.00000   0.00711   0.00762   2.10350
   A15        2.09233  -0.00056   0.00000  -0.00497  -0.00446   2.08787
   A16        2.09921   0.00264   0.00000   0.01823   0.01768   2.11689
   A17        2.08656   0.00083   0.00000   0.00905   0.00929   2.09585
   A18        2.09740  -0.00347   0.00000  -0.02736  -0.02712   2.07028
   A19        2.08780  -0.00234   0.00000  -0.01313  -0.01313   2.07467
   A20        2.08675  -0.00128   0.00000   0.01617   0.01496   2.10171
   A21        2.09702   0.00400   0.00000   0.00742   0.00628   2.10330
   A22        1.92094   0.00769   0.00000   0.09447   0.09328   2.01422
   A23        1.99294   0.00092   0.00000   0.01596   0.01476   2.00770
   A24        1.99889  -0.00585   0.00000  -0.04660  -0.04831   1.95058
    D1       -1.58247  -0.00282   0.00000  -0.59582  -0.59679  -2.17926
    D2        1.34620   0.00211   0.00000  -0.38978  -0.38921   0.95699
    D3        0.52256  -0.00368   0.00000  -0.58063  -0.58120  -0.05864
    D4       -2.83195   0.00124   0.00000  -0.37459  -0.37362   3.07762
    D5        3.01802   0.00234   0.00000   0.13877   0.14062  -3.12455
    D6       -0.13216   0.00236   0.00000   0.14533   0.14678   0.01462
    D7        0.08970  -0.00180   0.00000  -0.06687  -0.06728   0.02241
    D8       -3.06048  -0.00178   0.00000  -0.06031  -0.06112  -3.12160
    D9       -3.04983  -0.00299   0.00000  -0.09294  -0.09043  -3.14025
   D10        0.25472  -0.00602   0.00000  -0.16644  -0.16395   0.09076
   D11       -0.11956   0.00363   0.00000   0.11710   0.11573  -0.00382
   D12       -3.09820   0.00060   0.00000   0.04359   0.04220  -3.05600
   D13       -0.02194  -0.00060   0.00000  -0.01332  -0.01304  -0.03498
   D14        3.11709   0.00036   0.00000   0.01301   0.01290   3.12999
   D15        3.12812  -0.00059   0.00000  -0.01956  -0.01905   3.10907
   D16       -0.01604   0.00038   0.00000   0.00676   0.00688  -0.00915
   D17       -0.01637   0.00152   0.00000   0.04523   0.04506   0.02869
   D18        3.12118   0.00107   0.00000   0.03521   0.03505  -3.12695
   D19        3.12779   0.00055   0.00000   0.01892   0.01893  -3.13647
   D20       -0.01785   0.00010   0.00000   0.00891   0.00892  -0.00893
   D21       -0.01431  -0.00008   0.00000   0.00372   0.00364  -0.01068
   D22        3.12095  -0.00032   0.00000  -0.01001  -0.00992   3.11103
   D23        3.13131   0.00037   0.00000   0.01369   0.01353  -3.13835
   D24       -0.01661   0.00013   0.00000  -0.00004  -0.00003  -0.01664
   D25        0.08233  -0.00235   0.00000  -0.08487  -0.08420  -0.00187
   D26        3.06000   0.00020   0.00000  -0.01011  -0.00979   3.05021
   D27       -3.05289  -0.00213   0.00000  -0.07119  -0.07097  -3.12386
   D28       -0.07522   0.00042   0.00000   0.00357   0.00345  -0.07177
   D29       -0.31878   0.00090   0.00000   0.06357   0.06461  -0.25416
   D30       -2.59521   0.00134   0.00000   0.02967   0.02959  -2.56561
   D31        2.98664  -0.00154   0.00000  -0.00839  -0.00831   2.97832
   D32        0.71021  -0.00111   0.00000  -0.04229  -0.04333   0.66688
         Item               Value     Threshold  Converged?
 Maximum Force            0.013448     0.000450     NO 
 RMS     Force            0.003555     0.000300     NO 
 Maximum Displacement     0.763834     0.001800     NO 
 RMS     Displacement     0.142481     0.001200     NO 
 Predicted change in Energy=-6.073759D-03
 GradGradGradGradGradGradGradGradGradGradGradGradGradGradGradGradGradGrad

                          Input orientation:                          
 ---------------------------------------------------------------------
 Center     Atomic      Atomic             Coordinates (Angstroms)
 Number     Number       Type             X           Y           Z
 ---------------------------------------------------------------------
      1          7           0       -2.079862    0.407306   -0.613602
      2          6           0       -0.702075    0.374889   -0.292824
      3          6           0        0.090576    1.526162   -0.283378
      4          6           0        1.455191    1.468757    0.017027
      5          6           0        2.030513    0.245116    0.354616
      6          6           0        1.250040   -0.913046    0.356206
      7          6           0       -0.113176   -0.872221    0.035756
      8          7           0       -0.856065   -2.055821   -0.064349
      9          1           0       -2.663760   -0.003569    0.113129
     10          1           0       -2.398663    1.356743   -0.771397
     11          1           0       -0.373213    2.481428   -0.518236
     12          1           0        2.050086    2.376999    0.006682
     13          1           0        3.085594    0.181880    0.604406
     14          1           0        1.701222   -1.873983    0.591228
     15          1           0       -1.853141   -1.934608   -0.152095
     16          1           0       -0.623266   -2.766033    0.616832
 ---------------------------------------------------------------------
                    Distance matrix (angstroms):
                    1          2          3          4          5
     1  N    0.000000
     2  C    1.415007   0.000000
     3  C    2.464080   1.397789   0.000000
     4  C    3.744459   2.438515   1.398468   0.000000
     5  C    4.225983   2.811238   2.410700   1.393650   0.000000
     6  C    3.711079   2.427092   2.775457   2.414563   1.396596
     7  C    2.434483   1.417763   2.428087   2.817855   2.438343
     8  N    2.804702   2.446276   3.711429   4.215588   3.715128
     9  H    1.018770   2.038685   3.175478   4.375242   4.707054
    10  H    1.013886   2.017790   2.542277   3.935270   4.703320
    11  H    2.687700   2.143937   1.087562   2.157561   3.397185
    12  H    4.617458   3.416510   2.155862   1.085776   2.160178
    13  H    5.311902   3.897270   3.400793   2.158537   1.086089
    14  H    4.577389   3.408051   3.862655   3.400610   2.157544
    15  H    2.397697   2.584286   3.971424   4.749375   4.482268
    16  H    3.702124   3.270945   4.443298   4.755334   4.022228
                    6          7          8          9         10
     6  C    0.000000
     7  C    1.400969   0.000000
     8  N    2.432793   1.401004   0.000000
     9  H    4.025428   2.695555   2.740619   0.000000
    10  H    4.442574   3.292905   3.811183   1.644114   0.000000
    11  H    3.862908   3.409031   4.585388   3.438086   2.330547
    12  H    3.403915   3.903586   5.301005   5.281930   4.630086
    13  H    2.151679   3.415644   4.581617   5.773285   5.774964
    14  H    1.087290   2.145721   2.646236   4.772850   5.394756
    15  H    3.306311   2.047299   1.008242   2.111009   3.393247
    16  H    2.647785   2.045572   1.011239   3.471101   4.698563
                   11         12         13         14         15
    11  H    0.000000
    12  H    2.481698   0.000000
    13  H    4.302510   2.499620   0.000000
    14  H    4.950131   4.305142   2.478554   0.000000
    15  H    4.671790   5.818106   5.426133   3.631763   0.000000
    16  H    5.374640   5.828369   4.737720   2.489911   1.671858
                   16
    16  H    0.000000
 Stoichiometry    C6H8N2
 Framework group  C1[X(C6H8N2)]
 Deg. of freedom    42
 Full point group                 C1      NOp   1
 Largest Abelian subgroup         C1      NOp   1
 Largest concise Abelian subgroup C1      NOp   1
                         Standard orientation:                         
 ---------------------------------------------------------------------
 Center     Atomic      Atomic             Coordinates (Angstroms)
 Number     Number       Type             X           Y           Z
 ---------------------------------------------------------------------
      1          7           0        1.759948   -1.375726   -0.047041
      2          6           0        0.514800   -0.703947   -0.023274
      3          6           0       -0.703842   -1.388482   -0.011404
      4          6           0       -1.923669   -0.704578   -0.008247
      5          6           0       -1.926784    0.688664    0.025356
      6          6           0       -0.717189    1.386758    0.020689
      7          6           0        0.511248    0.713688   -0.004540
      8          7           0        1.711246    1.427629   -0.119016
      9          1           0        2.373118   -1.096953    0.717288
     10          1           0        1.636688   -2.380915    0.001591
     11          1           0       -0.691905   -2.475969   -0.006858
     12          1           0       -2.855939   -1.261156   -0.009882
     13          1           0       -2.863607    1.237912    0.042062
     14          1           0       -0.715437    2.474043    0.018071
     15          1           0        2.551097    0.886763    0.017609
     16          1           0        1.740247    2.300335    0.391031
 ---------------------------------------------------------------------
 Rotational constants (GHZ):           3.2732751           2.2152065           1.3273012
 Standard basis: 6-31G(d,p) (6D, 7F)
 There are   160 symmetry adapted cartesian basis functions of A   symmetry.
 There are   160 symmetry adapted basis functions of A   symmetry.
   160 basis functions,   280 primitive gaussians,   160 cartesian basis functions
    29 alpha electrons       29 beta electrons
       nuclear repulsion energy       349.7959103940 Hartrees.
 NAtoms=   16 NActive=   16 NUniq=   16 SFac= 1.00D+00 NAtFMM=   60 NAOKFM=F Big=F
 Integral buffers will be    131072 words long.
 Raffenetti 2 integral format.
 Two-electron integral symmetry is turned on.
 ------------------------------------------------------------------------------
 Polarizable Continuum Model (PCM)
 =================================
 Model                : PCM.
 Atomic radii         : UFF (Universal Force Field).
 Polarization charges : Total charges.
 Charge compensation  : None.
 Solution method      : Matrix inversion.
 Cavity type          : Scaled VdW (van der Waals Surface) (Alpha=1.100).
 Cavity algorithm     : GePol (No added spheres)
                        Default sphere list used, NSphG=   16.
                        Lebedev-Laikov grids with approx.  5.0 points / Ang**2.
                        Smoothing algorithm: York/Karplus (Gamma=1.0000).
                        Polarization charges: spherical gaussians, with
                                              point-specific exponents (IZeta= 3).
                        Self-potential: point-specific (ISelfS= 7).
                        Self-field    : sphere-specific E.n sum rule (ISelfD= 2).
 1st derivatives      : Analytical E(r).r(x)/FMM algorithm (CHGder, D1EAlg=3).
                        Cavity 1st derivative terms included.
 Solvent              : Water, Eps=  78.355300 Eps(inf)=   1.777849
 ------------------------------------------------------------------------------
 Spheres list:
 ISph  on   Nord     Re0    Alpha      Xe            Ye            Ze
    1   N      1    1.8300  1.100      1.759948     -1.375726     -0.047041
    2   C      2    1.9255  1.100      0.514800     -0.703947     -0.023274
    3   C      3    1.9255  1.100     -0.703842     -1.388482     -0.011404
    4   C      4    1.9255  1.100     -1.923669     -0.704578     -0.008247
    5   C      5    1.9255  1.100     -1.926784      0.688664      0.025356
    6   C      6    1.9255  1.100     -0.717189      1.386758      0.020689
    7   C      7    1.9255  1.100      0.511248      0.713688     -0.004540
    8   N      8    1.8300  1.100      1.711246      1.427629     -0.119016
    9   H      9    1.4430  1.100      2.373118     -1.096953      0.717288
   10   H     10    1.4430  1.100      1.636688     -2.380915      0.001591
   11   H     11    1.4430  1.100     -0.691905     -2.475969     -0.006858
   12   H     12    1.4430  1.100     -2.855939     -1.261156     -0.009882
   13   H     13    1.4430  1.100     -2.863607      1.237912      0.042062
   14   H     14    1.4430  1.100     -0.715437      2.474043      0.018071
   15   H     15    1.4430  1.100      2.551097      0.886763      0.017609
   16   H     16    1.4430  1.100      1.740247      2.300335      0.391031
 ------------------------------------------------------------------------------
 One-electron integrals computed using PRISM.
 NBasis=   160 RedAO= T EigKep=  3.83D-04  NBF=   160
 NBsUse=   160 1.00D-06 EigRej= -1.00D+00 NBFU=   160
 Initial guess from the checkpoint file:  "GEYOCULIXLDCMW-UHFFFAOYSA-N_conf_0_0.chk"
 B after Tr=    -0.000000   -0.000000   -0.000000
         Rot=    0.999971    0.003268   -0.002268    0.006499 Ang=   0.87 deg.
 ExpMin= 1.61D-01 ExpMax= 4.17D+03 ExpMxC= 6.27D+02 IAcc=2 IRadAn=         4 AccDes= 0.00D+00
 Harris functional with IExCor=  402 and IRadAn=       4 diagonalized for initial guess.
 HarFok:  IExCor=  402 AccDes= 0.00D+00 IRadAn=         4 IDoV= 1 UseB2=F ITyADJ=14
 ICtDFT=  3500011 ScaDFX=  1.000000  1.000000  1.000000  1.000000
 FoFCou: FMM=F IPFlag=           0 FMFlag=      100000 FMFlg1=           0
         NFxFlg=           0 DoJE=T BraDBF=F KetDBF=T FulRan=T
         wScrn=  0.000000 ICntrl=       500 IOpCl=  0 I1Cent=   200000004 NGrid=           0
         NMat0=    1 NMatS0=      1 NMatT0=    0 NMatD0=    1 NMtDS0=    0 NMtDT0=    0
 Petite list used in FoFCou.
 Keep R1 ints in memory in canonical form, NReq=85041267.
 Requested convergence on RMS density matrix=1.00D-08 within  32 cycles.
 Requested convergence on MAX density matrix=1.00D-06.
 Requested convergence on             energy=1.00D-06.
 No special actions if energy rises.
 Inv3:  Mode=1 IEnd=     5046627.
 Iteration    1 A*A^-1 deviation from unit magnitude is 2.66D-15 for     43.
 Iteration    1 A*A^-1 deviation from orthogonality  is 2.21D-15 for    639    231.
 Iteration    1 A^-1*A deviation from unit magnitude is 2.44D-15 for    950.
 Iteration    1 A^-1*A deviation from orthogonality  is 4.58D-15 for    682    639.
 Error on total polarization charges =  0.00742
 SCF Done:  E(RB3LYP) =  -342.979554840     A.U. after   13 cycles
            NFock= 13  Conv=0.42D-08     -V/T= 2.0097
 QCSCF skips out because SCF is already converged.
 D1PCM: PCM CHGder 1st derivatives, ID1Alg=3 FixD1E=F DoIter=F DoCFld=F I1PDM=0.
 Calling FoFJK, ICntrl=      2127 FMM=F ISym2X=0 I1Cent= 0 IOpClX= 0 NMat=1 NMatS=1 NMatT=0.
 ***** Axes restored to original set *****
 -------------------------------------------------------------------
 Center     Atomic                   Forces (Hartrees/Bohr)
 Number     Number              X              Y              Z
 -------------------------------------------------------------------
      1        7          -0.000845927    0.000719311   -0.002181439
      2        6          -0.000833535   -0.001088065    0.006411369
      3        6           0.001047557    0.000202132   -0.002015018
      4        6          -0.000709117    0.000722634    0.000254024
      5        6           0.000210258   -0.000675921   -0.000219620
      6        6           0.000658136    0.000001933    0.000958450
      7        6           0.001546860   -0.001173385   -0.004117458
      8        7           0.000927511    0.000756239    0.000654445
      9        1           0.000908407    0.000991732   -0.000642806
     10        1          -0.001213899    0.000278569    0.000167600
     11        1          -0.000225115    0.000083935   -0.000003381
     12        1          -0.000081179    0.000049021    0.000047214
     13        1          -0.000000063   -0.000038519    0.000024152
     14        1          -0.000087226   -0.000018720    0.000307788
     15        1          -0.001391863   -0.000482777    0.000383985
     16        1           0.000089196   -0.000328120   -0.000029304
 -------------------------------------------------------------------
 Cartesian Forces:  Max     0.006411369 RMS     0.001339760

 GradGradGradGradGradGradGradGradGradGradGradGradGradGradGradGradGradGrad
 Berny optimization.
 Using GEDIIS/GDIIS optimizer.
 FormGI is forming the generalized inverse of G from B-inverse, IUseBI=4.
 Internal  Forces:  Max     0.002243501 RMS     0.000664898
 Search for a local minimum.
 Step number   2 out of a maximum of   82
 All quantities printed in internal units (Hartrees-Bohrs-Radians)
 Mixed Optimization -- En-DIIS/RFO-DIIS
 Update second derivatives using D2CorX and points    1    2
 DE= -5.26D-03 DEPred=-6.07D-03 R= 8.66D-01
 TightC=F SS=  1.41D+00  RLast= 1.06D+00 DXNew= 5.0454D-01 3.1903D+00
 Trust test= 8.66D-01 RLast= 1.06D+00 DXMaxT set to 5.05D-01
 ITU=  1  0
 Use linear search instead of GDIIS.
     Eigenvalues ---   -0.00127   0.00523   0.01633   0.01726   0.01780
     Eigenvalues ---    0.01886   0.02027   0.02325   0.02386   0.02687
     Eigenvalues ---    0.02763   0.02927   0.03582   0.10858   0.11374
     Eigenvalues ---    0.11755   0.12309   0.12968   0.14099   0.15936
     Eigenvalues ---    0.16536   0.18740   0.18993   0.19357   0.21624
     Eigenvalues ---    0.22866   0.32534   0.35507   0.35620   0.36035
     Eigenvalues ---    0.36079   0.37195   0.38762   0.43471   0.43995
     Eigenvalues ---    0.44786   0.45217   0.45254   0.46670   0.47227
     Eigenvalues ---    0.47811   0.50891
 RFO step:  Lambda=-1.52488583D-03 EMin=-1.26564139D-03
 Quartic linear search produced a step of  0.07468.
 Iteration  1 RMS(Cart)=  0.06121094 RMS(Int)=  0.05943038
 Iteration  2 RMS(Cart)=  0.05675642 RMS(Int)=  0.01408852
 Iteration  3 RMS(Cart)=  0.01597546 RMS(Int)=  0.00077173
 Iteration  4 RMS(Cart)=  0.00049820 RMS(Int)=  0.00058100
 Iteration  5 RMS(Cart)=  0.00000064 RMS(Int)=  0.00058100
 Variable       Old X    -DE/DX   Delta X   Delta X   Delta X     New X
                                 (Linear)    (Quad)   (Total)
    R1        2.67398   0.00177  -0.00059   0.04817   0.04759   2.72156
    R2        1.92520  -0.00138   0.00011  -0.00190  -0.00179   1.92341
    R3        1.91597   0.00061  -0.00037   0.00488   0.00452   1.92048
    R4        2.64144   0.00048  -0.00005  -0.00136  -0.00126   2.64018
    R5        2.67918   0.00135   0.00096   0.00301   0.00417   2.68336
    R6        2.64272  -0.00044   0.00032  -0.00115  -0.00088   2.64184
    R7        2.05519   0.00017   0.00024   0.00212   0.00236   2.05755
    R8        2.63362   0.00071  -0.00004   0.00712   0.00687   2.64048
    R9        2.05182  -0.00000  -0.00015  -0.00143  -0.00158   2.05024
   R10        2.63918  -0.00007   0.00012  -0.00563  -0.00566   2.63353
   R11        2.05241   0.00001  -0.00009   0.00025   0.00016   2.05257
   R12        2.64745   0.00073   0.00065   0.01599   0.01670   2.66415
   R13        2.05468   0.00005   0.00018   0.00107   0.00125   2.05593
   R14        2.64751   0.00017  -0.00095  -0.02342  -0.02437   2.62314
   R15        1.90530   0.00128  -0.00150   0.00056  -0.00094   1.90436
   R16        1.91097   0.00023  -0.00012  -0.00028  -0.00040   1.91057
    A1        1.96829  -0.00077   0.00479  -0.02010  -0.01580   1.95249
    A2        1.94217   0.00152   0.00023  -0.00848  -0.00876   1.93341
    A3        1.88438  -0.00070  -0.00178  -0.05282  -0.05559   1.82879
    A4        2.13509  -0.00197   0.00281   0.01870   0.01932   2.15441
    A5        2.06819   0.00224  -0.00100  -0.02026  -0.02322   2.04497
    A6        2.07989  -0.00027  -0.00034   0.00195   0.00012   2.08001
    A7        2.11881   0.00028   0.00148   0.01112   0.01272   2.13152
    A8        2.07163  -0.00031  -0.00244  -0.02221  -0.02475   2.04688
    A9        2.09274   0.00003   0.00097   0.01112   0.01199   2.10473
   A10        2.08392   0.00007  -0.00086  -0.01328  -0.01438   2.06954
   A11        2.09238  -0.00012  -0.00011   0.00671   0.00670   2.09908
   A12        2.10665   0.00006   0.00095   0.00670   0.00776   2.11441
   A13        2.09173   0.00012  -0.00024   0.00894   0.00838   2.10011
   A14        2.10350  -0.00002   0.00057  -0.00207  -0.00135   2.10215
   A15        2.08787  -0.00010  -0.00033  -0.00678  -0.00697   2.08090
   A16        2.11689  -0.00001   0.00132   0.00075   0.00204   2.11893
   A17        2.09585   0.00004   0.00069   0.00659   0.00730   2.10314
   A18        2.07028  -0.00004  -0.00203  -0.00725  -0.00927   2.06101
   A19        2.07467  -0.00018  -0.00098  -0.00891  -0.01070   2.06397
   A20        2.10171   0.00070   0.00112  -0.00126  -0.00141   2.10030
   A21        2.10330  -0.00046   0.00047   0.01640   0.01561   2.11891
   A22        2.01422   0.00085   0.00697   0.00498   0.01181   2.02603
   A23        2.00770  -0.00007   0.00110   0.00891   0.00987   2.01757
   A24        1.95058  -0.00050  -0.00361  -0.00650  -0.01030   1.94028
    D1       -2.17926  -0.00041  -0.04457   0.48293   0.43793  -1.74134
    D2        0.95699   0.00081  -0.02907   0.56716   0.53773   1.49472
    D3       -0.05864  -0.00076  -0.04340   0.39380   0.35075   0.29212
    D4        3.07762   0.00047  -0.02790   0.47802   0.45055  -2.75502
    D5       -3.12455   0.00050   0.01050   0.02661   0.03826  -3.08629
    D6        0.01462   0.00074   0.01096   0.03967   0.05146   0.06608
    D7        0.02241  -0.00074  -0.00502  -0.05809  -0.06337  -0.04096
    D8       -3.12160  -0.00050  -0.00456  -0.04503  -0.05017   3.11141
    D9       -3.14025  -0.00040  -0.00675  -0.01245  -0.01837   3.12456
   D10        0.09076  -0.00111  -0.01224  -0.09254  -0.10327  -0.01251
   D11       -0.00382   0.00078   0.00864   0.06911   0.07706   0.07323
   D12       -3.05600   0.00008   0.00315  -0.01099  -0.00784  -3.06384
   D13       -0.03498   0.00035  -0.00097   0.02359   0.02274  -0.01224
   D14        3.12999   0.00027   0.00096   0.01724   0.01825  -3.13495
   D15        3.10907   0.00011  -0.00142   0.01042   0.00916   3.11822
   D16       -0.00915   0.00003   0.00051   0.00407   0.00467  -0.00449
   D17        0.02869  -0.00000   0.00337  -0.00024   0.00306   0.03175
   D18       -3.12695   0.00004   0.00262   0.00675   0.00942  -3.11753
   D19       -3.13647   0.00007   0.00141   0.00616   0.00757  -3.12889
   D20       -0.00893   0.00011   0.00067   0.01314   0.01393   0.00501
   D21       -0.01068   0.00006   0.00027   0.01269   0.01306   0.00239
   D22        3.11103   0.00015  -0.00074   0.01767   0.01723   3.12825
   D23       -3.13835   0.00002   0.00101   0.00573   0.00674  -3.13160
   D24       -0.01664   0.00011  -0.00000   0.01072   0.01090  -0.00574
   D25       -0.00187  -0.00045  -0.00629  -0.04736  -0.05331  -0.05518
   D26        3.05021   0.00032  -0.00073   0.03187   0.03163   3.08184
   D27       -3.12386  -0.00054  -0.00530  -0.05243  -0.05755   3.10177
   D28       -0.07177   0.00023   0.00026   0.02681   0.02738  -0.04439
   D29       -0.25416   0.00008   0.00483  -0.04723  -0.04200  -0.29617
   D30       -2.56561   0.00003   0.00221  -0.05210  -0.04961  -2.61522
   D31        2.97832  -0.00065  -0.00062  -0.12733  -0.12823   2.85009
   D32        0.66688  -0.00071  -0.00324  -0.13220  -0.13584   0.53104
         Item               Value     Threshold  Converged?
 Maximum Force            0.002244     0.000450     NO 
 RMS     Force            0.000665     0.000300     NO 
 Maximum Displacement     0.675901     0.001800     NO 
 RMS     Displacement     0.124838     0.001200     NO 
 Predicted change in Energy=-1.196632D-03
 GradGradGradGradGradGradGradGradGradGradGradGradGradGradGradGradGradGrad

                          Input orientation:                          
 ---------------------------------------------------------------------
 Center     Atomic      Atomic             Coordinates (Angstroms)
 Number     Number       Type             X           Y           Z
 ---------------------------------------------------------------------
      1          7           0       -2.112062    0.360237   -0.579605
      2          6           0       -0.714291    0.362285   -0.232654
      3          6           0        0.077348    1.513482   -0.233006
      4          6           0        1.446736    1.474164    0.045623
      5          6           0        2.032279    0.241892    0.347357
      6          6           0        1.267925   -0.923277    0.330808
      7          6           0       -0.104623   -0.896993    0.009917
      8          7           0       -0.850042   -2.064879   -0.075147
      9          1           0       -2.707570    0.354102    0.245801
     10          1           0       -2.362162    1.212518   -1.073450
     11          1           0       -0.416880    2.458878   -0.450884
     12          1           0        2.031775    2.387851    0.043113
     13          1           0        3.089066    0.179503    0.590415
     14          1           0        1.723632   -1.885837    0.553175
     15          1           0       -1.851349   -1.954356   -0.048368
     16          1           0       -0.549783   -2.819569    0.526905
 ---------------------------------------------------------------------
                    Distance matrix (angstroms):
                    1          2          3          4          5
     1  N    0.000000
     2  C    1.440189   0.000000
     3  C    2.498723   1.397121   0.000000
     4  C    3.781109   2.446171   1.398001   0.000000
     5  C    4.248391   2.809725   2.403231   1.397283   0.000000
     6  C    3.728347   2.428855   2.770045   2.420956   1.393602
     7  C    2.440896   1.419970   2.429509   2.833793   2.444847
     8  N    2.779993   2.436054   3.699951   4.220735   3.715841
     9  H    1.017823   2.049914   3.054371   4.307305   4.742265
    10  H    1.016275   2.036005   2.597717   3.978504   4.719314
    11  H    2.700834   2.128798   1.088809   2.165466   3.398617
    12  H    4.655145   3.423426   2.158831   1.084942   2.167419
    13  H    5.334168   3.895687   3.395287   2.161063   1.086172
    14  H    4.587002   3.408086   3.857940   3.409383   2.159827
    15  H    2.389043   2.587216   3.972387   4.758251   4.479137
    16  H    3.711637   3.275391   4.443657   4.759608   4.008968
                    6          7          8          9         10
     6  C    0.000000
     7  C    1.409805   0.000000
     8  N    2.440050   1.388108   0.000000
     9  H    4.176540   2.897622   3.066739   0.000000
    10  H    4.439718   3.274172   3.744923   1.611399   0.000000
    11  H    3.858572   3.401722   4.559955   3.187901   2.392724
    12  H    3.410250   3.918610   5.305248   5.161260   4.683460
    13  H    2.144778   3.419865   4.582227   5.809496   5.792362
    14  H    1.087952   2.148362   2.655305   4.974672   5.379538
    15  H    3.307079   2.042661   1.007744   2.479643   3.367612
    16  H    2.634092   2.040035   1.011029   3.848019   4.701444
                   11         12         13         14         15
    11  H    0.000000
    12  H    2.498997   0.000000
    13  H    4.309468   2.508826   0.000000
    14  H    4.946360   4.315035   2.476172   0.000000
    15  H    4.657934   5.825957   5.419326   3.625884   0.000000
    16  H    5.369892   5.832300   4.715898   2.457837   1.665415
                   16
    16  H    0.000000
 Stoichiometry    C6H8N2
 Framework group  C1[X(C6H8N2)]
 Deg. of freedom    42
 Full point group                 C1      NOp   1
 Largest Abelian subgroup         C1      NOp   1
 Largest concise Abelian subgroup C1      NOp   1
                         Standard orientation:                         
 ---------------------------------------------------------------------
 Center     Atomic      Atomic             Coordinates (Angstroms)
 Number     Number       Type             X           Y           Z
 ---------------------------------------------------------------------
      1          7           0        1.819488   -1.321851   -0.047067
      2          6           0        0.528015   -0.687408    0.013947
      3          6           0       -0.677792   -1.392930   -0.000648
      4          6           0       -1.917364   -0.746521   -0.005570
      5          6           0       -1.942824    0.650305    0.019520
      6          6           0       -0.753154    1.376068    0.010553
      7          6           0        0.500232    0.731711   -0.026607
      8          7           0        1.682846    1.454150   -0.106281
      9          1           0        2.249074   -1.396463    0.872636
     10          1           0        1.734965   -2.280945   -0.372351
     11          1           0       -0.619839   -2.480192    0.002244
     12          1           0       -2.835515   -1.324510   -0.010759
     13          1           0       -2.889057    1.183251    0.039017
     14          1           0       -0.769864    2.463869    0.017526
     15          1           0        2.524616    0.953760    0.131583
     16          1           0        1.666598    2.367786    0.326369
 ---------------------------------------------------------------------
 Rotational constants (GHZ):           3.2728603           2.1956521           1.3223969
 Standard basis: 6-31G(d,p) (6D, 7F)
 There are   160 symmetry adapted cartesian basis functions of A   symmetry.
 There are   160 symmetry adapted basis functions of A   symmetry.
   160 basis functions,   280 primitive gaussians,   160 cartesian basis functions
    29 alpha electrons       29 beta electrons
       nuclear repulsion energy       349.0350764649 Hartrees.
 NAtoms=   16 NActive=   16 NUniq=   16 SFac= 1.00D+00 NAtFMM=   60 NAOKFM=F Big=F
 Integral buffers will be    131072 words long.
 Raffenetti 2 integral format.
 Two-electron integral symmetry is turned on.
 ------------------------------------------------------------------------------
 Polarizable Continuum Model (PCM)
 =================================
 Model                : PCM.
 Atomic radii         : UFF (Universal Force Field).
 Polarization charges : Total charges.
 Charge compensation  : None.
 Solution method      : Matrix inversion.
 Cavity type          : Scaled VdW (van der Waals Surface) (Alpha=1.100).
 Cavity algorithm     : GePol (No added spheres)
                        Default sphere list used, NSphG=   16.
                        Lebedev-Laikov grids with approx.  5.0 points / Ang**2.
                        Smoothing algorithm: York/Karplus (Gamma=1.0000).
                        Polarization charges: spherical gaussians, with
                                              point-specific exponents (IZeta= 3).
                        Self-potential: point-specific (ISelfS= 7).
                        Self-field    : sphere-specific E.n sum rule (ISelfD= 2).
 1st derivatives      : Analytical E(r).r(x)/FMM algorithm (CHGder, D1EAlg=3).
                        Cavity 1st derivative terms included.
 Solvent              : Water, Eps=  78.355300 Eps(inf)=   1.777849
 ------------------------------------------------------------------------------
 Spheres list:
 ISph  on   Nord     Re0    Alpha      Xe            Ye            Ze
    1   N      1    1.8300  1.100      1.819488     -1.321851     -0.047067
    2   C      2    1.9255  1.100      0.528015     -0.687408      0.013947
    3   C      3    1.9255  1.100     -0.677792     -1.392930     -0.000648
    4   C      4    1.9255  1.100     -1.917364     -0.746521     -0.005570
    5   C      5    1.9255  1.100     -1.942824      0.650305      0.019520
    6   C      6    1.9255  1.100     -0.753154      1.376068      0.010553
    7   C      7    1.9255  1.100      0.500232      0.731711     -0.026607
    8   N      8    1.8300  1.100      1.682846      1.454150     -0.106281
    9   H      9    1.4430  1.100      2.249074     -1.396463      0.872636
   10   H     10    1.4430  1.100      1.734965     -2.280945     -0.372351
   11   H     11    1.4430  1.100     -0.619839     -2.480192      0.002244
   12   H     12    1.4430  1.100     -2.835515     -1.324510     -0.010759
   13   H     13    1.4430  1.100     -2.889057      1.183251      0.039017
   14   H     14    1.4430  1.100     -0.769864      2.463869      0.017526
   15   H     15    1.4430  1.100      2.524616      0.953760      0.131583
   16   H     16    1.4430  1.100      1.666598      2.367786      0.326369
 ------------------------------------------------------------------------------
 One-electron integrals computed using PRISM.
 NBasis=   160 RedAO= T EigKep=  3.88D-04  NBF=   160
 NBsUse=   160 1.00D-06 EigRej= -1.00D+00 NBFU=   160
 Initial guess from the checkpoint file:  "GEYOCULIXLDCMW-UHFFFAOYSA-N_conf_0_0.chk"
 B after Tr=     0.000000   -0.000000   -0.000000
         Rot=    0.999946   -0.002993    0.001139   -0.009902 Ang=  -1.19 deg.
 ExpMin= 1.61D-01 ExpMax= 4.17D+03 ExpMxC= 6.27D+02 IAcc=2 IRadAn=         4 AccDes= 0.00D+00
 Harris functional with IExCor=  402 and IRadAn=       4 diagonalized for initial guess.
 HarFok:  IExCor=  402 AccDes= 0.00D+00 IRadAn=         4 IDoV= 1 UseB2=F ITyADJ=14
 ICtDFT=  3500011 ScaDFX=  1.000000  1.000000  1.000000  1.000000
 FoFCou: FMM=F IPFlag=           0 FMFlag=      100000 FMFlg1=           0
         NFxFlg=           0 DoJE=T BraDBF=F KetDBF=T FulRan=T
         wScrn=  0.000000 ICntrl=       500 IOpCl=  0 I1Cent=   200000004 NGrid=           0
         NMat0=    1 NMatS0=      1 NMatT0=    0 NMatD0=    1 NMtDS0=    0 NMtDT0=    0
 Petite list used in FoFCou.
 Keep R1 ints in memory in canonical form, NReq=85041267.
 Requested convergence on RMS density matrix=1.00D-08 within  32 cycles.
 Requested convergence on MAX density matrix=1.00D-06.
 Requested convergence on             energy=1.00D-06.
 No special actions if energy rises.
 Inv3:  Mode=1 IEnd=     5156163.
 Iteration    1 A*A^-1 deviation from unit magnitude is 3.33D-15 for    183.
 Iteration    1 A*A^-1 deviation from orthogonality  is 2.22D-15 for   1135    386.
 Iteration    1 A^-1*A deviation from unit magnitude is 3.77D-15 for    183.
 Iteration    1 A^-1*A deviation from orthogonality  is 1.44D-15 for    865    643.
 Error on total polarization charges =  0.00737
 SCF Done:  E(RB3LYP) =  -342.977928713     A.U. after   12 cycles
            NFock= 12  Conv=0.84D-08     -V/T= 2.0098
 QCSCF skips out because SCF is already converged.
 D1PCM: PCM CHGder 1st derivatives, ID1Alg=3 FixD1E=F DoIter=F DoCFld=F I1PDM=0.
 Calling FoFJK, ICntrl=      2127 FMM=F ISym2X=0 I1Cent= 0 IOpClX= 0 NMat=1 NMatS=1 NMatT=0.
 ***** Axes restored to original set *****
 -------------------------------------------------------------------
 Center     Atomic                   Forces (Hartrees/Bohr)
 Number     Number              X              Y              Z
 -------------------------------------------------------------------
      1        7           0.002977623    0.004076330    0.000128720
      2        6          -0.001306084   -0.005392090   -0.006093649
      3        6          -0.004426597    0.002369220   -0.000869545
      4        6          -0.001694621   -0.002595039    0.000516308
      5        6           0.000278630    0.001123497   -0.000627297
      6        6          -0.004446982   -0.003521059   -0.000972865
      7        6           0.001851303    0.007613547    0.007316846
      8        7           0.000921168   -0.006684291    0.000469378
      9        1           0.000636682   -0.003000565    0.002744685
     10        1           0.001795834    0.000860319   -0.000779188
     11        1           0.001720293    0.000581479    0.000499524
     12        1           0.000292196    0.000050235   -0.000045297
     13        1           0.000220750    0.000216548   -0.000020067
     14        1           0.001006941    0.000726458   -0.000339426
     15        1          -0.001892910    0.003751798   -0.001442557
     16        1           0.002065774   -0.000176388   -0.000485571
 -------------------------------------------------------------------
 Cartesian Forces:  Max     0.007613547 RMS     0.002798657

 GradGradGradGradGradGradGradGradGradGradGradGradGradGradGradGradGradGrad
 Berny optimization.
 Using GEDIIS/GDIIS optimizer.
 FormGI is forming the generalized inverse of G from B-inverse, IUseBI=4.
 Internal  Forces:  Max     0.005758490 RMS     0.001578041
 Search for a local minimum.
 Step number   3 out of a maximum of   82
 All quantities printed in internal units (Hartrees-Bohrs-Radians)
 Mixed Optimization -- RFO/linear search
 Update second derivatives using D2CorX and points    3    2
 DE=  1.63D-03 DEPred=-1.20D-03 R=-1.36D+00
 Trust test=-1.36D+00 RLast= 9.45D-01 DXMaxT set to 2.52D-01
 ITU= -1  1  0
 Use linear search instead of GDIIS.
     Eigenvalues ---    0.00328   0.00550   0.01650   0.01726   0.01799
     Eigenvalues ---    0.02022   0.02256   0.02373   0.02592   0.02687
     Eigenvalues ---    0.02895   0.03452   0.03691   0.10915   0.11429
     Eigenvalues ---    0.12309   0.12396   0.13266   0.14302   0.15980
     Eigenvalues ---    0.16953   0.18745   0.19161   0.19502   0.21704
     Eigenvalues ---    0.23413   0.32553   0.35523   0.35668   0.36035
     Eigenvalues ---    0.36089   0.37375   0.39541   0.43830   0.44451
     Eigenvalues ---    0.44864   0.45211   0.45912   0.46680   0.47277
     Eigenvalues ---    0.48332   0.52111
 RFO step:  Lambda=-1.66900813D-04 EMin= 3.27818786D-03
 Quartic linear search produced a step of -0.85321.
 Iteration  1 RMS(Cart)=  0.05631723 RMS(Int)=  0.05232435
 Iteration  2 RMS(Cart)=  0.05557825 RMS(Int)=  0.00872563
 Iteration  3 RMS(Cart)=  0.00962460 RMS(Int)=  0.00025593
 Iteration  4 RMS(Cart)=  0.00021537 RMS(Int)=  0.00013596
 Iteration  5 RMS(Cart)=  0.00000009 RMS(Int)=  0.00013596
 Variable       Old X    -DE/DX   Delta X   Delta X   Delta X     New X
                                 (Linear)    (Quad)   (Total)
    R1        2.72156  -0.00576  -0.04060  -0.00257  -0.04317   2.67839
    R2        1.92341   0.00187   0.00153  -0.00077   0.00075   1.92416
    R3        1.92048   0.00066  -0.00385   0.00047  -0.00338   1.91710
    R4        2.64018  -0.00082   0.00108   0.00080   0.00184   2.64202
    R5        2.68336  -0.00126  -0.00356  -0.00007  -0.00368   2.67968
    R6        2.64184  -0.00079   0.00075  -0.00062   0.00014   2.64198
    R7        2.05755  -0.00038  -0.00201  -0.00011  -0.00212   2.05543
    R8        2.64048  -0.00079  -0.00586  -0.00006  -0.00587   2.63461
    R9        2.05024   0.00020   0.00135   0.00021   0.00155   2.05180
   R10        2.63353   0.00021   0.00483   0.00025   0.00511   2.63864
   R11        2.05257   0.00020  -0.00013   0.00004  -0.00009   2.05247
   R12        2.66415  -0.00370  -0.01425  -0.00095  -0.01520   2.64894
   R13        2.05593  -0.00029  -0.00107  -0.00010  -0.00116   2.05477
   R14        2.62314   0.00212   0.02079   0.00104   0.02184   2.64498
   R15        1.90436   0.00226   0.00080   0.00128   0.00208   1.90644
   R16        1.91057   0.00046   0.00034  -0.00002   0.00031   1.91088
    A1        1.95249  -0.00256   0.01348  -0.00222   0.01132   1.96381
    A2        1.93341  -0.00212   0.00747   0.00173   0.00925   1.94267
    A3        1.82879   0.00304   0.04743   0.00212   0.04965   1.87844
    A4        2.15441  -0.00330  -0.01648  -0.00810  -0.02396   2.13045
[...]
 Alpha virt. eigenvalues --    2.39098   2.39790   2.43218   2.44172   2.46023
 Alpha virt. eigenvalues --    2.46995   2.49213   2.50175   2.56581   2.58060
 Alpha virt. eigenvalues --    2.59058   2.63241   2.66791   2.70992   2.72921
 Alpha virt. eigenvalues --    2.75568   2.77335   2.81091   2.92845   2.97161
 Alpha virt. eigenvalues --    3.01167   3.06098   3.15069   3.20425   3.24615
 Alpha virt. eigenvalues --    3.27803   3.29100   3.34637   3.38748   3.45384
 Alpha virt. eigenvalues --    3.49381   3.55433   3.86393   3.96949   4.13043
 Alpha virt. eigenvalues --    4.16644   4.17419   4.24169   4.44407   4.45885
 Alpha virt. eigenvalues --    4.83510
          Condensed to atoms (all electrons):
               1          2          3          4          5          6
     1  N    6.849427   0.260368  -0.062382   0.005243  -0.000039   0.006216
     2  C    0.260368   4.844831   0.419756  -0.006932  -0.027948  -0.069663
     3  C   -0.062382   0.419756   5.192388   0.458059  -0.057894  -0.024016
     4  C    0.005243  -0.006932   0.458059   4.919582   0.529240  -0.052650
     5  C   -0.000039  -0.027948  -0.057894   0.529240   4.934235   0.452995
     6  C    0.006216  -0.069663  -0.024016  -0.052650   0.452995   5.195963
     7  C   -0.069068   0.535501  -0.060543  -0.031057  -0.005780   0.422757
     8  N   -0.011711  -0.070462   0.006306  -0.000061   0.004715  -0.061115
     9  H    0.330446  -0.030141   0.004810  -0.000160   0.000001  -0.000063
    10  H    0.336469  -0.028907  -0.008819   0.000013  -0.000002  -0.000126
    11  H   -0.010222  -0.040779   0.361200  -0.039325   0.005036   0.000720
    12  H   -0.000114   0.003752  -0.036616   0.365165  -0.041442   0.004405
    13  H    0.000005   0.001085   0.004488  -0.042054   0.365775  -0.037422
    14  H   -0.000115   0.005455   0.000683   0.005107  -0.038657   0.361994
    15  H    0.004595  -0.012511   0.000021  -0.000004  -0.000154   0.005222
    16  H   -0.000035   0.005204  -0.000094  -0.000006  -0.000121  -0.009334
               7          8          9         10         11         12
     1  N   -0.069068  -0.011711   0.330446   0.336469  -0.010222  -0.000114
     2  C    0.535501  -0.070462  -0.030141  -0.028907  -0.040779   0.003752
     3  C   -0.060543   0.006306   0.004810  -0.008819   0.361200  -0.036616
     4  C   -0.031057  -0.000061  -0.000160   0.000013  -0.039325   0.365165
     5  C   -0.005780   0.004715   0.000001  -0.000002   0.005036  -0.041442
     6  C    0.422757  -0.061115  -0.000063  -0.000126   0.000720   0.004405
     7  C    4.803754   0.264735  -0.010810   0.005551   0.005459   0.001088
     8  N    0.264735   6.827330   0.002007   0.000069  -0.000114   0.000006
     9  H   -0.010810   0.002007   0.441932  -0.026190   0.000029   0.000003
    10  H    0.005551   0.000069  -0.026190   0.427173   0.007243  -0.000013
    11  H    0.005459  -0.000114   0.000029   0.007243   0.653694  -0.006493
    12  H    0.001088   0.000006   0.000003  -0.000013  -0.006493   0.632940
    13  H    0.003979  -0.000114  -0.000000  -0.000000  -0.000206  -0.005816
    14  H   -0.042532  -0.009901  -0.000002   0.000004   0.000014  -0.000205
    15  H   -0.023875   0.338010   0.003590  -0.000218  -0.000004  -0.000000
    16  H   -0.025901   0.327405   0.000146   0.000015   0.000004  -0.000000
              13         14         15         16
     1  N    0.000005  -0.000115   0.004595  -0.000035
     2  C    0.001085   0.005455  -0.012511   0.005204
     3  C    0.004488   0.000683   0.000021  -0.000094
     4  C   -0.042054   0.005107  -0.000004  -0.000006
     5  C    0.365775  -0.038657  -0.000154  -0.000121
     6  C   -0.037422   0.361994   0.005222  -0.009334
     7  C    0.003979  -0.042532  -0.023875  -0.025901
     8  N   -0.000114  -0.009901   0.338010   0.327405
     9  H   -0.000000  -0.000002   0.003590   0.000146
    10  H   -0.000000   0.000004  -0.000218   0.000015
    11  H   -0.000206   0.000014  -0.000004   0.000004
    12  H   -0.005816  -0.000205  -0.000000  -0.000000
    13  H    0.637397  -0.006610   0.000003  -0.000008
    14  H   -0.006610   0.654414  -0.000041   0.006364
    15  H    0.000003  -0.000041   0.425502  -0.028101
    16  H   -0.000008   0.006364  -0.028101   0.433774
 Mulliken charges:
               1
     1  N   -0.639085
     2  C    0.211392
     3  C   -0.197347
     4  C   -0.110161
     5  C   -0.119958
     6  C   -0.195883
     7  C    0.226742
     8  N   -0.617105
     9  H    0.284401
    10  H    0.287737
    11  H    0.063745
    12  H    0.083341
    13  H    0.079498
    14  H    0.064028
    15  H    0.287966
    16  H    0.290688
 Sum of Mulliken charges =   0.00000
 Mulliken charges with hydrogens summed into heavy atoms:
               1
     1  N   -0.066947
     2  C    0.211392
     3  C   -0.133602
     4  C   -0.026820
     5  C   -0.040460
     6  C   -0.131855
     7  C    0.226742
     8  N   -0.038451
 Electronic spatial extent (au):  <R**2>=            892.7003
 Charge=              0.0000 electrons
 Dipole moment (field-independent basis, Debye):
    X=              4.3209    Y=             -0.0344    Z=              2.4874  Tot=              4.9858
 Quadrupole moment (field-independent basis, Debye-Ang):
   XX=            -37.7628   YY=            -38.6142   ZZ=            -51.9363
   XY=              0.4326   XZ=              5.8368   YZ=              0.2521
 Traceless Quadrupole moment (field-independent basis, Debye-Ang):
   XX=              5.0083   YY=              4.1569   ZZ=             -9.1652
   XY=              0.4326   XZ=              5.8368   YZ=              0.2521
 Octapole moment (field-independent basis, Debye-Ang**2):
  XXX=             30.6892  YYY=             -0.9036  ZZZ=              2.1191  XYY=             18.3121
  XXY=              0.9534  XXZ=             14.0889  XZZ=              6.6918  YZZ=             -0.3478
  YYZ=              6.2552  XYZ=             -0.0372
 Hexadecapole moment (field-independent basis, Debye-Ang**3):
 XXXX=           -561.8171 YYYY=           -388.9452 ZZZZ=            -55.2683 XXXY=              5.7818
 XXXZ=             34.8585 YYYX=             -0.5775 YYYZ=              3.6310 ZZZX=              5.3822
 ZZZY=             -0.1551 XXYY=           -156.5493 XXZZ=           -126.9333 YYZZ=            -96.8576
 XXYZ=             -0.9279 YYXZ=             13.0475 ZZXY=             -0.6173
 N-N= 3.494655961627D+02 E-N=-1.495414704970D+03  KE= 3.398083845998D+02
 Evaluate density.
 Using the total density.
 Monte-Carlo method of calculating molar volume:
 based on  0.001 e/bohr**3 density envelope.
 Number of points per bohr**3 =   20 CutOff= 1.00D-04
 Using the CI density.
 There are       330 points.  Will hold       330 in memory.
 LenV=   536791032 MDV=   536870912.
 Box volume = 4517.624 fraction occupied=0.215
 Integrated density= 2.8039164620497264D+01 error=-2.9960835379502736D+01
 Molar volume =  971.974 bohr**3/mol ( 86.738 cm**3/mol)
 Recommended a0 for SCRF calculation =  4.08 angstrom (  7.71 bohr)
 ******************************Gaussian NBO Version 3.1******************************
             N A T U R A L   A T O M I C   O R B I T A L   A N D
          N A T U R A L   B O N D   O R B I T A L   A N A L Y S I S
 ******************************Gaussian NBO Version 3.1******************************
       /RESON  / : Allow strongly delocalized NBO set

 Analyzing the CI density

 Job title: GEYOCULIXLDCMW-UHFFFAOYSA-N_conf_0                              

 Storage needed:     77744 in NPA ( 536869504 available)
 GSVD:  LWork=       14656 too small for GESVD, short by        6584 words or        6584 for optimal perf.


 NATURAL POPULATIONS:  Natural atomic orbital occupancies 
                                                          
   NAO  Atom  No  lang   Type(AO)    Occupancy
 --------------------------------------------
     1    N    1  S      Cor( 1S)     1.99952
     2    N    1  S      Val( 2S)     1.39082
     3    N    1  S      Ryd( 3S)     0.00025
     4    N    1  S      Ryd( 4S)     0.00001
     5    N    1  px     Val( 2p)     1.37644
     6    N    1  px     Ryd( 3p)     0.00270
     7    N    1  py     Val( 2p)     1.39114
     8    N    1  py     Ryd( 3p)     0.00202
     9    N    1  pz     Val( 2p)     1.61868
    10    N    1  pz     Ryd( 3p)     0.00385
    11    N    1  dxy    Ryd( 3d)     0.00034
    12    N    1  dxz    Ryd( 3d)     0.00126
    13    N    1  dyz    Ryd( 3d)     0.00075
    14    N    1  dx2y2  Ryd( 3d)     0.00056
    15    N    1  dz2    Ryd( 3d)     0.00091

    16    C    2  S      Cor( 1S)     1.99891
    17    C    2  S      Val( 2S)     0.84366
    18    C    2  S      Ryd( 3S)     0.00115
    19    C    2  S      Ryd( 4S)     0.00009
    20    C    2  px     Val( 2p)     0.95074
    21    C    2  px     Ryd( 3p)     0.00523
    22    C    2  py     Val( 2p)     1.02758
    23    C    2  py     Ryd( 3p)     0.00421
    24    C    2  pz     Val( 2p)     1.04667
    25    C    2  pz     Ryd( 3p)     0.00347
    26    C    2  dxy    Ryd( 3d)     0.00097
    27    C    2  dxz    Ryd( 3d)     0.00128
    28    C    2  dyz    Ryd( 3d)     0.00102
    29    C    2  dx2y2  Ryd( 3d)     0.00106
    30    C    2  dz2    Ryd( 3d)     0.00041

    31    C    3  S      Cor( 1S)     1.99908
    32    C    3  S      Val( 2S)     0.94489
    33    C    3  S      Ryd( 3S)     0.00072
    34    C    3  S      Ryd( 4S)     0.00004
    35    C    3  px     Val( 2p)     1.05086
    36    C    3  px     Ryd( 3p)     0.00509
    37    C    3  py     Val( 2p)     1.18665
    38    C    3  py     Ryd( 3p)     0.00399
    39    C    3  pz     Val( 2p)     1.20106
    40    C    3  pz     Ryd( 3p)     0.00784
    41    C    3  dxy    Ryd( 3d)     0.00061
    42    C    3  dxz    Ryd( 3d)     0.00049
    43    C    3  dyz    Ryd( 3d)     0.00039
    44    C    3  dx2y2  Ryd( 3d)     0.00060
    45    C    3  dz2    Ryd( 3d)     0.00039

    46    C    4  S      Cor( 1S)     1.99912
    47    C    4  S      Val( 2S)     0.96449
    48    C    4  S      Ryd( 3S)     0.00054
    49    C    4  S      Ryd( 4S)     0.00003
    50    C    4  px     Val( 2p)     1.15955
    51    C    4  px     Ryd( 3p)     0.00471
    52    C    4  py     Val( 2p)     1.09530
    53    C    4  py     Ryd( 3p)     0.00505
    54    C    4  pz     Val( 2p)     0.99214
    55    C    4  pz     Ryd( 3p)     0.00339
    56    C    4  dxy    Ryd( 3d)     0.00072
    57    C    4  dxz    Ryd( 3d)     0.00050
    58    C    4  dyz    Ryd( 3d)     0.00074
    59    C    4  dx2y2  Ryd( 3d)     0.00067
    60    C    4  dz2    Ryd( 3d)     0.00037

    61    C    5  S      Cor( 1S)     1.99913
    62    C    5  S      Val( 2S)     0.96211
    63    C    5  S      Ryd( 3S)     0.00055
    64    C    5  S      Ryd( 4S)     0.00003
    65    C    5  px     Val( 2p)     1.16043
    66    C    5  px     Ryd( 3p)     0.00472
    67    C    5  py     Val( 2p)     1.09355
    68    C    5  py     Ryd( 3p)     0.00513
    69    C    5  pz     Val( 2p)     1.02012
    70    C    5  pz     Ryd( 3p)     0.00406
    71    C    5  dxy    Ryd( 3d)     0.00071
    72    C    5  dxz    Ryd( 3d)     0.00049
    73    C    5  dyz    Ryd( 3d)     0.00068
    74    C    5  dx2y2  Ryd( 3d)     0.00066
    75    C    5  dz2    Ryd( 3d)     0.00037

    76    C    6  S      Cor( 1S)     1.99908
    77    C    6  S      Val( 2S)     0.94394
    78    C    6  S      Ryd( 3S)     0.00071
    79    C    6  S      Ryd( 4S)     0.00004
    80    C    6  px     Val( 2p)     1.04889
    81    C    6  px     Ryd( 3p)     0.00520
    82    C    6  py     Val( 2p)     1.18708
    83    C    6  py     Ryd( 3p)     0.00402
    84    C    6  pz     Val( 2p)     1.20030
    85    C    6  pz     Ryd( 3p)     0.00820
    86    C    6  dxy    Ryd( 3d)     0.00060
    87    C    6  dxz    Ryd( 3d)     0.00048
    88    C    6  dyz    Ryd( 3d)     0.00039
    89    C    6  dx2y2  Ryd( 3d)     0.00060
    90    C    6  dz2    Ryd( 3d)     0.00039

    91    C    7  S      Cor( 1S)     1.99891
    92    C    7  S      Val( 2S)     0.84488
    93    C    7  S      Ryd( 3S)     0.00120
    94    C    7  S      Ryd( 4S)     0.00009
    95    C    7  px     Val( 2p)     0.95309
    96    C    7  px     Ryd( 3p)     0.00529
    97    C    7  py     Val( 2p)     1.03194
    98    C    7  py     Ryd( 3p)     0.00462
    99    C    7  pz     Val( 2p)     1.02332
   100    C    7  pz     Ryd( 3p)     0.00282
   101    C    7  dxy    Ryd( 3d)     0.00100
   102    C    7  dxz    Ryd( 3d)     0.00130
   103    C    7  dyz    Ryd( 3d)     0.00116
   104    C    7  dx2y2  Ryd( 3d)     0.00096
   105    C    7  dz2    Ryd( 3d)     0.00041

   106    N    8  S      Cor( 1S)     1.99950
   107    N    8  S      Val( 2S)     1.37478
   108    N    8  S      Ryd( 3S)     0.00023
   109    N    8  S      Ryd( 4S)     0.00001
   110    N    8  px     Val( 2p)     1.35124
   111    N    8  px     Ryd( 3p)     0.00222
   112    N    8  py     Val( 2p)     1.39347
   113    N    8  py     Ryd( 3p)     0.00207
   114    N    8  pz     Val( 2p)     1.62355
   115    N    8  pz     Ryd( 3p)     0.00407
   116    N    8  dxy    Ryd( 3d)     0.00040
   117    N    8  dxz    Ryd( 3d)     0.00098
   118    N    8  dyz    Ryd( 3d)     0.00089
   119    N    8  dx2y2  Ryd( 3d)     0.00042
   120    N    8  dz2    Ryd( 3d)     0.00074

   121    H    9  S      Val( 1S)     0.58836
   122    H    9  S      Ryd( 2S)     0.00159
   123    H    9  px     Ryd( 2p)     0.00044
   124    H    9  py     Ryd( 2p)     0.00029
   125    H    9  pz     Ryd( 2p)     0.00064

   126    H   10  S      Val( 1S)     0.57944
   127    H   10  S      Ryd( 2S)     0.00171
   128    H   10  px     Ryd( 2p)     0.00025
   129    H   10  py     Ryd( 2p)     0.00058
   130    H   10  pz     Ryd( 2p)     0.00044

   131    H   11  S      Val( 1S)     0.77154
   132    H   11  S      Ryd( 2S)     0.00097
   133    H   11  px     Ryd( 2p)     0.00006
   134    H   11  py     Ryd( 2p)     0.00038
   135    H   11  pz     Ryd( 2p)     0.00025

   136    H   12  S      Val( 1S)     0.76301
   137    H   12  S      Ryd( 2S)     0.00089
   138    H   12  px     Ryd( 2p)     0.00033
   139    H   12  py     Ryd( 2p)     0.00015
   140    H   12  pz     Ryd( 2p)     0.00014

   141    H   13  S      Val( 1S)     0.76396
   142    H   13  S      Ryd( 2S)     0.00091
   143    H   13  px     Ryd( 2p)     0.00033
   144    H   13  py     Ryd( 2p)     0.00015
   145    H   13  pz     Ryd( 2p)     0.00015

   146    H   14  S      Val( 1S)     0.77099
   147    H   14  S      Ryd( 2S)     0.00104
   148    H   14  px     Ryd( 2p)     0.00006
   149    H   14  py     Ryd( 2p)     0.00038
   150    H   14  pz     Ryd( 2p)     0.00025

   151    H   15  S      Val( 1S)     0.58269
   152    H   15  S      Ryd( 2S)     0.00113
   153    H   15  px     Ryd( 2p)     0.00049
   154    H   15  py     Ryd( 2p)     0.00027
   155    H   15  pz     Ryd( 2p)     0.00053

   156    H   16  S      Val( 1S)     0.57720
   157    H   16  S      Ryd( 2S)     0.00278
   158    H   16  px     Ryd( 2p)     0.00021
   159    H   16  py     Ryd( 2p)     0.00056
   160    H   16  pz     Ryd( 2p)     0.00048

 WARNING:  1 low occupancy (<1.9990e) core orbital  found on  C    2
           1 low occupancy (<1.9990e) core orbital  found on  C    7


 Summary of Natural Population Analysis:                  
                                                          
                                       Natural Population 
                Natural  -----------------------------------------------
    Atom  No    Charge         Core      Valence    Rydberg      Total
 -----------------------------------------------------------------------
      N    1   -0.78926      1.99952     5.77708    0.01266     7.78926
      C    2    0.11354      1.99891     3.86865    0.01890     5.88646
      C    3   -0.40270      1.99908     4.38347    0.02015     6.40270
      C    4   -0.22731      1.99912     4.21148    0.01670     6.22731
      C    5   -0.25273      1.99913     4.23621    0.01739     6.25273
      C    6   -0.39992      1.99908     4.38021    0.02063     6.39992
      C    7    0.12901      1.99891     3.85322    0.01886     5.87099
      N    8   -0.75459      1.99950     5.74306    0.01204     7.75459
      H    9    0.40869      0.00000     0.58836    0.00295     0.59131
      H   10    0.41758      0.00000     0.57944    0.00298     0.58242
      H   11    0.22680      0.00000     0.77154    0.00166     0.77320
      H   12    0.23547      0.00000     0.76301    0.00152     0.76453
      H   13    0.23449      0.00000     0.76396    0.00154     0.76551
      H   14    0.22727      0.00000     0.77099    0.00173     0.77273
      H   15    0.41489      0.00000     0.58269    0.00242     0.58511
      H   16    0.41878      0.00000     0.57720    0.00403     0.58122
 =======================================================================
   * Total *   -0.00000     15.99326    41.85058    0.15616    58.00000

                                 Natural Population      
 --------------------------------------------------------
   Core                      15.99326 ( 99.9579% of  16)
   Valence                   41.85058 ( 99.6442% of  42)
   Natural Minimal Basis     57.84384 ( 99.7308% of  58)
   Natural Rydberg Basis      0.15616 (  0.2692% of  58)
 --------------------------------------------------------

    Atom  No          Natural Electron Configuration
 ----------------------------------------------------------------------------
      N    1      [core]2S( 1.39)2p( 4.39)3p( 0.01)
      C    2      [core]2S( 0.84)2p( 3.02)3p( 0.01)
      C    3      [core]2S( 0.94)2p( 3.44)3p( 0.02)
      C    4      [core]2S( 0.96)2p( 3.25)3p( 0.01)
      C    5      [core]2S( 0.96)2p( 3.27)3p( 0.01)
      C    6      [core]2S( 0.94)2p( 3.44)3p( 0.02)
      C    7      [core]2S( 0.84)2p( 3.01)3p( 0.01)
      N    8      [core]2S( 1.37)2p( 4.37)3p( 0.01)
      H    9            1S( 0.59)
      H   10            1S( 0.58)
      H   11            1S( 0.77)
      H   12            1S( 0.76)
      H   13            1S( 0.76)
      H   14            1S( 0.77)
      H   15            1S( 0.58)
      H   16            1S( 0.58)


 NBO analysis skipped by request.
 1\1\GINC-DRG2-W002\SP\RB3LYP TD-FC\6-31G(d,p)\C6H8N2\QDUEZ\17-Jul-2024
 \0\\# TD(NStates=10, Root=1) B3LYP/6-31G** SCRF=(Solvent=water) volume
  pop=NPA density=current Geom=AllCheck Guess=Read\\GEYOCULIXLDCMW-UHFF
 FAOYSA-N_conf_0\\0,1\N,0,-2.0702909677,0.452545684,-0.6714890716\C,0,-
 0.7125524411,0.3891955102,-0.2841441832\C,0,0.0938451395,1.5331646394,
 -0.2789749136\C,0,1.4562070909,1.466828701,0.0241655917\C,0,2.02645316
 05,0.2367251226,0.3489825841\C,0,1.2339941826,-0.9131496322,0.35531241
 68\C,0,-0.12856755,-0.864659665,0.0309572779\N,0,-0.8816740777,-2.0464
 676055,-0.0610392441\H,0,-2.6957133091,-0.0537628626,-0.0511848575\H,0
 ,-2.4002045616,1.4102715529,-0.7271813897\H,0,-0.3631082102,2.49087763
 38,-0.5183192756\H,0,2.0559571042,2.3718994738,0.0165454139\H,0,3.0807
 250755,0.1643142166,0.5991713693\H,0,1.6751040924,-1.8760523108,0.6024
 89244\H,0,-1.8706467971,-1.9525573789,0.1297028486\H,0,-0.4995279312,-
 2.8091730794,0.4850061892\\Version=ES64L-G16RevA.03\State=1-A\HF=-342.
 9798649\RMSD=4.054e-09\Dipole=-1.7203222,-0.5963206,0.7298318\Quadrupo
 le=4.5043412,2.6397255,-7.1440667,0.6306087,-1.5480286,-3.4573214\PG=C
 01 [X(C6H8N2)]\\@


     SCHOPENHAUER'S LAW OF ENTROPY
 IF YOU PUT A SPOONFUL OF WINE IN A BARREL FULL
 OF SEWAGE, YOU GET SEWAGE.
 IF YOU PUT A SPOONFUL OF SEWAGE IN A BARREL FULL
 OF WINE, YOU GET SEWAGE.
 Job cpu time:       0 days  0 hours 10 minutes  8.9 seconds.
 Elapsed time:       0 days  0 hours  5 minutes  6.8 seconds.
 File lengths (MBytes):  RWF=    268 Int=      0 D2E=      0 Chk=     16 Scr=      1
 Normal termination of Gaussian 16 at Wed Jul 17 18:47:19 2024.
