 Entering Gaussian System, Link 0=g16
 Initial command:
 /opt/sw/arch/manual/gaussian/G16_A03/g16/l1.exe "/scratch/1032051.jesse.materianova.be/Gau-48783.inp" -scrdir="/scratch/1032051.jesse.materianova.be/"
 Entering Link 1 = /opt/sw/arch/manual/gaussian/G16_A03/g16/l1.exe PID=     48784.
  
 Copyright (c) 1988,1990,1992,1993,1995,1998,2003,2009,2016,
            Gaussian, Inc.  All Rights Reserved.
  
 This is part of the Gaussian(R) 16 program.  It is based on
 the Gaussian(R) 09 system (copyright 2009, Gaussian, Inc.),
 the Gaussian(R) 03 system (copyright 2003, Gaussian, Inc.),
 the Gaussian(R) 98 system (copyright 1998, Gaussian, Inc.),
 the Gaussian(R) 94 system (copyright 1995, Gaussian, Inc.),
 the Gaussian 92(TM) system (copyright 1992, Gaussian, Inc.),
 the Gaussian 90(TM) system (copyright 1990, Gaussian, Inc.),
 the Gaussian 88(TM) system (copyright 1988, Gaussian, Inc.),
 the Gaussian 86(TM) system (copyright 1986, Carnegie Mellon
 University), and the Gaussian 82(TM) system (copyright 1983,
 Carnegie Mellon University). Gaussian is a federally registered
 trademark of Gaussian, Inc.
  
 This software contains proprietary and confidential information,
 including trade secrets, belonging to Gaussian, Inc.
  
 This software is provided under written license and may be
 used, copied, transmitted, or stored only in accord with that
 written license.
  
 The following legend is applicable only to US Government
 contracts under FAR:
  
                    RESTRICTED RIGHTS LEGEND
  
 Use, reproduction and disclosure by the US Government is
 subject to restrictions as set forth in subparagraphs (a)
 and (c) of the Commercial Computer Software - Restricted
 Rights clause in FAR 52.227-19.
  
 Gaussian, Inc.
 340 Quinnipiac St., Bldg. 40, Wallingford CT 06492
  
  
 ---------------------------------------------------------------
 Warning -- This program may not be used in any manner that
 competes with the business of Gaussian, Inc. or will provide
 assistance to any competitor of Gaussian, Inc.  The licensee
 of this program is prohibited from giving any competitor of
 Gaussian, Inc. access to this program.  By using this program,
 the user acknowledges that Gaussian, Inc. is engaged in the
 business of creating and licensing software in the field of
 computational chemistry and represents and warrants to the
 licensee that it is not a competitor of Gaussian, Inc. and that
 it will not use this program in any manner prohibited above.
 ---------------------------------------------------------------
  

 Cite this work as:
 Gaussian 16, Revision A.03,
 M. J. Frisch, G. W. Trucks, H. B. Schlegel, G. E. Scuseria, 
 M. A. Robb, J. R. Cheeseman, G. Scalmani, V. Barone, 
 G. A. Petersson, H. Nakatsuji, X. Li, M. Caricato, A. V. Marenich, 
 J. Bloino, B. G. Janesko, R. Gomperts, B. Mennucci, H. P. Hratchian, 
 J. V. Ortiz, A. F. Izmaylov, J. L. Sonnenberg, D. Williams-Young, 
 F. Ding, F. Lipparini, F. Egidi, J. Goings, B. Peng, A. Petrone, 
 T. Henderson, D. Ranasinghe, V. G. Zakrzewski, J. Gao, N. Rega, 
 G. Zheng, W. Liang, M. Hada, M. Ehara, K. Toyota, R. Fukuda, 
 J. Hasegawa, M. Ishida, T. Nakajima, Y. Honda, O. Kitao, H. Nakai, 
 T. Vreven, K. Throssell, J. A. Montgomery, Jr., J. E. Peralta, 
 F. Ogliaro, M. J. Bearpark, J. J. Heyd, E. N. Brothers, K. N. Kudin, 
 V. N. Staroverov, T. A. Keith, R. Kobayashi, J. Normand, 
 K. Raghavachari, A. P. Rendell, J. C. Burant, S. S. Iyengar, 
 J. Tomasi, M. Cossi, J. M. Millam, M. Klene, C. Adamo, R. Cammi, 
 J. W. Ochterski, R. L. Martin, K. Morokuma, O. Farkas, 
 J. B. Foresman, and D. J. Fox, Gaussian, Inc., Wallingford CT, 2016.
 
 ******************************************
 Gaussian 16:  EM64L-G16RevA.03 25-Dec-2016
                11-Jul-2024 
 ******************************************
 %nprocshared=3
 Will use up to    3 processors via shared memory.
 %mem=6GB
 %Chk=ISKQADXMHQSTHK-UHFFFAOYSA-N_conf_2_0.chk
 -------------------------------------------------------
 # opt=CalcFc B3LYP/6-31G** SCRF=(Solvent=water) scf=xqc
 -------------------------------------------------------
 1/10=4,18=20,19=15,26=3,38=1/1,3;
 2/9=110,12=2,17=6,18=5,40=1/2;
 3/5=1,6=6,7=101,11=2,25=1,30=1,70=2201,71=2,72=1,74=-5,140=1/1,2,3;
 4//1;
 5/5=2,8=3,13=1,38=5,53=1/2,8;
 8/6=4,10=90,11=11/1;
 11/6=1,8=1,9=11,15=111,16=1/1,2,10;
 10/6=1,13=1/2;
 6/7=2,8=2,9=2,10=2,28=1/1;
 7/10=1,18=20,25=1/1,2,3,16;
 1/10=4,18=20,19=15,26=3/3(2);
 2/9=110/2;
 99//99;
 2/9=110/2;
 3/5=1,6=6,7=101,11=2,25=1,30=1,70=2205,71=1,72=1,74=-5/1,2,3;
 4/5=5,16=3,69=1/1;
 5/5=2,8=3,13=1,38=5,53=1/2,8;
 7//1,2,3,16;
 1/18=20,19=15,26=3/3(-5);
 2/9=110/2;
 6/7=2,8=2,9=2,10=2,19=2,28=1/1;
 99/9=1/99;
 ----------------------------------
 ISKQADXMHQSTHK-UHFFFAOYSA-N_conf_2
 ----------------------------------
 Symbolic Z-matrix:
 Charge =  0 Multiplicity = 1
 N                    -3.26166   1.31733   0.37381 
 C                    -2.87312  -0.02855  -0.02995 
 C                    -1.37571  -0.19735  -0.01358 
 C                    -0.66254  -0.39792  -1.20251 
 C                     0.72591  -0.55681  -1.18008 
 C                     1.42817  -0.52293   0.03209 
 C                     2.92775  -0.66539   0.05306 
 N                     3.5837    0.63149  -0.06868 
 C                     0.71723  -0.30943   1.22005 
 C                    -0.67031  -0.15109   1.19682 
 H                    -4.26336   1.4309    0.23531 
 H                    -2.80589   1.98815  -0.24309 
 H                    -3.32612  -0.76315   0.64548 
 H                    -3.26891  -0.23266  -1.0315 
 H                    -1.1824   -0.43118  -2.15714 
 H                     1.25863  -0.70787  -2.11652 
 H                     3.24644  -1.15231   0.98189 
 H                     3.25494  -1.31974  -0.76311 
 H                     3.25747   1.22996   0.68957 
 H                     3.2561    1.08067  -0.92296 
 H                     1.24024  -0.26241   2.17263 
 H                    -1.20655   0.02027   2.12841 
 

 GradGradGradGradGradGradGradGradGradGradGradGradGradGradGradGradGradGrad
 Berny optimization.
 Initialization pass.
                           ----------------------------
                           !    Initial Parameters    !
                           ! (Angstroms and Degrees)  !
 --------------------------                            --------------------------
 ! Name  Definition              Value          Derivative Info.                !
 --------------------------------------------------------------------------------
 ! R1    R(1,2)                  1.4579         calculate D2E/DX2 analytically  !
 ! R2    R(1,11)                 1.0176         calculate D2E/DX2 analytically  !
 ! R3    R(1,12)                 1.019          calculate D2E/DX2 analytically  !
 ! R4    R(2,3)                  1.507          calculate D2E/DX2 analytically  !
 ! R5    R(2,13)                 1.0959         calculate D2E/DX2 analytically  !
 ! R6    R(2,14)                 1.0961         calculate D2E/DX2 analytically  !
 ! R7    R(3,4)                  1.4009         calculate D2E/DX2 analytically  !
 ! R8    R(3,10)                 1.4017         calculate D2E/DX2 analytically  !
 ! R9    R(4,5)                  1.3977         calculate D2E/DX2 analytically  !
 ! R10   R(4,15)                 1.0875         calculate D2E/DX2 analytically  !
 ! R11   R(5,6)                  1.4013         calculate D2E/DX2 analytically  !
 ! R12   R(5,16)                 1.0879         calculate D2E/DX2 analytically  !
 ! R13   R(6,7)                  1.5065         calculate D2E/DX2 analytically  !
 ! R14   R(6,9)                  1.4008         calculate D2E/DX2 analytically  !
 ! R15   R(7,8)                  1.4584         calculate D2E/DX2 analytically  !
 ! R16   R(7,17)                 1.0961         calculate D2E/DX2 analytically  !
 ! R17   R(7,18)                 1.0961         calculate D2E/DX2 analytically  !
 ! R18   R(8,19)                 1.0196         calculate D2E/DX2 analytically  !
 ! R19   R(8,20)                 1.0193         calculate D2E/DX2 analytically  !
 ! R20   R(9,10)                 1.3967         calculate D2E/DX2 analytically  !
 ! R21   R(9,21)                 1.0877         calculate D2E/DX2 analytically  !
 ! R22   R(10,22)                1.0885         calculate D2E/DX2 analytically  !
 ! A1    A(2,1,11)             109.1289         calculate D2E/DX2 analytically  !
 ! A2    A(2,1,12)             108.7166         calculate D2E/DX2 analytically  !
 ! A3    A(11,1,12)            106.5251         calculate D2E/DX2 analytically  !
 ! A4    A(1,2,3)              111.4212         calculate D2E/DX2 analytically  !
 ! A5    A(1,2,13)             109.7527         calculate D2E/DX2 analytically  !
 ! A6    A(1,2,14)             109.1922         calculate D2E/DX2 analytically  !
 ! A7    A(3,2,13)             109.205          calculate D2E/DX2 analytically  !
 ! A8    A(3,2,14)             110.3568         calculate D2E/DX2 analytically  !
 ! A9    A(13,2,14)            106.8024         calculate D2E/DX2 analytically  !
 ! A10   A(2,3,4)              120.8429         calculate D2E/DX2 analytically  !
 ! A11   A(2,3,10)             120.3797         calculate D2E/DX2 analytically  !
 ! A12   A(4,3,10)             118.7769         calculate D2E/DX2 analytically  !
 ! A13   A(3,4,5)              120.5564         calculate D2E/DX2 analytically  !
 ! A14   A(3,4,15)             120.3996         calculate D2E/DX2 analytically  !
 ! A15   A(5,4,15)             119.044          calculate D2E/DX2 analytically  !
 ! A16   A(4,5,6)              120.5951         calculate D2E/DX2 analytically  !
 ! A17   A(4,5,16)             119.2361         calculate D2E/DX2 analytically  !
 ! A18   A(6,5,16)             120.1688         calculate D2E/DX2 analytically  !
 ! A19   A(5,6,7)              120.5709         calculate D2E/DX2 analytically  !
 ! A20   A(5,6,9)              118.8772         calculate D2E/DX2 analytically  !
 ! A21   A(7,6,9)              120.5175         calculate D2E/DX2 analytically  !
 ! A22   A(6,7,8)              111.2513         calculate D2E/DX2 analytically  !
 ! A23   A(6,7,17)             110.0737         calculate D2E/DX2 analytically  !
 ! A24   A(6,7,18)             110.074          calculate D2E/DX2 analytically  !
 ! A25   A(8,7,17)             109.5723         calculate D2E/DX2 analytically  !
 ! A26   A(8,7,18)             109.5395         calculate D2E/DX2 analytically  !
 ! A27   A(17,7,18)            106.2012         calculate D2E/DX2 analytically  !
 ! A28   A(7,8,19)             108.4197         calculate D2E/DX2 analytically  !
 ! A29   A(7,8,20)             108.4983         calculate D2E/DX2 analytically  !
 ! A30   A(19,8,20)            105.1769         calculate D2E/DX2 analytically  !
 ! A31   A(6,9,10)             120.4874         calculate D2E/DX2 analytically  !
 ! A32   A(6,9,21)             120.3477         calculate D2E/DX2 analytically  !
 ! A33   A(10,9,21)            119.1647         calculate D2E/DX2 analytically  !
 ! A34   A(3,10,9)             120.7005         calculate D2E/DX2 analytically  !
 ! A35   A(3,10,22)            119.7569         calculate D2E/DX2 analytically  !
 ! A36   A(9,10,22)            119.5396         calculate D2E/DX2 analytically  !
 ! D1    D(11,1,2,3)           172.7225         calculate D2E/DX2 analytically  !
 ! D2    D(11,1,2,13)          -66.1911         calculate D2E/DX2 analytically  !
 ! D3    D(11,1,2,14)           50.5662         calculate D2E/DX2 analytically  !
 ! D4    D(12,1,2,3)            56.913          calculate D2E/DX2 analytically  !
 ! D5    D(12,1,2,13)          177.9993         calculate D2E/DX2 analytically  !
 ! D6    D(12,1,2,14)          -65.2434         calculate D2E/DX2 analytically  !
 ! D7    D(1,2,3,4)           -113.2628         calculate D2E/DX2 analytically  !
 ! D8    D(1,2,3,10)            66.5032         calculate D2E/DX2 analytically  !
 ! D9    D(13,2,3,4)           125.3316         calculate D2E/DX2 analytically  !
 ! D10   D(13,2,3,10)          -54.9024         calculate D2E/DX2 analytically  !
 ! D11   D(14,2,3,4)             8.2187         calculate D2E/DX2 analytically  !
 ! D12   D(14,2,3,10)         -172.0153         calculate D2E/DX2 analytically  !
 ! D13   D(2,3,4,5)           -179.8539         calculate D2E/DX2 analytically  !
 ! D14   D(2,3,4,15)             0.207          calculate D2E/DX2 analytically  !
 ! D15   D(10,3,4,5)             0.3764         calculate D2E/DX2 analytically  !
 ! D16   D(10,3,4,15)         -179.5626         calculate D2E/DX2 analytically  !
 ! D17   D(2,3,10,9)           179.8692         calculate D2E/DX2 analytically  !
 ! D18   D(2,3,10,22)           -0.7716         calculate D2E/DX2 analytically  !
 ! D19   D(4,3,10,9)            -0.3601         calculate D2E/DX2 analytically  !
 ! D20   D(4,3,10,22)          178.9991         calculate D2E/DX2 analytically  !
 ! D21   D(3,4,5,6)              0.2234         calculate D2E/DX2 analytically  !
 ! D22   D(3,4,5,16)          -179.7883         calculate D2E/DX2 analytically  !
 ! D23   D(15,4,5,6)          -179.8368         calculate D2E/DX2 analytically  !
 ! D24   D(15,4,5,16)            0.1515         calculate D2E/DX2 analytically  !
 ! D25   D(4,5,6,7)           -178.7129         calculate D2E/DX2 analytically  !
 ! D26   D(4,5,6,9)             -0.8331         calculate D2E/DX2 analytically  !
 ! D27   D(16,5,6,7)             1.2989         calculate D2E/DX2 analytically  !
 ! D28   D(16,5,6,9)           179.1787         calculate D2E/DX2 analytically  !
 ! D29   D(5,6,7,8)             89.3104         calculate D2E/DX2 analytically  !
 ! D30   D(5,6,7,17)          -149.0347         calculate D2E/DX2 analytically  !
 ! D31   D(5,6,7,18)           -32.3032         calculate D2E/DX2 analytically  !
 ! D32   D(9,6,7,8)            -88.5345         calculate D2E/DX2 analytically  !
 ! D33   D(9,6,7,17)            33.1204         calculate D2E/DX2 analytically  !
 ! D34   D(9,6,7,18)           149.8519         calculate D2E/DX2 analytically  !
 ! D35   D(5,6,9,10)             0.8491         calculate D2E/DX2 analytically  !
 ! D36   D(5,6,9,21)          -178.9949         calculate D2E/DX2 analytically  !
 ! D37   D(7,6,9,10)           178.73           calculate D2E/DX2 analytically  !
 ! D38   D(7,6,9,21)            -1.1139         calculate D2E/DX2 analytically  !
 ! D39   D(6,7,8,19)            57.2631         calculate D2E/DX2 analytically  !
 ! D40   D(6,7,8,20)           -56.4648         calculate D2E/DX2 analytically  !
 ! D41   D(17,7,8,19)          -64.6833         calculate D2E/DX2 analytically  !
 ! D42   D(17,7,8,20)         -178.4112         calculate D2E/DX2 analytically  !
 ! D43   D(18,7,8,19)          179.1875         calculate D2E/DX2 analytically  !
 ! D44   D(18,7,8,20)           65.4597         calculate D2E/DX2 analytically  !
 ! D45   D(6,9,10,3)            -0.2569         calculate D2E/DX2 analytically  !
 ! D46   D(6,9,10,22)         -179.6175         calculate D2E/DX2 analytically  !
 ! D47   D(21,9,10,3)          179.5889         calculate D2E/DX2 analytically  !
 ! D48   D(21,9,10,22)           0.2283         calculate D2E/DX2 analytically  !
 --------------------------------------------------------------------------------
 Trust Radius=3.00D-01 FncErr=1.00D-07 GrdErr=1.00D-06 EigMax=2.50D+02 EigMin=1.00D-04
 Number of steps in this run=    116 maximum allowed number of steps=    132.
 GradGradGradGradGradGradGradGradGradGradGradGradGradGradGradGradGradGrad

                          Input orientation:                          
 ---------------------------------------------------------------------
 Center     Atomic      Atomic             Coordinates (Angstroms)
 Number     Number       Type             X           Y           Z
 ---------------------------------------------------------------------
      1          7           0       -3.261663    1.317331    0.373805
      2          6           0       -2.873120   -0.028548   -0.029948
      3          6           0       -1.375714   -0.197346   -0.013582
      4          6           0       -0.662537   -0.397918   -1.202514
      5          6           0        0.725907   -0.556807   -1.180079
      6          6           0        1.428165   -0.522932    0.032090
      7          6           0        2.927750   -0.665389    0.053059
      8          7           0        3.583702    0.631493   -0.068677
      9          6           0        0.717232   -0.309433    1.220050
     10          6           0       -0.670308   -0.151089    1.196820
     11          1           0       -4.263357    1.430899    0.235314
     12          1           0       -2.805893    1.988153   -0.243092
     13          1           0       -3.326118   -0.763145    0.645482
     14          1           0       -3.268914   -0.232663   -1.031500
     15          1           0       -1.182399   -0.431184   -2.157143
     16          1           0        1.258628   -0.707872   -2.116516
     17          1           0        3.246441   -1.152310    0.981890
     18          1           0        3.254937   -1.319738   -0.763111
     19          1           0        3.257468    1.229964    0.689571
     20          1           0        3.256100    1.080669   -0.922961
     21          1           0        1.240243   -0.262406    2.172634
     22          1           0       -1.206551    0.020271    2.128408
 ---------------------------------------------------------------------
                    Distance matrix (angstroms):
                    1          2          3          4          5
     1  N    0.000000
     2  C    1.457867   0.000000
     3  C    2.449718   1.506978   0.000000
     4  C    3.490318   2.529430   1.400860   0.000000
     5  C    4.672008   3.815082   2.430378   1.397686   0.000000
     6  C    5.049538   4.330048   2.823089   2.431237   1.401309
     7  C    6.507142   5.836312   4.329354   3.812894   2.525971
     8  N    6.893851   6.490585   5.028500   4.513958   3.288504
     9  C    4.381108   3.812089   2.432044   2.789338   2.412859
    10  C    3.090103   2.524353   1.401718   2.412009   2.786336
    11  H    1.017579   2.033005   3.324396   4.286936   5.554013
    12  H    1.018966   2.029048   2.621925   3.347805   4.452906
    13  H    2.099130   1.095922   2.135081   3.262383   4.449062
    14  H    2.092228   1.096094   2.149793   2.617203   4.010703
    15  H    3.712997   2.746928   2.164926   1.087511   2.147572
    16  H    5.544022   4.678310   3.409212   2.149965   1.087901
    17  H    6.987440   6.303624   4.823613   4.541017   3.373696
    18  H    7.121292   6.305377   4.823328   4.048386   2.674308
    19  H    6.527359   6.299656   4.898777   4.647195   3.618969
    20  H    6.649725   6.292469   4.890193   4.197628   3.024783
    21  H    5.098874   4.671810   3.409840   3.876926   3.404687
    22  H    2.997413   2.727331   2.159652   3.400863   3.874725
                    6          7          8          9         10
     6  C    0.000000
     7  C    1.506482   0.000000
     8  N    2.447282   1.458422   0.000000
     9  C    1.400806   2.524868   3.280671   0.000000
    10  C    2.428673   3.810343   4.506719   1.396739   0.000000
    11  H    6.020978   7.492640   7.893528   5.367003   4.041928
    12  H    4.930367   6.324843   6.534360   4.453324   3.348198
    13  H    4.799704   6.282626   7.085241   4.109096   2.780632
    14  H    4.824731   6.305724   6.973674   4.578726   3.424153
    15  H    3.408255   4.672598   5.310997   3.876707   3.404374
    16  H    2.163205   2.737669   3.375427   3.403607   3.874145
    17  H    2.145778   1.096076   2.097472   2.676576   4.048402
    18  H    2.145772   1.096064   2.097052   3.375439   4.540332
    19  H    2.617494   2.026382   1.019576   3.017275   4.194286
    20  H    2.612470   2.027103   1.019256   3.601489   4.628971
    21  H    2.164513   2.739101   3.363678   1.087735   2.148210
    22  H    3.410476   4.676499   5.305402   2.152849   1.088474
                   11         12         13         14         15
    11  H    0.000000
    12  H    1.632056   0.000000
    13  H    2.420843   2.937659   0.000000
    14  H    2.315421   2.401666   1.759817   0.000000
    15  H    4.322442   3.486046   3.544071   2.379081   0.000000
    16  H    6.371637   5.224806   5.352718   4.679927   2.456994
    17  H    7.976679   6.927758   6.592659   6.881086   5.476146
    18  H    8.067688   6.924321   6.753089   6.619244   4.735273
    19  H    7.537209   6.181347   6.878810   6.906158   5.529522
    20  H    7.616199   6.167130   7.013220   6.656757   4.848626
    21  H    6.075368   5.222256   4.840928   5.531714   4.964338
    22  H    3.862348   3.471954   2.702846   3.781843   4.309332
                   16         17         18         19         20
    16  H    0.000000
    17  H    3.707971   0.000000
    18  H    2.488240   1.753035   0.000000
    19  H    3.952808   2.400166   2.934496   0.000000
    20  H    2.934850   2.935089   2.405724   1.619429   0.000000
    21  H    4.312260   2.496924   3.714235   2.914762   3.930679
    22  H    4.962527   4.745375   5.482826   4.843663   5.509132
                   21         22
    21  H    0.000000
    22  H    2.463465   0.000000
 Stoichiometry    C8H12N2
 Framework group  C1[X(C8H12N2)]
 Deg. of freedom    60
 Full point group                 C1      NOp   1
 Largest Abelian subgroup         C1      NOp   1
 Largest concise Abelian subgroup C1      NOp   1
                         Standard orientation:                         
 ---------------------------------------------------------------------
 Center     Atomic      Atomic             Coordinates (Angstroms)
 Number     Number       Type             X           Y           Z
 ---------------------------------------------------------------------
      1          7           0       -3.436147   -0.484506    0.898076
      2          6           0       -2.895123    0.199368   -0.270249
      3          6           0       -1.389093    0.149277   -0.288941
      4          6           0       -0.629699    1.316122   -0.133381
      5          6           0        0.766820    1.263168   -0.154712
      6          6           0        1.431594    0.043072   -0.336668
      7          6           0        2.936838   -0.017676   -0.330752
      8          7           0        3.452001   -0.230585    1.016939
      9          6           0        0.673060   -1.125922   -0.479278
     10          6           0       -0.722483   -1.072114   -0.458198
     11          1           0       -4.440572   -0.327201    0.941123
     12          1           0       -3.040416   -0.062015    1.736640
     13          1           0       -3.282653   -0.265429   -1.183940
     14          1           0       -3.242096    1.239094   -0.271951
     15          1           0       -1.119533    2.276894    0.006835
     16          1           0        1.335376    2.182033   -0.028377
     17          1           0        3.283412   -0.823551   -0.987894
     18          1           0        3.352418    0.910452   -0.739689
     19          1           0        3.044802   -1.089581    1.385519
     20          1           0        3.098821    0.511987    1.619213
     21          1           0        1.164591   -2.088034   -0.605394
     22          1           0       -1.296608   -1.990775   -0.564117
 ---------------------------------------------------------------------
 Rotational constants (GHZ):           3.4814681           0.6704444           0.6298235
 Standard basis: 6-31G(d,p) (6D, 7F)
 There are   210 symmetry adapted cartesian basis functions of A   symmetry.
 There are   210 symmetry adapted basis functions of A   symmetry.
   210 basis functions,   364 primitive gaussians,   210 cartesian basis functions
    37 alpha electrons       37 beta electrons
       nuclear repulsion energy       500.0599776659 Hartrees.
 NAtoms=   22 NActive=   22 NUniq=   22 SFac= 1.00D+00 NAtFMM=   60 NAOKFM=F Big=F
 Integral buffers will be    131072 words long.
 Raffenetti 2 integral format.
 Two-electron integral symmetry is turned on.
 Force inversion solution in PCM.
 ------------------------------------------------------------------------------
 Polarizable Continuum Model (PCM)
 =================================
 Model                : PCM.
 Atomic radii         : UFF (Universal Force Field).
 Polarization charges : Total charges.
 Charge compensation  : None.
 Solution method      : Matrix inversion.
 Cavity type          : Scaled VdW (van der Waals Surface) (Alpha=1.100).
 Cavity algorithm     : GePol (No added spheres)
                        Default sphere list used, NSphG=   22.
                        Lebedev-Laikov grids with approx.  5.0 points / Ang**2.
                        Smoothing algorithm: York/Karplus (Gamma=1.0000).
                        Polarization charges: spherical gaussians, with
                                              point-specific exponents (IZeta= 3).
                        Self-potential: point-specific (ISelfS= 7).
                        Self-field    : sphere-specific E.n sum rule (ISelfD= 2).
 1st derivatives      : Analytical E(r).r(x)/FMM algorithm (CHGder, D1EAlg=3).
                        Cavity 1st derivative terms included.
 2nd derivatives      : Analytical E(r).r(xy)/FMM algorithm (CHGder, D2EAlg=3).
                        Cavity 2nd derivative terms included.
 Solvent              : Water, Eps=  78.355300 Eps(inf)=   1.777849
 ------------------------------------------------------------------------------
 One-electron integrals computed using PRISM.
 NBasis=   210 RedAO= T EigKep=  4.34D-04  NBF=   210
 NBsUse=   210 1.00D-06 EigRej= -1.00D+00 NBFU=   210
 ExpMin= 1.61D-01 ExpMax= 4.17D+03 ExpMxC= 6.27D+02 IAcc=3 IRadAn=         5 AccDes= 0.00D+00
 Harris functional with IExCor=  402 and IRadAn=       5 diagonalized for initial guess.
 HarFok:  IExCor=  402 AccDes= 0.00D+00 IRadAn=         5 IDoV= 1 UseB2=F ITyADJ=14
 ICtDFT=  3500011 ScaDFX=  1.000000  1.000000  1.000000  1.000000
 FoFCou: FMM=F IPFlag=           0 FMFlag=      100000 FMFlg1=           0
         NFxFlg=           0 DoJE=T BraDBF=F KetDBF=T FulRan=T
         wScrn=  0.000000 ICntrl=       500 IOpCl=  0 I1Cent=   200000004 NGrid=           0
         NMat0=    1 NMatS0=      1 NMatT0=    0 NMatD0=    1 NMtDS0=    0 NMtDT0=    0
 Petite list used in FoFCou.
 Keep R1 ints in memory in canonical form, NReq=250131393.
 Requested convergence on RMS density matrix=1.00D-08 within  32 cycles.
 Requested convergence on MAX density matrix=1.00D-06.
 Requested convergence on             energy=1.00D-06.
 No special actions if energy rises.
 Inv3:  Mode=1 IEnd=     8690412.
 Iteration    1 A*A^-1 deviation from unit magnitude is 5.77D-15 for   1602.
 Iteration    1 A*A^-1 deviation from orthogonality  is 3.08D-15 for   1511    579.
 Iteration    1 A^-1*A deviation from unit magnitude is 5.88D-15 for   1082.
 Iteration    1 A^-1*A deviation from orthogonality  is 2.28D-15 for   1494   1200.
 Error on total polarization charges =  0.00857
 SCF Done:  E(RB3LYP) =  -421.594316538     A.U. after   12 cycles
            NFock= 12  Conv=0.21D-08     -V/T= 2.0095
 QCSCF skips out because SCF is already converged.
 DoSCS=F DFT=T ScalE2(SS,OS)=  1.000000  1.000000
 Range of M.O.s used for correlation:     1   210
 NBasis=   210 NAE=    37 NBE=    37 NFC=     0 NFV=     0
 NROrb=    210 NOA=    37 NOB=    37 NVA=   173 NVB=   173
 Symmetrizing basis deriv contribution to polar:
 IMax=3 JMax=2 DiffMx= 0.00D+00
 G2DrvN: will do    23 centers at a time, making    1 passes.
 Calling FoFCou, ICntrl=  3107 FMM=F I1Cent=   0 AccDes= 0.00D+00.
 NEqPCM:  Using equilibrium solvation (IEInf=0, Eps=  78.3553, EpsInf=   1.7778)
 G2PCM: DoFxE=T DoFxN=T DoGrad=T DoDP/DQ/DG/TGxP=FFFF NFrqRd=   0 IEInf=0 SqF1=F DoCFld=F IF1Alg=4.
 End of G2Drv F.D. properties file   721 does not exist.
 End of G2Drv F.D. properties file   722 does not exist.
 End of G2Drv F.D. properties file   788 does not exist.
          IDoAtm=1111111111111111111111
 NEqPCM:  Using equilibrium solvation (IEInf=0, Eps=  78.3553, EpsInf=   1.7778)
          Differentiating once with respect to nuclear coordinates.
 Keep R1 ints in memory in canonical form, NReq=253323460.
          There are    69 degrees of freedom in the 1st order CPHF.  IDoFFX=6 NUNeed=     0.
     63 vectors produced by pass  0 Test12= 9.28D-15 1.45D-09 XBig12= 1.48D-01 1.27D-01.
 AX will form    63 AO Fock derivatives at one time.
     63 vectors produced by pass  1 Test12= 9.28D-15 1.45D-09 XBig12= 2.47D-02 3.44D-02.
     63 vectors produced by pass  2 Test12= 9.28D-15 1.45D-09 XBig12= 1.97D-04 2.13D-03.
     63 vectors produced by pass  3 Test12= 9.28D-15 1.45D-09 XBig12= 4.64D-07 9.69D-05.
     63 vectors produced by pass  4 Test12= 9.28D-15 1.45D-09 XBig12= 5.29D-10 3.20D-06.
     36 vectors produced by pass  5 Test12= 9.28D-15 1.45D-09 XBig12= 4.40D-13 8.08D-08.
      2 vectors produced by pass  6 Test12= 9.28D-15 1.45D-09 XBig12= 4.02D-16 2.23D-09.
 InvSVY:  IOpt=1 It=  1 EMax= 4.44D-16
 Solved reduced A of dimension   353 with    69 vectors.
 End of Minotr F.D. properties file   721 does not exist.
 End of Minotr F.D. properties file   722 does not exist.
 End of Minotr F.D. properties file   788 does not exist.

 **********************************************************************

            Population analysis using the SCF density.

 **********************************************************************

 Orbital symmetries:
       Occupied  (A) (A) (A) (A) (A) (A) (A) (A) (A) (A) (A) (A)
                 (A) (A) (A) (A) (A) (A) (A) (A) (A) (A) (A) (A)
                 (A) (A) (A) (A) (A) (A) (A) (A) (A) (A) (A) (A)
                 (A)
       Virtual   (A) (A) (A) (A) (A) (A) (A) (A) (A) (A) (A) (A)
                 (A) (A) (A) (A) (A) (A) (A) (A) (A) (A) (A) (A)
                 (A) (A) (A) (A) (A) (A) (A) (A) (A) (A) (A) (A)
                 (A) (A) (A) (A) (A) (A) (A) (A) (A) (A) (A) (A)
                 (A) (A) (A) (A) (A) (A) (A) (A) (A) (A) (A) (A)
                 (A) (A) (A) (A) (A) (A) (A) (A) (A) (A) (A) (A)
                 (A) (A) (A) (A) (A) (A) (A) (A) (A) (A) (A) (A)
                 (A) (A) (A) (A) (A) (A) (A) (A) (A) (A) (A) (A)
                 (A) (A) (A) (A) (A) (A) (A) (A) (A) (A) (A) (A)
                 (A) (A) (A) (A) (A) (A) (A) (A) (A) (A) (A) (A)
                 (A) (A) (A) (A) (A) (A) (A) (A) (A) (A) (A) (A)
                 (A) (A) (A) (A) (A) (A) (A) (A) (A) (A) (A) (A)
                 (A) (A) (A) (A) (A) (A) (A) (A) (A) (A) (A) (A)
                 (A) (A) (A) (A) (A) (A) (A) (A) (A) (A) (A) (A)
                 (A) (A) (A) (A) (A)
 The electronic state is 1-A.
 Alpha  occ. eigenvalues --  -14.31320 -14.30968 -10.20740 -10.20618 -10.19161
 Alpha  occ. eigenvalues --  -10.19005 -10.18779 -10.18715 -10.18660 -10.18646
 Alpha  occ. eigenvalues --   -0.88946  -0.88302  -0.84257  -0.75870  -0.74161
 Alpha  occ. eigenvalues --   -0.68006  -0.62926  -0.60581  -0.56982  -0.50348
 Alpha  occ. eigenvalues --   -0.49468  -0.47500  -0.45874  -0.44708  -0.42490
 Alpha  occ. eigenvalues --   -0.42419  -0.41529  -0.40391  -0.38742  -0.35998
 Alpha  occ. eigenvalues --   -0.35330  -0.33687  -0.33304  -0.25642  -0.25137
 Alpha  occ. eigenvalues --   -0.23383  -0.22427
 Alpha virt. eigenvalues --   -0.00496  -0.00144   0.09354   0.09600   0.11506
 Alpha virt. eigenvalues --    0.12713   0.13535   0.15013   0.15282   0.16179
 Alpha virt. eigenvalues --    0.17247   0.18264   0.18681   0.19611   0.21064
 Alpha virt. eigenvalues --    0.23570   0.25557   0.26669   0.27670   0.32669
 Alpha virt. eigenvalues --    0.33875   0.34892   0.35586   0.49264   0.50844
 Alpha virt. eigenvalues --    0.52069   0.52472   0.53101   0.54926   0.55656
 Alpha virt. eigenvalues --    0.58161   0.58652   0.59540   0.59904   0.62178
 Alpha virt. eigenvalues --    0.62487   0.63743   0.65969   0.67621   0.69875
 Alpha virt. eigenvalues --    0.70526   0.72568   0.72875   0.73409   0.74994
 Alpha virt. eigenvalues --    0.77421   0.80301   0.80763   0.81336   0.82989
 Alpha virt. eigenvalues --    0.84714   0.85211   0.86746   0.87287   0.88496
 Alpha virt. eigenvalues --    0.88930   0.92065   0.92864   0.94294   0.94883
 Alpha virt. eigenvalues --    0.97707   0.99146   0.99475   1.02813   1.05020
 Alpha virt. eigenvalues --    1.07522   1.12529   1.16600   1.17350   1.19357
 Alpha virt. eigenvalues --    1.24066   1.27479   1.28945   1.31246   1.36900
 Alpha virt. eigenvalues --    1.38803   1.40701   1.41219   1.42929   1.43560
 Alpha virt. eigenvalues --    1.49323   1.55532   1.58457   1.59862   1.67540
 Alpha virt. eigenvalues --    1.67664   1.76794   1.78408   1.81790   1.83460
 Alpha virt. eigenvalues --    1.84285   1.85508   1.86901   1.89355   1.92873
 Alpha virt. eigenvalues --    1.93361   1.94105   1.95013   1.96979   1.98300
 Alpha virt. eigenvalues --    1.98808   2.03497   2.06257   2.07100   2.10420
 Alpha virt. eigenvalues --    2.15493   2.16586   2.17806   2.19344   2.22258
 Alpha virt. eigenvalues --    2.24203   2.24741   2.26136   2.27872   2.29018
 Alpha virt. eigenvalues --    2.30921   2.31793   2.33809   2.35217   2.40032
 Alpha virt. eigenvalues --    2.41497   2.41710   2.41990   2.45619   2.47563
 Alpha virt. eigenvalues --    2.47976   2.51819   2.53994   2.58666   2.59032
 Alpha virt. eigenvalues --    2.59789   2.62190   2.64243   2.65591   2.69523
 Alpha virt. eigenvalues --    2.70754   2.73057   2.74694   2.77378   2.80280
 Alpha virt. eigenvalues --    2.81815   2.86166   2.87947   2.90528   2.93444
 Alpha virt. eigenvalues --    2.96995   2.97649   3.03657   3.06672   3.20249
 Alpha virt. eigenvalues --    3.24913   3.26104   3.27648   3.30389   3.32183
 Alpha virt. eigenvalues --    3.33043   3.37433   3.39159   3.44193   3.50462
 Alpha virt. eigenvalues --    3.55348   3.58690   3.82835   3.96722   3.98073
 Alpha virt. eigenvalues --    4.15246   4.16394   4.22182   4.41535   4.44400
 Alpha virt. eigenvalues --    4.56445   4.58117   4.84768
          Condensed to atoms (all electrons):
               1          2          3          4          5          6
     1  N    6.825681   0.288056  -0.065185  -0.000606  -0.000122   0.000017
     2  C    0.288056   4.887164   0.373974  -0.052539   0.007009   0.000289
     3  C   -0.065185   0.373974   4.749136   0.549883  -0.033028  -0.027555
     4  C   -0.000606  -0.052539   0.549883   4.937110   0.485931  -0.031338
     5  C   -0.000122   0.007009  -0.033028   0.485931   4.933527   0.541450
     6  C    0.000017   0.000289  -0.027555  -0.031338   0.541450   4.801609
     7  C   -0.000000  -0.000000   0.000364   0.005965  -0.052111   0.357784
     8  N   -0.000000  -0.000000   0.000009  -0.000039  -0.003327  -0.082030
     9  C    0.000080   0.005892  -0.030522  -0.050280  -0.032695   0.535455
    10  C    0.005569  -0.063511   0.522122  -0.036238  -0.049888  -0.031797
    11  H    0.335400  -0.031357   0.005774  -0.000025   0.000006  -0.000000
    12  H    0.335125  -0.039581  -0.001209   0.002655  -0.000110  -0.000012
    13  H   -0.045167   0.372258  -0.022453   0.003334  -0.000305   0.000042
    14  H   -0.051727   0.377806  -0.039069  -0.008767   0.000234  -0.000005
    15  H    0.000032  -0.010059  -0.041020   0.365426  -0.039975   0.004007
    16  H    0.000001  -0.000178   0.003888  -0.037613   0.367400  -0.046043
    17  H    0.000000  -0.000000   0.000009  -0.000251   0.004408  -0.038702
    18  H    0.000000  -0.000000   0.000008   0.000114  -0.005578  -0.039019
    19  H    0.000000  -0.000000  -0.000012  -0.000003  -0.000129  -0.000524
    20  H    0.000000   0.000000  -0.000011  -0.000167   0.005123  -0.000357
    21  H   -0.000001  -0.000172   0.003738   0.000619   0.005276  -0.045953
    22  H    0.005353  -0.009204  -0.047042   0.005382   0.000605   0.004161
               7          8          9         10         11         12
     1  N   -0.000000  -0.000000   0.000080   0.005569   0.335400   0.335125
     2  C   -0.000000  -0.000000   0.005892  -0.063511  -0.031357  -0.039581
     3  C    0.000364   0.000009  -0.030522   0.522122   0.005774  -0.001209
     4  C    0.005965  -0.000039  -0.050280  -0.036238  -0.000025   0.002655
     5  C   -0.052111  -0.003327  -0.032695  -0.049888   0.000006  -0.000110
     6  C    0.357784  -0.082030   0.535455  -0.031797  -0.000000  -0.000012
     7  C    4.897767   0.319742  -0.052641   0.005943   0.000000  -0.000000
     8  N    0.319742   6.775025  -0.003061  -0.000029   0.000000   0.000000
     9  C   -0.052641  -0.003061   4.930859   0.493619   0.000007  -0.000088
    10  C    0.005943  -0.000029   0.493619   4.939691   0.000043  -0.000666
    11  H    0.000000   0.000000   0.000007   0.000043   0.474981  -0.030478
    12  H   -0.000000   0.000000  -0.000088  -0.000666  -0.030478   0.482311
    13  H    0.000000   0.000000  -0.000150  -0.009096  -0.002459   0.007114
    14  H   -0.000000   0.000000  -0.000172   0.007310  -0.005374  -0.004510
    15  H   -0.000164   0.000003   0.000562   0.005790  -0.000035   0.000071
    16  H   -0.008248   0.000558   0.005250   0.000633  -0.000000   0.000001
    17  H    0.376733  -0.037659  -0.005589   0.000100  -0.000000  -0.000000
    18  H    0.376755  -0.037816   0.004457  -0.000247  -0.000000  -0.000000
    19  H   -0.046103   0.342924   0.005098  -0.000165  -0.000000  -0.000000
    20  H   -0.046229   0.342914  -0.000155  -0.000007  -0.000000  -0.000000
    21  H   -0.008111   0.000558   0.368096  -0.038179  -0.000000   0.000001
    22  H   -0.000165   0.000003  -0.039447   0.368902  -0.000174  -0.000011
              13         14         15         16         17         18
     1  N   -0.045167  -0.051727   0.000032   0.000001   0.000000   0.000000
     2  C    0.372258   0.377806  -0.010059  -0.000178  -0.000000  -0.000000
     3  C   -0.022453  -0.039069  -0.041020   0.003888   0.000009   0.000008
     4  C    0.003334  -0.008767   0.365426  -0.037613  -0.000251   0.000114
     5  C   -0.000305   0.000234  -0.039975   0.367400   0.004408  -0.005578
     6  C    0.000042  -0.000005   0.004007  -0.046043  -0.038702  -0.039019
     7  C    0.000000  -0.000000  -0.000164  -0.008248   0.376733   0.376755
     8  N    0.000000   0.000000   0.000003   0.000558  -0.037659  -0.037816
     9  C   -0.000150  -0.000172   0.000562   0.005250  -0.005589   0.004457
    10  C   -0.009096   0.007310   0.005790   0.000633   0.000100  -0.000247
    11  H   -0.002459  -0.005374  -0.000035  -0.000000  -0.000000  -0.000000
    12  H    0.007114  -0.004510   0.000071   0.000001  -0.000000  -0.000000
    13  H    0.630907  -0.048888   0.000091   0.000003  -0.000000  -0.000000
    14  H   -0.048888   0.675073   0.007010  -0.000005   0.000000   0.000000
    15  H    0.000091   0.007010   0.618471  -0.005525   0.000003  -0.000003
    16  H    0.000003  -0.000005  -0.005525   0.619201   0.000111   0.005001
    17  H   -0.000000   0.000000   0.000003   0.000111   0.617208  -0.035517
    18  H   -0.000000   0.000000  -0.000003   0.005001  -0.035517   0.617653
    19  H   -0.000000   0.000000   0.000000   0.000043  -0.005509   0.006842
    20  H   -0.000000   0.000000   0.000004   0.000884   0.006842  -0.005329
    21  H   -0.000001   0.000003   0.000018  -0.000168   0.004878   0.000110
    22  H    0.001859   0.000263  -0.000163   0.000019  -0.000003   0.000003
              19         20         21         22
     1  N    0.000000   0.000000  -0.000001   0.005353
     2  C   -0.000000   0.000000  -0.000172  -0.009204
     3  C   -0.000012  -0.000011   0.003738  -0.047042
     4  C   -0.000003  -0.000167   0.000619   0.005382
     5  C   -0.000129   0.005123   0.005276   0.000605
     6  C   -0.000524  -0.000357  -0.045953   0.004161
     7  C   -0.046103  -0.046229  -0.008111  -0.000165
     8  N    0.342924   0.342914   0.000558   0.000003
     9  C    0.005098  -0.000155   0.368096  -0.039447
    10  C   -0.000165  -0.000007  -0.038179   0.368902
    11  H   -0.000000  -0.000000  -0.000000  -0.000174
    12  H   -0.000000  -0.000000   0.000001  -0.000011
    13  H   -0.000000  -0.000000  -0.000001   0.001859
    14  H    0.000000   0.000000   0.000003   0.000263
    15  H    0.000000   0.000004   0.000018  -0.000163
    16  H    0.000043   0.000884  -0.000168   0.000019
    17  H   -0.005509   0.006842   0.004878  -0.000003
    18  H    0.006842  -0.005329   0.000110   0.000003
    19  H    0.479419  -0.033594   0.000933   0.000004
    20  H   -0.033594   0.479339   0.000048   0.000000
    21  H    0.000933   0.000048   0.618384  -0.005504
    22  H    0.000004   0.000000  -0.005504   0.621202
 Mulliken charges:
               1
     1  N   -0.632506
     2  C   -0.105848
     3  C    0.098202
     4  C   -0.138552
     5  C   -0.133697
     6  C    0.098523
     7  C   -0.127281
     8  N   -0.617775
     9  C   -0.134577
    10  C   -0.119901
    11  H    0.253692
    12  H    0.249387
    13  H    0.112909
    14  H    0.090818
    15  H    0.095458
    16  H    0.094787
    17  H    0.112938
    18  H    0.112567
    19  H    0.250775
    20  H    0.250696
    21  H    0.095426
    22  H    0.093957
 Sum of Mulliken charges =  -0.00000
 Mulliken charges with hydrogens summed into heavy atoms:
               1
     1  N   -0.129428
     2  C    0.097880
     3  C    0.098202
     4  C   -0.043094
     5  C   -0.038910
     6  C    0.098523
     7  C    0.098224
     8  N   -0.116303
     9  C   -0.039151
    10  C   -0.025944
 APT charges:
               1
     1  N   -1.396258
     2  C   -0.646068
     3  C   -0.102065
     4  C   -0.514048
     5  C   -0.511454
     6  C    0.007949
     7  C   -0.870790
     8  N   -0.579445
     9  C   -0.509374
    10  C   -0.499823
    11  H    0.968914
    12  H    0.292473
    13  H    0.453296
    14  H    0.440741
    15  H    0.500233
    16  H    0.501788
    17  H    0.456215
    18  H    0.467021
    19  H    0.281572
    20  H    0.290063
    21  H    0.487853
    22  H    0.481209
 Sum of APT charges =  -0.00000
 APT charges with hydrogens summed into heavy atoms:
               1
     1  N   -0.134871
     2  C    0.247968
     3  C   -0.102065
     4  C   -0.013815
     5  C   -0.009666
     6  C    0.007949
     7  C    0.052445
     8  N   -0.007810
     9  C   -0.021521
    10  C   -0.018614
 Electronic spatial extent (au):  <R**2>=           1886.4634
 Charge=             -0.0000 electrons
 Dipole moment (field-independent basis, Debye):
    X=             -2.0649    Y=              1.5413    Z=              0.4323  Tot=              2.6128
 Quadrupole moment (field-independent basis, Debye-Ang):
   XX=            -63.1107   YY=            -56.7993   ZZ=            -59.3589
   XY=             -4.2451   XZ=             -2.6371   YZ=              2.7205
 Traceless Quadrupole moment (field-independent basis, Debye-Ang):
   XX=             -3.3544   YY=              2.9570   ZZ=              0.3974
   XY=             -4.2451   XZ=             -2.6371   YZ=              2.7205
 Octapole moment (field-independent basis, Debye-Ang**2):
  XXX=           -102.2954  YYY=              1.8897  ZZZ=             15.6407  XYY=             12.3799
  XXY=             19.1024  XXZ=             -6.6281  XZZ=             -3.3460  YZZ=              0.0092
  YYZ=              0.4907  XYZ=             -4.5893
 Hexadecapole moment (field-independent basis, Debye-Ang**3):
 XXXX=          -2051.5718 YYYY=           -322.2276 ZZZZ=           -182.5695 XXXY=            -21.4307
 XXXZ=           -112.8656 YYYX=            -13.6486 YYYZ=              6.1012 ZZZX=             -3.5341
 ZZZY=              1.1026 XXYY=           -380.9301 XXZZ=           -335.2028 YYZZ=            -93.0985
 XXYZ=             22.6778 YYXZ=             11.6019 ZZXY=             -3.4049
 N-N= 5.000599776659D+02 E-N=-1.978094488908D+03  KE= 4.176082117706D+02
  Exact polarizability:   0.000   0.000   0.000   0.000   0.000   0.000
 Approx polarizability: 182.195   0.922 161.764   1.121  10.924  86.245
 D2PCM: PCM CHGder 2nd derivatives, FixD1E=F FixD2E=F DoIter=F DoCFld=F I1PDM=0
 Calling FoFJK, ICntrl=    100147 FMM=F ISym2X=0 I1Cent= 0 IOpClX= 0 NMat=1 NMatS=1 NMatT=0.
 ***** Axes restored to original set *****
 -------------------------------------------------------------------
 Center     Atomic                   Forces (Hartrees/Bohr)
 Number     Number              X              Y              Z
 -------------------------------------------------------------------
      1        7           0.000097715    0.009687987    0.011822804
      2        6          -0.003389058   -0.001892135   -0.008624761
      3        6           0.000219799   -0.001824887   -0.002308312
      4        6           0.003635303    0.001115360    0.001414958
      5        6          -0.003512415    0.000040476    0.001867378
      6        6          -0.003661941   -0.007823711   -0.001014793
      7        6          -0.004839713   -0.003790778    0.000066309
      8        7           0.012942016    0.007142705   -0.000145609
      9        6          -0.006802216    0.000772920   -0.000528267
     10        6           0.003362945    0.001613303    0.000605398
     11        1          -0.000027996    0.000930372   -0.000226523
     12        1          -0.001980899   -0.000558258   -0.000352137
     13        1          -0.002109423    0.001598276    0.002066316
     14        1           0.003360305   -0.008541686   -0.003906580
     15        1          -0.001543437   -0.000004674    0.001215569
     16        1           0.000868751   -0.000890729    0.000947147
     17        1           0.000921393    0.002133468    0.000637219
     18        1           0.000862551    0.001881995   -0.001024751
     19        1           0.000467588    0.000143309   -0.000956272
     20        1           0.000316834    0.000239075    0.000649384
     21        1           0.001106012   -0.001324942   -0.000677069
     22        1          -0.000294114   -0.000647447   -0.001527410
 -------------------------------------------------------------------
 Cartesian Forces:  Max     0.012942016 RMS     0.003690735
 FormGI is forming the generalized inverse of G from B-inverse, IUseBI=4.

 GradGradGradGradGradGradGradGradGradGradGradGradGradGradGradGradGradGrad
 Berny optimization.
 Internal  Forces:  Max     0.016528375 RMS     0.003323370
 Search for a local minimum.
 Step number   1 out of a maximum of  116
 All quantities printed in internal units (Hartrees-Bohrs-Radians)
 Mixed Optimization -- RFO/linear search
 Second derivative matrix not updated -- analytic derivatives used.
 ITU=  0
     Eigenvalues ---    0.00006   0.00096   0.00264   0.00309   0.01591
     Eigenvalues ---    0.01621   0.01726   0.02033   0.02106   0.02360
     Eigenvalues ---    0.02571   0.02699   0.02737   0.03317   0.03634
     Eigenvalues ---    0.05437   0.05457   0.05936   0.05977   0.08839
     Eigenvalues ---    0.09031   0.11309   0.11543   0.11913   0.12368
     Eigenvalues ---    0.12750   0.12828   0.15117   0.15293   0.17162
     Eigenvalues ---    0.17572   0.18317   0.19158   0.19285   0.19477
     Eigenvalues ---    0.20124   0.22202   0.22878   0.29095   0.30346
     Eigenvalues ---    0.31799   0.32203   0.32939   0.33135   0.33269
     Eigenvalues ---    0.35301   0.35630   0.35708   0.35808   0.38216
     Eigenvalues ---    0.38473   0.41217   0.41780   0.44007   0.44092
     Eigenvalues ---    0.44197   0.44673   0.46452   0.46534   0.50368
 RFO step:  Lambda=-5.11053887D-03 EMin= 5.77879004D-05
 Linear search not attempted -- first point.
 Iteration  1 RMS(Cart)=  0.04839098 RMS(Int)=  0.00082840
 Iteration  2 RMS(Cart)=  0.00133617 RMS(Int)=  0.00019624
 Iteration  3 RMS(Cart)=  0.00000181 RMS(Int)=  0.00019623
 Iteration  4 RMS(Cart)=  0.00000000 RMS(Int)=  0.00019623
 Variable       Old X    -DE/DX   Delta X   Delta X   Delta X     New X
                                 (Linear)    (Quad)   (Total)
    R1        2.75497   0.01291   0.00000   0.02903   0.02903   2.78400
    R2        1.92295   0.00016   0.00000   0.00227   0.00227   1.92522
    R3        1.92557  -0.00104   0.00000  -0.00007  -0.00007   1.92549
    R4        2.84778   0.00415   0.00000   0.01326   0.01326   2.86104
    R5        2.07099   0.00107   0.00000   0.00295   0.00295   2.07394
    R6        2.07132   0.00395   0.00000   0.01005   0.01005   2.08137
    R7        2.64724  -0.00141   0.00000  -0.00347  -0.00347   2.64377
    R8        2.64886  -0.00035   0.00000   0.00229   0.00230   2.65116
    R9        2.64124   0.00017   0.00000  -0.00108  -0.00107   2.64017
   R10        2.05510  -0.00033   0.00000  -0.00031  -0.00031   2.05479
   R11        2.64809  -0.00083   0.00000  -0.00277  -0.00277   2.64532
   R12        2.05583  -0.00027   0.00000  -0.00033  -0.00033   2.05550
   R13        2.84684   0.00988   0.00000   0.02122   0.02122   2.86805
   R14        2.64714   0.00157   0.00000   0.00532   0.00531   2.65245
   R15        2.75602   0.01290   0.00000   0.03196   0.03196   2.78797
   R16        2.07128  -0.00014   0.00000  -0.00061  -0.00061   2.07068
   R17        2.07126  -0.00010   0.00000  -0.00069  -0.00069   2.07057
   R18        1.92672  -0.00078   0.00000  -0.00024  -0.00024   1.92648
   R19        1.92611  -0.00054   0.00000   0.00039   0.00039   1.92650
   R20        2.63945  -0.00132   0.00000  -0.00680  -0.00680   2.63265
   R21        2.05552  -0.00012   0.00000   0.00031   0.00031   2.05583
   R22        2.05692  -0.00126   0.00000  -0.00364  -0.00364   2.05328
    A1        1.90466   0.00102   0.00000  -0.00517  -0.00520   1.89945
    A2        1.89746  -0.00000   0.00000  -0.00351  -0.00355   1.89392
    A3        1.85921  -0.00111   0.00000  -0.01675  -0.01684   1.84238
    A4        1.94467  -0.00167   0.00000  -0.00644  -0.00682   1.93785
    A5        1.91555  -0.00442   0.00000  -0.04240  -0.04230   1.87325
    A6        1.90576   0.00966   0.00000   0.07408   0.07439   1.98016
    A7        1.90599   0.00245   0.00000   0.00447   0.00389   1.90988
    A8        1.92609  -0.00515   0.00000  -0.02529  -0.02571   1.90038
    A9        1.86405  -0.00088   0.00000  -0.00484  -0.00433   1.85972
   A10        2.10911   0.00190   0.00000   0.00569   0.00569   2.11480
   A11        2.10102   0.00058   0.00000   0.00395   0.00395   2.10498
   A12        2.07305  -0.00248   0.00000  -0.00964  -0.00965   2.06340
   A13        2.10411   0.00166   0.00000   0.00643   0.00641   2.11052
   A14        2.10137  -0.00280   0.00000  -0.01645  -0.01645   2.08492
   A15        2.07771   0.00114   0.00000   0.01002   0.01002   2.08773
   A16        2.10478   0.00157   0.00000   0.00567   0.00565   2.11043
   A17        2.08106   0.00052   0.00000   0.00528   0.00528   2.08634
   A18        2.09734  -0.00209   0.00000  -0.01094  -0.01094   2.08641
   A19        2.10436   0.00186   0.00000   0.00757   0.00758   2.11194
   A20        2.07480  -0.00387   0.00000  -0.01376  -0.01378   2.06102
   A21        2.10343   0.00200   0.00000   0.00611   0.00612   2.10955
   A22        1.94170   0.01653   0.00000   0.06592   0.06616   2.00786
   A23        1.92115  -0.00374   0.00000  -0.00855  -0.00814   1.91301
   A24        1.92115  -0.00379   0.00000  -0.00857  -0.00819   1.91296
   A25        1.91240  -0.00639   0.00000  -0.03372  -0.03399   1.87841
   A26        1.91182  -0.00625   0.00000  -0.03239  -0.03268   1.87915
   A27        1.85356   0.00285   0.00000   0.01414   0.01351   1.86707
   A28        1.89228   0.00105   0.00000   0.00089   0.00089   1.89317
   A29        1.89365   0.00067   0.00000  -0.00068  -0.00069   1.89297
   A30        1.83568  -0.00066   0.00000  -0.00591  -0.00591   1.82978
   A31        2.10290   0.00219   0.00000   0.00917   0.00914   2.11204
   A32        2.10046  -0.00262   0.00000  -0.01635  -0.01635   2.08412
   A33        2.07982   0.00043   0.00000   0.00720   0.00720   2.08702
   A34        2.10662   0.00093   0.00000   0.00234   0.00232   2.10894
   A35        2.09015  -0.00148   0.00000  -0.00832  -0.00833   2.08182
   A36        2.08636   0.00056   0.00000   0.00608   0.00607   2.09243
    D1        3.01458   0.00000   0.00000   0.06005   0.06006   3.07464
    D2       -1.15525  -0.00099   0.00000   0.03284   0.03335  -1.12191
    D3        0.88255   0.00100   0.00000   0.04560   0.04516   0.92771
    D4        0.99332   0.00077   0.00000   0.08472   0.08468   1.07800
    D5        3.10667  -0.00022   0.00000   0.05752   0.05797  -3.11854
    D6       -1.13871   0.00177   0.00000   0.07027   0.06978  -1.06893
    D7       -1.97681  -0.00426   0.00000  -0.07024  -0.07014  -2.04695
    D8        1.16070  -0.00433   0.00000  -0.07107  -0.07095   1.08975
    D9        2.18745   0.00072   0.00000  -0.01589  -0.01583   2.17162
   D10       -0.95823   0.00065   0.00000  -0.01672  -0.01664  -0.97486
   D11        0.14344   0.00333   0.00000   0.00202   0.00183   0.14528
   D12       -3.00223   0.00326   0.00000   0.00120   0.00102  -3.00121
   D13       -3.13904   0.00002   0.00000  -0.00090  -0.00093  -3.13997
   D14        0.00361  -0.00030   0.00000  -0.00919  -0.00917  -0.00555
   D15        0.00657   0.00008   0.00000  -0.00012  -0.00017   0.00640
   D16       -3.13396  -0.00024   0.00000  -0.00840  -0.00841   3.14082
   D17        3.13931   0.00000   0.00000   0.00169   0.00172   3.14103
   D18       -0.01347   0.00043   0.00000   0.01313   0.01313  -0.00034
   D19       -0.00628  -0.00005   0.00000   0.00092   0.00097  -0.00532
   D20        3.12412   0.00037   0.00000   0.01236   0.01238   3.13650
   D21        0.00390  -0.00036   0.00000  -0.00848  -0.00856  -0.00466
   D22       -3.13790  -0.00030   0.00000  -0.00997  -0.01004   3.13524
   D23       -3.13874  -0.00004   0.00000  -0.00032  -0.00032  -3.13906
   D24        0.00264   0.00002   0.00000  -0.00182  -0.00180   0.00084
   D25       -3.11913   0.00076   0.00000   0.01830   0.01830  -3.10083
   D26       -0.01454   0.00064   0.00000   0.01617   0.01615   0.00161
   D27        0.02267   0.00069   0.00000   0.01980   0.01978   0.04245
   D28        3.12726   0.00058   0.00000   0.01767   0.01764  -3.13829
   D29        1.55876  -0.00007   0.00000   0.00335   0.00333   1.56209
   D30       -2.60115   0.00036   0.00000  -0.00102  -0.00090  -2.60204
   D31       -0.56380  -0.00063   0.00000   0.00606   0.00591  -0.55789
   D32       -1.54522   0.00017   0.00000   0.00593   0.00595  -1.53927
   D33        0.57806   0.00060   0.00000   0.00157   0.00172   0.57978
   D34        2.61541  -0.00039   0.00000   0.00865   0.00853   2.62394
   D35        0.01482  -0.00061   0.00000  -0.01534  -0.01535  -0.00053
   D36       -3.12405  -0.00072   0.00000  -0.02315  -0.02309   3.13605
   D37        3.11943  -0.00073   0.00000  -0.01744  -0.01746   3.10197
   D38       -0.01944  -0.00084   0.00000  -0.02524  -0.02519  -0.04464
   D39        0.99943   0.00003   0.00000  -0.00593  -0.00594   0.99349
   D40       -0.98550  -0.00008   0.00000   0.00088   0.00087  -0.98463
   D41       -1.12894  -0.00184   0.00000  -0.01583  -0.01532  -1.14426
   D42       -3.11386  -0.00195   0.00000  -0.00902  -0.00851  -3.12237
   D43        3.12741   0.00193   0.00000   0.00481   0.00431   3.13172
   D44        1.14249   0.00182   0.00000   0.01162   0.01112   1.15361
   D45       -0.00448   0.00031   0.00000   0.00689   0.00695   0.00246
   D46       -3.13492  -0.00011   0.00000  -0.00443  -0.00444  -3.13936
   D47        3.13442   0.00041   0.00000   0.01457   0.01466  -3.13411
   D48        0.00398   0.00000   0.00000   0.00325   0.00327   0.00725
         Item               Value     Threshold  Converged?
 Maximum Force            0.016528     0.000450     NO 
 RMS     Force            0.003323     0.000300     NO 
 Maximum Displacement     0.223811     0.001800     NO 
 RMS     Displacement     0.048561     0.001200     NO 
 Predicted change in Energy=-2.700508D-03
 GradGradGradGradGradGradGradGradGradGradGradGradGradGradGradGradGradGrad

                          Input orientation:                          
 ---------------------------------------------------------------------
 Center     Atomic      Atomic             Coordinates (Angstroms)
 Number     Number       Type             X           Y           Z
 ---------------------------------------------------------------------
      1          7           0       -3.281877    1.316158    0.422091
      2          6           0       -2.897622   -0.021629   -0.060685
      3          6           0       -1.394143   -0.197763   -0.033930
      4          6           0       -0.669510   -0.415078   -1.210770
      5          6           0        0.717630   -0.578868   -1.179932
      6          6           0        1.421618   -0.524558    0.028789
      7          6           0        2.933850   -0.649764    0.059072
      8          7           0        3.668503    0.623614   -0.065029
      9          6           0        0.693594   -0.302895    1.208192
     10          6           0       -0.689755   -0.140795    1.178016
     11          1           0       -4.291011    1.421595    0.330190
     12          1           0       -2.876383    2.013547   -0.200353
     13          1           0       -3.363243   -0.756721    0.608123
     14          1           0       -3.264547   -0.243693   -1.075164
     15          1           0       -1.195350   -0.463557   -2.161278
     16          1           0        1.257868   -0.752559   -2.107897
     17          1           0        3.244978   -1.122199    0.997519
     18          1           0        3.264834   -1.305246   -0.754163
     19          1           0        3.362535    1.247080    0.681265
     20          1           0        3.374535    1.083268   -0.926192
     21          1           0        1.218413   -0.261907    2.160249
     22          1           0       -1.234917    0.031968    2.101886
 ---------------------------------------------------------------------
                    Distance matrix (angstroms):
                    1          2          3          4          5
     1  N    0.000000
     2  C    1.473227   0.000000
     3  C    2.462408   1.513998   0.000000
     4  C    3.533818   2.538106   1.399025   0.000000
     5  C    4.706767   3.825347   2.432724   1.397117   0.000000
     6  C    5.066141   4.349342   2.835354   2.433374   1.399841
     7  C    6.529310   5.866427   4.352525   3.827765   2.540037
     8  N    7.001763   6.597754   5.128938   4.605427   3.375889
     9  C    4.363904   3.819161   2.431577   2.778851   2.404137
    10  C    3.068099   2.534415   1.402933   2.404566   2.780748
    11  H    1.018781   2.043823   3.338675   4.343178   5.600786
    12  H    1.018928   2.040074   2.667325   3.433576   4.538405
    13  H    2.082800   1.097482   2.145232   3.268224   4.458957
    14  H    2.162223   1.101415   2.141189   2.604223   3.997631
    15  H    3.767596   2.739621   2.153085   1.087347   2.153097
    16  H    5.593721   4.689716   3.412081   2.152561   1.087724
    17  H    6.991176   6.329502   4.841479   4.549701   3.379940
    18  H    7.149458   6.332807   4.842656   4.059550   2.682750
    19  H    6.649823   6.430371   5.022455   4.753941   3.713982
    20  H    6.795581   6.427275   5.017715   4.322075   3.144237
    21  H    5.075833   4.683164   3.412328   3.866714   3.392352
    22  H    2.942941   2.728402   2.154029   3.390166   3.867285
                    6          7          8          9         10
     6  C    0.000000
     7  C    1.517709   0.000000
     8  N    2.524994   1.475333   0.000000
     9  C    1.403618   2.541562   3.365946   0.000000
    10  C    2.434315   3.826434   4.596074   1.393141   0.000000
    11  H    6.042556   7.520814   8.009172   5.347059   4.016083
    12  H    4.996727   6.396822   6.692216   4.482704   3.364882
    13  H    4.825393   6.321889   7.197493   4.126011   2.802085
    14  H    4.822627   6.314389   7.059729   4.569913   3.423005
    15  H    3.413009   4.692006   5.406780   3.866167   3.392740
    16  H    2.155046   2.741393   3.446494   3.393677   3.868425
    17  H    2.149479   1.095755   2.087162   2.687974   4.059293
    18  H    2.149403   1.095700   2.087667   3.386269   4.552805
    19  H    2.707690   2.041791   1.019452   3.131025   4.312077
    20  H    2.703882   2.041654   1.019461   3.696551   4.737560
    21  H    2.157174   2.740091   3.426215   1.087900   2.149547
    22  H    3.415352   4.692170   5.393430   2.151738   1.086547
                   11         12         13         14         15
    11  H    0.000000
    12  H    1.622670   0.000000
    13  H    2.383918   2.926611   0.000000
    14  H    2.408699   2.451753   1.762497   0.000000
    15  H    4.398219   3.578706   3.529205   2.347245   0.000000
    16  H    6.439043   5.327485   5.360172   4.666660   2.470759
    17  H    7.981689   6.981322   6.629765   6.887794   5.488927
    18  H    8.105694   7.002544   6.788822   6.622895   4.752015
    19  H    7.663581   6.347347   7.018308   7.016100   5.637432
    20  H    7.775189   6.361307   7.151038   6.772033   4.980156
    21  H    6.044588   5.245710   4.862664   5.528576   4.954039
    22  H    3.796009   3.452734   2.717192   3.780084   4.292048
                   16         17         18         19         20
    16  H    0.000000
    17  H    3.705246   0.000000
    18  H    2.483136   1.761333   0.000000
    19  H    4.025867   2.393182   2.929909   0.000000
    20  H    3.040883   2.929426   2.397212   1.615827   0.000000
    21  H    4.296436   2.489781   3.710821   3.010264   3.998059
    22  H    4.954970   4.756174   5.494808   4.962985   5.614404
                   21         22
    21  H    0.000000
    22  H    2.471557   0.000000
 Stoichiometry    C8H12N2
 Framework group  C1[X(C8H12N2)]
 Deg. of freedom    60
 Full point group                 C1      NOp   1
 Largest Abelian subgroup         C1      NOp   1
 Largest concise Abelian subgroup C1      NOp   1
                         Standard orientation:                         
 ---------------------------------------------------------------------
 Center     Atomic      Atomic             Coordinates (Angstroms)
 Number     Number       Type             X           Y           Z
 ---------------------------------------------------------------------
      1          7           0       -3.452739   -0.565766    0.875196
      2          6           0       -2.918765    0.240040   -0.236536
      3          6           0       -1.406347    0.181173   -0.272763
      4          6           0       -0.632327    1.332120   -0.089777
      5          6           0        0.763034    1.272243   -0.126124
      6          6           0        1.425505    0.057971   -0.341138
      7          6           0        2.941233   -0.018557   -0.328788
      8          7           0        3.542368   -0.283840    0.992147
      9          6           0        0.647594   -1.096435   -0.520983
     10          6           0       -0.743839   -1.036940   -0.486084
     11          1           0       -4.464598   -0.451725    0.907613
     12          1           0       -3.105801   -0.178321    1.751401
     13          1           0       -3.322778   -0.178514   -1.167156
     14          1           0       -3.233771    1.294951   -0.204152
     15          1           0       -1.125079    2.287063    0.076361
     16          1           0        1.342638    2.182098    0.013038
     17          1           0        3.275050   -0.809211   -1.010045
     18          1           0        3.359920    0.922837   -0.701665
     19          1           0        3.153645   -1.153568    1.355119
     20          1           0        3.224910    0.435077    1.641515
     21          1           0        1.140069   -2.050782   -0.694811
     22          1           0       -1.328134   -1.942344   -0.625465
 ---------------------------------------------------------------------
 Rotational constants (GHZ):           3.4770576           0.6580226           0.6174039
 Standard basis: 6-31G(d,p) (6D, 7F)
 There are   210 symmetry adapted cartesian basis functions of A   symmetry.
 There are   210 symmetry adapted basis functions of A   symmetry.
   210 basis functions,   364 primitive gaussians,   210 cartesian basis functions
    37 alpha electrons       37 beta electrons
       nuclear repulsion energy       497.5307054772 Hartrees.
 NAtoms=   22 NActive=   22 NUniq=   22 SFac= 1.00D+00 NAtFMM=   60 NAOKFM=F Big=F
 Integral buffers will be    131072 words long.
 Raffenetti 2 integral format.
 Two-electron integral symmetry is turned on.
 ------------------------------------------------------------------------------
 Polarizable Continuum Model (PCM)
 =================================
 Model                : PCM.
 Atomic radii         : UFF (Universal Force Field).
 Polarization charges : Total charges.
 Charge compensation  : None.
 Solution method      : Matrix inversion.
 Cavity type          : Scaled VdW (van der Waals Surface) (Alpha=1.100).
 Cavity algorithm     : GePol (No added spheres)
                        Default sphere list used, NSphG=   22.
                        Lebedev-Laikov grids with approx.  5.0 points / Ang**2.
                        Smoothing algorithm: York/Karplus (Gamma=1.0000).
                        Polarization charges: spherical gaussians, with
                                              point-specific exponents (IZeta= 3).
                        Self-potential: point-specific (ISelfS= 7).
                        Self-field    : sphere-specific E.n sum rule (ISelfD= 2).
 1st derivatives      : Analytical E(r).r(x)/FMM algorithm (CHGder, D1EAlg=3).
                        Cavity 1st derivative terms included.
 Solvent              : Water, Eps=  78.355300 Eps(inf)=   1.777849
 ------------------------------------------------------------------------------
 One-electron integrals computed using PRISM.
 NBasis=   210 RedAO= T EigKep=  4.27D-04  NBF=   210
 NBsUse=   210 1.00D-06 EigRej= -1.00D+00 NBFU=   210
 Initial guess from the checkpoint file:  "ISKQADXMHQSTHK-UHFFFAOYSA-N_conf_2_0.chk"
 B after Tr=     0.000000    0.000000    0.000000
         Rot=    0.999762   -0.021685   -0.002400    0.000444 Ang=  -2.50 deg.
 ExpMin= 1.61D-01 ExpMax= 4.17D+03 ExpMxC= 6.27D+02 IAcc=2 IRadAn=         4 AccDes= 0.00D+00
 Harris functional with IExCor=  402 and IRadAn=       4 diagonalized for initial guess.
 HarFok:  IExCor=  402 AccDes= 0.00D+00 IRadAn=         4 IDoV= 1 UseB2=F ITyADJ=14
 ICtDFT=  3500011 ScaDFX=  1.000000  1.000000  1.000000  1.000000
 FoFCou: FMM=F IPFlag=           0 FMFlag=      100000 FMFlg1=           0
         NFxFlg=           0 DoJE=T BraDBF=F KetDBF=T FulRan=T
         wScrn=  0.000000 ICntrl=       500 IOpCl=  0 I1Cent=   200000004 NGrid=           0
         NMat0=    1 NMatS0=      1 NMatT0=    0 NMatD0=    1 NMtDS0=    0 NMtDT0=    0
 Petite list used in FoFCou.
 Keep R1 ints in memory in canonical form, NReq=250131393.
 Requested convergence on RMS density matrix=1.00D-08 within  32 cycles.
 Requested convergence on MAX density matrix=1.00D-06.
 Requested convergence on             energy=1.00D-06.
 No special actions if energy rises.
 Inv3:  Mode=1 IEnd=     8588592.
 Iteration    1 A*A^-1 deviation from unit magnitude is 6.44D-15 for    790.
 Iteration    1 A*A^-1 deviation from orthogonality  is 3.17D-15 for   1631    697.
 Iteration    1 A^-1*A deviation from unit magnitude is 5.77D-15 for    184.
 Iteration    1 A^-1*A deviation from orthogonality  is 2.43D-13 for   1656   1631.
 Error on total polarization charges =  0.00859
 SCF Done:  E(RB3LYP) =  -421.597081996     A.U. after   10 cycles
            NFock= 10  Conv=0.62D-08     -V/T= 2.0098
 QCSCF skips out because SCF is already converged.
 D1PCM: PCM CHGder 1st derivatives, ID1Alg=3 FixD1E=F DoIter=F DoCFld=F I1PDM=0.
 Calling FoFJK, ICntrl=      2127 FMM=F ISym2X=0 I1Cent= 0 IOpClX= 0 NMat=1 NMatS=1 NMatT=0.
 ***** Axes restored to original set *****
 -------------------------------------------------------------------
 Center     Atomic                   Forces (Hartrees/Bohr)
 Number     Number              X              Y              Z
 -------------------------------------------------------------------
      1        7           0.000525470    0.000965150    0.000918985
      2        6          -0.000289075   -0.000235516   -0.000925267
      3        6          -0.000027871   -0.000324657    0.000304614
      4        6           0.000151813   -0.000019028    0.000017286
      5        6          -0.000192669   -0.000092998   -0.000057239
      6        6          -0.000357806   -0.000593604    0.000055696
      7        6          -0.000538460   -0.000060546   -0.000028557
      8        7           0.001047429    0.000721308   -0.000005556
      9        6          -0.000194440    0.000091006    0.000062950
     10        6           0.000153321    0.000401844   -0.000022043
     11        1          -0.000032007   -0.000101188    0.000330220
     12        1          -0.000506003    0.000059449   -0.000275044
     13        1          -0.000245605   -0.000051164   -0.000103436
     14        1           0.000422001   -0.000403248   -0.000209837
     15        1          -0.000052156   -0.000047306    0.000016352
     16        1           0.000025094   -0.000134324    0.000019255
     17        1           0.000030992   -0.000037742   -0.000029452
     18        1           0.000020361   -0.000002263    0.000004681
     19        1           0.000069050    0.000084341   -0.000062157
     20        1           0.000071662    0.000065974    0.000031960
     21        1          -0.000001740   -0.000214624    0.000002530
     22        1          -0.000079360   -0.000070863   -0.000045941
 -------------------------------------------------------------------
 Cartesian Forces:  Max     0.001047429 RMS     0.000325146

 GradGradGradGradGradGradGradGradGradGradGradGradGradGradGradGradGradGrad
 Berny optimization.
 Using GEDIIS/GDIIS optimizer.
 FormGI is forming the generalized inverse of G from B-inverse, IUseBI=4.
 Internal  Forces:  Max     0.001344200 RMS     0.000276241
 Search for a local minimum.
 Step number   2 out of a maximum of  116
 All quantities printed in internal units (Hartrees-Bohrs-Radians)
 Mixed Optimization -- En-DIIS/RFO-DIIS
 Update second derivatives using D2CorX and points    1    2
 DE= -2.77D-03 DEPred=-2.70D-03 R= 1.02D+00
 TightC=F SS=  1.41D+00  RLast= 2.38D-01 DXNew= 5.0454D-01 7.1525D-01
 Trust test= 1.02D+00 RLast= 2.38D-01 DXMaxT set to 5.05D-01
 ITU=  1  0
 Use linear search instead of GDIIS.
     Eigenvalues ---    0.00006   0.00096   0.00265   0.00309   0.01593
     Eigenvalues ---    0.01621   0.01726   0.02033   0.02106   0.02360
     Eigenvalues ---    0.02571   0.02699   0.02738   0.03319   0.03635
     Eigenvalues ---    0.05436   0.05455   0.05932   0.05961   0.08839
     Eigenvalues ---    0.09027   0.11308   0.11546   0.11916   0.12360
     Eigenvalues ---    0.12773   0.12826   0.15109   0.15280   0.17162
     Eigenvalues ---    0.17561   0.18304   0.19154   0.19285   0.19496
     Eigenvalues ---    0.20118   0.21771   0.22846   0.29099   0.30323
     Eigenvalues ---    0.31845   0.32195   0.32911   0.33135   0.33172
     Eigenvalues ---    0.35301   0.35634   0.35707   0.35808   0.37399
     Eigenvalues ---    0.38236   0.41211   0.41755   0.44008   0.44093
     Eigenvalues ---    0.44197   0.44674   0.46455   0.46534   0.50366
 RFO step:  Lambda=-5.03338191D-04 EMin= 5.78605366D-05
 Quartic linear search produced a step of  0.11305.
 Iteration  1 RMS(Cart)=  0.10269462 RMS(Int)=  0.02763461
 Iteration  2 RMS(Cart)=  0.05675470 RMS(Int)=  0.00183296
 Iteration  3 RMS(Cart)=  0.00242494 RMS(Int)=  0.00004240
 Iteration  4 RMS(Cart)=  0.00000282 RMS(Int)=  0.00004236
 Iteration  5 RMS(Cart)=  0.00000000 RMS(Int)=  0.00004236
 Variable       Old X    -DE/DX   Delta X   Delta X   Delta X     New X
                                 (Linear)    (Quad)   (Total)
    R1        2.78400   0.00116   0.00328  -0.00642  -0.00313   2.78086
    R2        1.92522  -0.00001   0.00026  -0.00076  -0.00050   1.92472
    R3        1.92549   0.00001  -0.00001  -0.00033  -0.00033   1.92516
    R4        2.86104   0.00016   0.00150   0.00265   0.00415   2.86519
    R5        2.07394   0.00007   0.00033   0.00140   0.00173   2.07567
    R6        2.08137   0.00013   0.00114  -0.00059   0.00055   2.08192
    R7        2.64377   0.00004  -0.00039  -0.00077  -0.00114   2.64263
    R8        2.65116  -0.00003   0.00026   0.00108   0.00136   2.65252
    R9        2.64017   0.00000  -0.00012   0.00115   0.00103   2.64120
   R10        2.05479   0.00001  -0.00004  -0.00007  -0.00010   2.05469
   R11        2.64532   0.00012  -0.00031  -0.00053  -0.00086   2.64445
   R12        2.05550   0.00002  -0.00004   0.00014   0.00010   2.05560
   R13        2.86805   0.00063   0.00240  -0.00127   0.00113   2.86918
   R14        2.65245   0.00015   0.00060   0.00053   0.00111   2.65357
   R15        2.78797   0.00134   0.00361  -0.00023   0.00338   2.79135
   R16        2.07068  -0.00000  -0.00007   0.00030   0.00023   2.07091
   R17        2.07057   0.00000  -0.00008   0.00015   0.00007   2.07064
   R18        1.92648  -0.00002  -0.00003   0.00009   0.00007   1.92655
   R19        1.92650  -0.00002   0.00004   0.00004   0.00008   1.92658
   R20        2.63265  -0.00000  -0.00077  -0.00024  -0.00101   2.63164
   R21        2.05583  -0.00001   0.00004   0.00017   0.00021   2.05604
   R22        2.05328  -0.00001  -0.00041  -0.00095  -0.00136   2.05191
    A1        1.89945   0.00001  -0.00059   0.00070   0.00010   1.89955
    A2        1.89392   0.00014  -0.00040   0.00499   0.00458   1.89849
    A3        1.84238  -0.00012  -0.00190   0.00392   0.00200   1.84438
    A4        1.93785  -0.00019  -0.00077   0.01009   0.00924   1.94708
    A5        1.87325  -0.00022  -0.00478  -0.00410  -0.00884   1.86441
    A6        1.98016   0.00070   0.00841   0.00274   0.01116   1.99132
    A7        1.90988   0.00003   0.00044  -0.00261  -0.00222   1.90766
    A8        1.90038  -0.00023  -0.00291  -0.00127  -0.00432   1.89605
    A9        1.85972  -0.00010  -0.00049  -0.00577  -0.00619   1.85353
   A10        2.11480   0.00011   0.00064   0.00078   0.00124   2.11603
   A11        2.10498  -0.00006   0.00045  -0.00104  -0.00078   2.10420
   A12        2.06340  -0.00005  -0.00109   0.00040  -0.00078   2.06263
   A13        2.11052   0.00005   0.00073   0.00004   0.00081   2.11133
   A14        2.08492  -0.00007  -0.00186   0.00130  -0.00059   2.08433
   A15        2.08773   0.00002   0.00113  -0.00131  -0.00020   2.08752
   A16        2.11043   0.00003   0.00064  -0.00025   0.00039   2.11082
   A17        2.08634   0.00002   0.00060  -0.00075  -0.00016   2.08618
   A18        2.08641  -0.00005  -0.00124   0.00101  -0.00024   2.08617
   A19        2.11194   0.00005   0.00086   0.00044   0.00130   2.11325
   A20        2.06102  -0.00012  -0.00156   0.00005  -0.00153   2.05949
   A21        2.10955   0.00007   0.00069  -0.00060   0.00010   2.10965
   A22        2.00786   0.00133   0.00748  -0.00129   0.00621   2.01407
   A23        1.91301  -0.00035  -0.00092   0.00009  -0.00079   1.91222
   A24        1.91296  -0.00036  -0.00093  -0.00020  -0.00108   1.91188
   A25        1.87841  -0.00040  -0.00384   0.00182  -0.00206   1.87635
   A26        1.87915  -0.00039  -0.00369   0.00188  -0.00185   1.87730
   A27        1.86707   0.00011   0.00153  -0.00238  -0.00093   1.86614
   A28        1.89317   0.00019   0.00010   0.00047   0.00057   1.89374
   A29        1.89297   0.00015  -0.00008  -0.00007  -0.00015   1.89282
   A30        1.82978  -0.00010  -0.00067  -0.00007  -0.00073   1.82904
   A31        2.11204   0.00004   0.00103   0.00047   0.00150   2.11355
   A32        2.08412  -0.00005  -0.00185   0.00099  -0.00086   2.08326
   A33        2.08702   0.00001   0.00081  -0.00146  -0.00065   2.08637
   A34        2.10894   0.00004   0.00026  -0.00071  -0.00041   2.10853
   A35        2.08182  -0.00011  -0.00094  -0.00127  -0.00225   2.07957
   A36        2.09243   0.00007   0.00069   0.00199   0.00264   2.09507
    D1        3.07464   0.00034   0.00679   0.13221   0.13904  -3.06950
    D2       -1.12191   0.00013   0.00377   0.13231   0.13615  -0.98576
    D3        0.92771   0.00027   0.00511   0.12411   0.12912   1.05683
    D4        1.07800   0.00041   0.00957   0.12460   0.13421   1.21221
    D5       -3.11854   0.00020   0.00655   0.12470   0.13131  -2.98723
    D6       -1.06893   0.00033   0.00789   0.11650   0.12428  -0.94464
    D7       -2.04695  -0.00045  -0.00793  -0.32779  -0.33571  -2.38265
    D8        1.08975  -0.00046  -0.00802  -0.29466  -0.30265   0.78710
    D9        2.17162  -0.00008  -0.00179  -0.32724  -0.32901   1.84261
   D10       -0.97486  -0.00009  -0.00188  -0.29410  -0.29596  -1.27082
   D11        0.14528   0.00015   0.00021  -0.31818  -0.31802  -0.17274
   D12       -3.00121   0.00013   0.00012  -0.28505  -0.28497   2.99701
   D13       -3.13997  -0.00002  -0.00010   0.03144   0.03134  -3.10862
   D14       -0.00555  -0.00006  -0.00104   0.03610   0.03508   0.02953
   D15        0.00640  -0.00001  -0.00002  -0.00092  -0.00095   0.00546
   D16        3.14082  -0.00005  -0.00095   0.00374   0.00279  -3.13958
   D17        3.14103   0.00002   0.00019  -0.02910  -0.02888   3.11215
   D18       -0.00034   0.00008   0.00148  -0.03757  -0.03606  -0.03640
   D19       -0.00532   0.00001   0.00011   0.00308   0.00319  -0.00213
   D20        3.13650   0.00007   0.00140  -0.00540  -0.00399   3.13251
   D21       -0.00466  -0.00004  -0.00097  -0.00253  -0.00351  -0.00817
   D22        3.13524  -0.00004  -0.00114   0.00368   0.00254   3.13778
   D23       -3.13906  -0.00001  -0.00004  -0.00722  -0.00725   3.13687
   D24        0.00084  -0.00000  -0.00020  -0.00100  -0.00120  -0.00036
   D25       -3.10083   0.00010   0.00207   0.00709   0.00915  -3.09168
   D26        0.00161   0.00010   0.00183   0.00376   0.00558   0.00720
   D27        0.04245   0.00009   0.00224   0.00087   0.00310   0.04555
   D28       -3.13829   0.00010   0.00199  -0.00245  -0.00047  -3.13876
   D29        1.56209   0.00002   0.00038   0.01147   0.01184   1.57393
   D30       -2.60204   0.00016  -0.00010   0.01301   0.01292  -2.58913
   D31       -0.55789  -0.00012   0.00067   0.01006   0.01071  -0.54718
   D32       -1.53927   0.00002   0.00067   0.01487   0.01554  -1.52372
   D33        0.57978   0.00016   0.00019   0.01641   0.01662   0.59641
   D34        2.62394  -0.00012   0.00096   0.01347   0.01442   2.63836
   D35       -0.00053  -0.00010  -0.00174  -0.00161  -0.00334  -0.00388
   D36        3.13605  -0.00014  -0.00261  -0.00110  -0.00369   3.13235
   D37        3.10197  -0.00010  -0.00197  -0.00490  -0.00688   3.09509
   D38       -0.04464  -0.00013  -0.00285  -0.00439  -0.00723  -0.05186
   D39        0.99349   0.00002  -0.00067   0.00002  -0.00065   0.99284
   D40       -0.98463  -0.00003   0.00010  -0.00010  -0.00001  -0.98464
   D41       -1.14426  -0.00012  -0.00173  -0.00060  -0.00227  -1.14652
   D42       -3.12237  -0.00017  -0.00096  -0.00072  -0.00162  -3.12399
   D43        3.13172   0.00016   0.00049   0.00032   0.00075   3.13247
   D44        1.15361   0.00010   0.00126   0.00019   0.00139   1.15500
   D45        0.00246   0.00005   0.00079  -0.00183  -0.00103   0.00143
   D46       -3.13936  -0.00001  -0.00050   0.00670   0.00621  -3.13315
   D47       -3.13411   0.00009   0.00166  -0.00235  -0.00068  -3.13479
   D48        0.00725   0.00002   0.00037   0.00618   0.00656   0.01382
         Item               Value     Threshold  Converged?
 Maximum Force            0.001344     0.000450     NO 
[...]
     7  C   -0.037090  -0.037136  -0.009026  -0.000157
     8  N    0.328222   0.328145   0.000237   0.000002
     9  C    0.006083  -0.000868   0.367903  -0.042407
    10  C   -0.000290   0.000033  -0.039654   0.368117
    11  H   -0.000000   0.000000  -0.000000  -0.000354
    12  H   -0.000000  -0.000000   0.000001  -0.000294
    13  H    0.000000  -0.000000   0.000001   0.000552
    14  H    0.000000  -0.000000   0.000003   0.000407
    15  H    0.000000   0.000002   0.000019  -0.000183
    16  H    0.000041   0.000752  -0.000196   0.000019
    17  H   -0.005504   0.007051   0.005304  -0.000003
    18  H    0.007021  -0.005449   0.000109   0.000003
    19  H    0.460370  -0.031121   0.000800   0.000003
    20  H   -0.031121   0.460562   0.000044   0.000000
    21  H    0.000800   0.000044   0.642039  -0.006090
    22  H    0.000003   0.000000  -0.006090   0.638128
 Mulliken charges:
               1
     1  N   -0.611113
     2  C   -0.117238
     3  C    0.112935
     4  C   -0.172656
     5  C   -0.161935
     6  C    0.105752
     7  C   -0.133152
     8  N   -0.560364
     9  C   -0.164833
    10  C   -0.149903
    11  H    0.263078
    12  H    0.261790
    13  H    0.134501
    14  H    0.107267
    15  H    0.075275
    16  H    0.077598
    17  H    0.119210
    18  H    0.119156
    19  H    0.271214
    20  H    0.271089
    21  H    0.075891
    22  H    0.076440
 Sum of Mulliken charges =  -0.00000
 Mulliken charges with hydrogens summed into heavy atoms:
               1
     1  N   -0.086245
     2  C    0.124531
     3  C    0.112935
     4  C   -0.097381
     5  C   -0.084337
     6  C    0.105752
     7  C    0.105213
     8  N   -0.018062
     9  C   -0.088942
    10  C   -0.073463
 Electronic spatial extent (au):  <R**2>=           1927.7671
 Charge=             -0.0000 electrons
 Dipole moment (field-independent basis, Debye):
    X=             -1.4314    Y=              0.9360    Z=              2.0047  Tot=              2.6351
 Quadrupole moment (field-independent basis, Debye-Ang):
   XX=            -51.1264   YY=            -59.7689   ZZ=            -58.1827
   XY=             -3.3333   XZ=             -1.7164   YZ=              0.0919
 Traceless Quadrupole moment (field-independent basis, Debye-Ang):
   XX=              5.2329   YY=             -3.4096   ZZ=             -1.8234
   XY=             -3.3333   XZ=             -1.7164   YZ=              0.0919
 Octapole moment (field-independent basis, Debye-Ang**2):
  XXX=            -95.4764  YYY=              0.1518  ZZZ=             16.6269  XYY=             12.4592
  XXY=             12.2184  XXZ=             13.6594  XZZ=             -1.1264  YZZ=             -3.8566
  YYZ=              3.6861  XYZ=              1.9580
 Hexadecapole moment (field-independent basis, Debye-Ang**3):
 XXXX=          -1919.9893 YYYY=           -359.9320 ZZZZ=           -153.0148 XXXY=             12.0884
 XXXZ=            -74.7894 YYYX=            -17.5918 YYYZ=              2.7261 ZZZX=              5.0615
 ZZZY=             -7.7288 XXYY=           -393.1371 XXZZ=           -311.3016 YYZZ=            -90.1715
 XXYZ=             -4.7344 YYXZ=              5.1722 ZZXY=              3.8073
 N-N= 4.970344917300D+02 E-N=-1.972259799673D+03  KE= 4.176787003974D+02
 Evaluate density.
 Using the total density.
 Monte-Carlo method of calculating molar volume:
 based on  0.001 e/bohr**3 density envelope.
 Number of points per bohr**3 =   20 CutOff= 1.00D-04
 Using the CI density.
 There are       370 points.  Will hold       370 in memory.
 LenV=   805182878 MDV=   805306368.
 Box volume = 6336.973 fraction occupied=0.197
 Integrated density= 6.0951517557033704D+01 error=-1.3048482442966296D+01
 Molar volume = 1250.268 bohr**3/mol (111.573 cm**3/mol)
 Recommended a0 for SCRF calculation =  4.39 angstrom (  8.30 bohr)
 ******************************Gaussian NBO Version 3.1******************************
             N A T U R A L   A T O M I C   O R B I T A L   A N D
          N A T U R A L   B O N D   O R B I T A L   A N A L Y S I S
 ******************************Gaussian NBO Version 3.1******************************
       /RESON  / : Allow strongly delocalized NBO set

 Analyzing the CI density

 Job title: ISKQADXMHQSTHK-UHFFFAOYSA-N_conf_2                              

 Storage needed:    133984 in NPA ( 805303728 available)
 GSVD:  LWork=       24900 too small for GESVD, short by       12636 words or       12636 for optimal perf.


 NATURAL POPULATIONS:  Natural atomic orbital occupancies 
                                                          
   NAO  Atom  No  lang   Type(AO)    Occupancy
 --------------------------------------------
     1    N    1  S      Cor( 1S)     1.99964
     2    N    1  S      Val( 2S)     1.44414
     3    N    1  S      Ryd( 3S)     0.00061
     4    N    1  S      Ryd( 4S)     0.00001
     5    N    1  px     Val( 2p)     1.39250
     6    N    1  px     Ryd( 3p)     0.00235
     7    N    1  py     Val( 2p)     1.62731
     8    N    1  py     Ryd( 3p)     0.00437
     9    N    1  pz     Val( 2p)     1.41188
    10    N    1  pz     Ryd( 3p)     0.00264
    11    N    1  dxy    Ryd( 3d)     0.00086
    12    N    1  dxz    Ryd( 3d)     0.00013
    13    N    1  dyz    Ryd( 3d)     0.00095
    14    N    1  dx2y2  Ryd( 3d)     0.00131
    15    N    1  dz2    Ryd( 3d)     0.00118

    16    C    2  S      Cor( 1S)     1.99928
    17    C    2  S      Val( 2S)     1.02244
    18    C    2  S      Ryd( 3S)     0.00190
    19    C    2  S      Ryd( 4S)     0.00004
    20    C    2  px     Val( 2p)     1.04041
    21    C    2  px     Ryd( 3p)     0.00143
    22    C    2  py     Val( 2p)     1.05220
    23    C    2  py     Ryd( 3p)     0.00508
    24    C    2  pz     Val( 2p)     1.15526
    25    C    2  pz     Ryd( 3p)     0.00135
    26    C    2  dxy    Ryd( 3d)     0.00075
    27    C    2  dxz    Ryd( 3d)     0.00090
    28    C    2  dyz    Ryd( 3d)     0.00076
    29    C    2  dx2y2  Ryd( 3d)     0.00146
    30    C    2  dz2    Ryd( 3d)     0.00110

    31    C    3  S      Cor( 1S)     1.99904
    32    C    3  S      Val( 2S)     0.89833
    33    C    3  S      Ryd( 3S)     0.00088
    34    C    3  S      Ryd( 4S)     0.00005
    35    C    3  px     Val( 2p)     1.05613
    36    C    3  px     Ryd( 3p)     0.00482
    37    C    3  py     Val( 2p)     1.08682
    38    C    3  py     Ryd( 3p)     0.00504
    39    C    3  pz     Val( 2p)     0.94715
    40    C    3  pz     Ryd( 3p)     0.00314
    41    C    3  dxy    Ryd( 3d)     0.00076
    42    C    3  dxz    Ryd( 3d)     0.00052
    43    C    3  dyz    Ryd( 3d)     0.00094
    44    C    3  dx2y2  Ryd( 3d)     0.00073
    45    C    3  dz2    Ryd( 3d)     0.00041

    46    C    4  S      Cor( 1S)     1.99907
    47    C    4  S      Val( 2S)     0.95203
    48    C    4  S      Ryd( 3S)     0.00062
    49    C    4  S      Ryd( 4S)     0.00004
    50    C    4  px     Val( 2p)     1.08157
    51    C    4  px     Ryd( 3p)     0.00427
    52    C    4  py     Val( 2p)     1.16174
    53    C    4  py     Ryd( 3p)     0.00487
    54    C    4  pz     Val( 2p)     1.07718
    55    C    4  pz     Ryd( 3p)     0.00581
    56    C    4  dxy    Ryd( 3d)     0.00070
    57    C    4  dxz    Ryd( 3d)     0.00061
    58    C    4  dyz    Ryd( 3d)     0.00037
    59    C    4  dx2y2  Ryd( 3d)     0.00066
    60    C    4  dz2    Ryd( 3d)     0.00035

    61    C    5  S      Cor( 1S)     1.99906
    62    C    5  S      Val( 2S)     0.95296
    63    C    5  S      Ryd( 3S)     0.00065
    64    C    5  S      Ryd( 4S)     0.00004
    65    C    5  px     Val( 2p)     1.10256
    66    C    5  px     Ryd( 3p)     0.00450
    67    C    5  py     Val( 2p)     1.14527
    68    C    5  py     Ryd( 3p)     0.00485
    69    C    5  pz     Val( 2p)     1.06743
    70    C    5  pz     Ryd( 3p)     0.00585
    71    C    5  dxy    Ryd( 3d)     0.00073
    72    C    5  dxz    Ryd( 3d)     0.00058
    73    C    5  dyz    Ryd( 3d)     0.00038
    74    C    5  dx2y2  Ryd( 3d)     0.00064
    75    C    5  dz2    Ryd( 3d)     0.00037

    76    C    6  S      Cor( 1S)     1.99903
    77    C    6  S      Val( 2S)     0.90041
    78    C    6  S      Ryd( 3S)     0.00078
    79    C    6  S      Ryd( 4S)     0.00005
    80    C    6  px     Val( 2p)     1.05566
    81    C    6  px     Ryd( 3p)     0.00453
    82    C    6  py     Val( 2p)     1.08388
    83    C    6  py     Ryd( 3p)     0.00457
    84    C    6  pz     Val( 2p)     0.97367
    85    C    6  pz     Ryd( 3p)     0.00307
    86    C    6  dxy    Ryd( 3d)     0.00083
    87    C    6  dxz    Ryd( 3d)     0.00044
    88    C    6  dyz    Ryd( 3d)     0.00096
    89    C    6  dx2y2  Ryd( 3d)     0.00073
    90    C    6  dz2    Ryd( 3d)     0.00041

    91    C    7  S      Cor( 1S)     1.99928
    92    C    7  S      Val( 2S)     1.02244
    93    C    7  S      Ryd( 3S)     0.00115
    94    C    7  S      Ryd( 4S)     0.00004
    95    C    7  px     Val( 2p)     1.03819
    96    C    7  px     Ryd( 3p)     0.00375
    97    C    7  py     Val( 2p)     1.24789
    98    C    7  py     Ryd( 3p)     0.00577
    99    C    7  pz     Val( 2p)     0.97295
   100    C    7  pz     Ryd( 3p)     0.00179
   101    C    7  dxy    Ryd( 3d)     0.00061
   102    C    7  dxz    Ryd( 3d)     0.00140
   103    C    7  dyz    Ryd( 3d)     0.00102
   104    C    7  dx2y2  Ryd( 3d)     0.00094
   105    C    7  dz2    Ryd( 3d)     0.00098

   106    N    8  S      Cor( 1S)     1.99968
   107    N    8  S      Val( 2S)     1.45798
   108    N    8  S      Ryd( 3S)     0.00044
   109    N    8  S      Ryd( 4S)     0.00001
   110    N    8  px     Val( 2p)     1.65073
   111    N    8  px     Ryd( 3p)     0.00515
   112    N    8  py     Val( 2p)     1.39137
   113    N    8  py     Ryd( 3p)     0.00170
   114    N    8  pz     Val( 2p)     1.29090
   115    N    8  pz     Ryd( 3p)     0.00191
   116    N    8  dxy    Ryd( 3d)     0.00118
   117    N    8  dxz    Ryd( 3d)     0.00126
   118    N    8  dyz    Ryd( 3d)     0.00066
   119    N    8  dx2y2  Ryd( 3d)     0.00093
   120    N    8  dz2    Ryd( 3d)     0.00043

   121    C    9  S      Cor( 1S)     1.99907
   122    C    9  S      Val( 2S)     0.95273
   123    C    9  S      Ryd( 3S)     0.00067
   124    C    9  S      Ryd( 4S)     0.00004
   125    C    9  px     Val( 2p)     1.08382
   126    C    9  px     Ryd( 3p)     0.00451
   127    C    9  py     Val( 2p)     1.15878
   128    C    9  py     Ryd( 3p)     0.00483
   129    C    9  pz     Val( 2p)     1.07513
   130    C    9  pz     Ryd( 3p)     0.00577
   131    C    9  dxy    Ryd( 3d)     0.00070
   132    C    9  dxz    Ryd( 3d)     0.00064
   133    C    9  dyz    Ryd( 3d)     0.00037
   134    C    9  dx2y2  Ryd( 3d)     0.00065
   135    C    9  dz2    Ryd( 3d)     0.00035

   136    C   10  S      Cor( 1S)     1.99907
   137    C   10  S      Val( 2S)     0.95196
   138    C   10  S      Ryd( 3S)     0.00067
   139    C   10  S      Ryd( 4S)     0.00004
   140    C   10  px     Val( 2p)     1.10207
   141    C   10  px     Ryd( 3p)     0.00476
   142    C   10  py     Val( 2p)     1.14752
   143    C   10  py     Ryd( 3p)     0.00493
   144    C   10  pz     Val( 2p)     1.07235
   145    C   10  pz     Ryd( 3p)     0.00571
   146    C   10  dxy    Ryd( 3d)     0.00071
   147    C   10  dxz    Ryd( 3d)     0.00057
   148    C   10  dyz    Ryd( 3d)     0.00038
   149    C   10  dx2y2  Ryd( 3d)     0.00065
   150    C   10  dz2    Ryd( 3d)     0.00037

   151    H   11  S      Val( 1S)     0.59998
   152    H   11  S      Ryd( 2S)     0.00158
   153    H   11  px     Ryd( 2p)     0.00060
   154    H   11  py     Ryd( 2p)     0.00046
   155    H   11  pz     Ryd( 2p)     0.00033

   156    H   12  S      Val( 1S)     0.60356
   157    H   12  S      Ryd( 2S)     0.00183
   158    H   12  px     Ryd( 2p)     0.00032
   159    H   12  py     Ryd( 2p)     0.00045
   160    H   12  pz     Ryd( 2p)     0.00062

   161    H   13  S      Val( 1S)     0.74477
   162    H   13  S      Ryd( 2S)     0.00209
   163    H   13  px     Ryd( 2p)     0.00015
   164    H   13  py     Ryd( 2p)     0.00008
   165    H   13  pz     Ryd( 2p)     0.00036

   166    H   14  S      Val( 1S)     0.76990
   167    H   14  S      Ryd( 2S)     0.00211
   168    H   14  px     Ryd( 2p)     0.00012
   169    H   14  py     Ryd( 2p)     0.00030
   170    H   14  pz     Ryd( 2p)     0.00014

   171    H   15  S      Val( 1S)     0.76876
   172    H   15  S      Ryd( 2S)     0.00112
   173    H   15  px     Ryd( 2p)     0.00011
   174    H   15  py     Ryd( 2p)     0.00033
   175    H   15  pz     Ryd( 2p)     0.00020

   176    H   16  S      Val( 1S)     0.76784
   177    H   16  S      Ryd( 2S)     0.00109
   178    H   16  px     Ryd( 2p)     0.00017
   179    H   16  py     Ryd( 2p)     0.00029
   180    H   16  pz     Ryd( 2p)     0.00019

   181    H   17  S      Val( 1S)     0.75793
   182    H   17  S      Ryd( 2S)     0.00197
   183    H   17  px     Ryd( 2p)     0.00012
   184    H   17  py     Ryd( 2p)     0.00022
   185    H   17  pz     Ryd( 2p)     0.00020

   186    H   18  S      Val( 1S)     0.75799
   187    H   18  S      Ryd( 2S)     0.00194
   188    H   18  px     Ryd( 2p)     0.00015
   189    H   18  py     Ryd( 2p)     0.00029
   190    H   18  pz     Ryd( 2p)     0.00010

   191    H   19  S      Val( 1S)     0.60092
   192    H   19  S      Ryd( 2S)     0.00215
   193    H   19  px     Ryd( 2p)     0.00054
   194    H   19  py     Ryd( 2p)     0.00052
   195    H   19  pz     Ryd( 2p)     0.00034

   196    H   20  S      Val( 1S)     0.60099
   197    H   20  S      Ryd( 2S)     0.00214
   198    H   20  px     Ryd( 2p)     0.00051
   199    H   20  py     Ryd( 2p)     0.00045
   200    H   20  pz     Ryd( 2p)     0.00043

   201    H   21  S      Val( 1S)     0.76927
   202    H   21  S      Ryd( 2S)     0.00109
   203    H   21  px     Ryd( 2p)     0.00012
   204    H   21  py     Ryd( 2p)     0.00033
   205    H   21  pz     Ryd( 2p)     0.00020

   206    H   22  S      Val( 1S)     0.76090
   207    H   22  S      Ryd( 2S)     0.00153
   208    H   22  px     Ryd( 2p)     0.00020
   209    H   22  py     Ryd( 2p)     0.00027
   210    H   22  pz     Ryd( 2p)     0.00019


 Summary of Natural Population Analysis:                  
                                                          
                                       Natural Population 
                Natural  -----------------------------------------------
    Atom  No    Charge         Core      Valence    Rydberg      Total
 -----------------------------------------------------------------------
      N    1   -0.88987      1.99964     5.87583    0.01440     7.88987
      C    2   -0.28434      1.99928     4.27030    0.01477     6.28434
      C    3   -0.00476      1.99904     3.98844    0.01728     6.00476
      C    4   -0.28990      1.99907     4.27253    0.01830     6.28990
      C    5   -0.28588      1.99906     4.26822    0.01859     6.28588
      C    6   -0.02903      1.99903     4.01362    0.01638     6.02903
      C    7   -0.29820      1.99928     4.28147    0.01746     6.29820
      N    8   -0.80434      1.99968     5.79098    0.01368     7.80434
      C    9   -0.28806      1.99907     4.27046    0.01854     6.28806
      C   10   -0.29176      1.99907     4.27390    0.01879     6.29176
      H   11    0.39706      0.00000     0.59998    0.00297     0.60294
      H   12    0.39323      0.00000     0.60356    0.00322     0.60677
      H   13    0.25255      0.00000     0.74477    0.00268     0.74745
      H   14    0.22744      0.00000     0.76990    0.00266     0.77256
      H   15    0.22948      0.00000     0.76876    0.00176     0.77052
      H   16    0.23042      0.00000     0.76784    0.00174     0.76958
      H   17    0.23955      0.00000     0.75793    0.00251     0.76045
      H   18    0.23953      0.00000     0.75799    0.00248     0.76047
      H   19    0.39552      0.00000     0.60092    0.00355     0.60448
      H   20    0.39546      0.00000     0.60099    0.00354     0.60454
      H   21    0.22899      0.00000     0.76927    0.00174     0.77101
      H   22    0.23691      0.00000     0.76090    0.00219     0.76309
 =======================================================================
   * Total *    0.00000     19.99223    53.80854    0.19923    74.00000

                                 Natural Population      
 --------------------------------------------------------
   Core                      19.99223 ( 99.9612% of  20)
   Valence                   53.80854 ( 99.6454% of  54)
   Natural Minimal Basis     73.80077 ( 99.7308% of  74)
   Natural Rydberg Basis      0.19923 (  0.2692% of  74)
 --------------------------------------------------------

    Atom  No          Natural Electron Configuration
 ----------------------------------------------------------------------------
      N    1      [core]2S( 1.44)2p( 4.43)3p( 0.01)
      C    2      [core]2S( 1.02)2p( 3.25)3p( 0.01)
      C    3      [core]2S( 0.90)2p( 3.09)3p( 0.01)
      C    4      [core]2S( 0.95)2p( 3.32)3p( 0.01)
      C    5      [core]2S( 0.95)2p( 3.32)3p( 0.02)
      C    6      [core]2S( 0.90)2p( 3.11)3p( 0.01)
      C    7      [core]2S( 1.02)2p( 3.26)3p( 0.01)
      N    8      [core]2S( 1.46)2p( 4.33)3p( 0.01)
      C    9      [core]2S( 0.95)2p( 3.32)3p( 0.02)
      C   10      [core]2S( 0.95)2p( 3.32)3p( 0.02)
      H   11            1S( 0.60)
      H   12            1S( 0.60)
      H   13            1S( 0.74)
      H   14            1S( 0.77)
      H   15            1S( 0.77)
      H   16            1S( 0.77)
      H   17            1S( 0.76)
      H   18            1S( 0.76)
      H   19            1S( 0.60)
      H   20            1S( 0.60)
      H   21            1S( 0.77)
      H   22            1S( 0.76)


 NBO analysis skipped by request.
 1\1\GINC-CN36\SP\RB3LYP TD-FC\6-31G(d,p)\C8H12N2\QDUEZ\11-Jul-2024\0\\
 # TD(NStates=10, Root=1) B3LYP/6-31G** SCRF=(Solvent=water) volume pop
 =NPA density=current Geom=AllCheck Guess=Read\\ISKQADXMHQSTHK-UHFFFAOY
 SA-N_conf_2\\0,1\N,0,-3.357069214,1.1530327484,0.6503398024\C,0,-2.885
 3716352,0.0342384746,-0.1797902893\C,0,-1.3797483212,-0.1355814936,-0.
 1022440792\C,0,-0.6383579889,-0.4636035901,-1.2437215237\C,0,0.7420713
 505,-0.6596145171,-1.172279559\C,0,1.427157546,-0.5234639408,0.0419007
 318\C,0,2.9367545507,-0.6712788427,0.1095752269\N,0,3.7065784262,0.571
 3212876,-0.1057325711\C,0,0.6824097798,-0.1937905535,1.1840413649\C,0,
 -0.6968015679,-0.0026112114,1.1149896522\H,0,-4.3734962223,1.189018681
 6,0.6068759227\H,0,-3.0325598185,2.0279083262,0.2418967184\H,0,-3.3699
 580871,-0.8756709499,0.2001412076\H,0,-3.1747726659,0.1126428485,-1.24
 01371111\H,0,-1.1468193595,-0.5698715604,-2.1992002949\H,0,1.294455556
 7,-0.9175443726,-2.073234639\H,0,3.2224925462,-1.0704165813,1.08932650
 03\H,0,3.2680839875,-1.398719739,-0.6399581699\H,0,3.4016042799,1.2630
 276383,0.5783196394\H,0,3.4407386259,0.9633089383,-1.0085701318\H,0,1.
 1905005234,-0.0896573412,2.1405043635\H,0,-1.2578922922,0.2573257501,2
 .0069572389\\Version=EM64L-G16RevA.03\State=1-A\HF=-421.5973822\RMSD=3
 .489e-09\Dipole=-0.5205705,0.6611898,-0.6055157\Quadrupole=3.9693663,-
 1.4268888,-2.5424775,-0.8982101,2.4600715,-0.698421\PG=C01 [X(C8H12N2)
 ]\\@


 YE HAVE SOWN MUCH, AND BRING IN LITTLE.
 YE EAT, BUT YE HAVE NOT ENOUGH.
 YE DRINK, BUT YE ARE NOT FILLED WITH DRINK.
 YE CLOTHE YOU, BUT THERE IS NONE WARM.
 AND HE THAT EARNETH WAGES EARNETH WAGES TO PUT
 IT INTO A BAG WITH HOLES.
                                     HAGGAI I,6
 Job cpu time:       0 days  0 hours 56 minutes 57.7 seconds.
 Elapsed time:       0 days  0 hours 24 minutes  6.7 seconds.
 File lengths (MBytes):  RWF=    410 Int=      0 D2E=      0 Chk=     26 Scr=      1
 Normal termination of Gaussian 16 at Thu Jul 11 20:24:49 2024.
