 Entering Gaussian System, Link 0=g16
 Initial command:
 /opt/sw/arch/manual/gaussian/G16_A03/g16/l1.exe "/scratch/1032052.jesse.materianova.be/Gau-48769.inp" -scrdir="/scratch/1032052.jesse.materianova.be/"
 Entering Link 1 = /opt/sw/arch/manual/gaussian/G16_A03/g16/l1.exe PID=     48770.
  
 Copyright (c) 1988,1990,1992,1993,1995,1998,2003,2009,2016,
            Gaussian, Inc.  All Rights Reserved.
  
 This is part of the Gaussian(R) 16 program.  It is based on
 the Gaussian(R) 09 system (copyright 2009, Gaussian, Inc.),
 the Gaussian(R) 03 system (copyright 2003, Gaussian, Inc.),
 the Gaussian(R) 98 system (copyright 1998, Gaussian, Inc.),
 the Gaussian(R) 94 system (copyright 1995, Gaussian, Inc.),
 the Gaussian 92(TM) system (copyright 1992, Gaussian, Inc.),
 the Gaussian 90(TM) system (copyright 1990, Gaussian, Inc.),
 the Gaussian 88(TM) system (copyright 1988, Gaussian, Inc.),
 the Gaussian 86(TM) system (copyright 1986, Carnegie Mellon
 University), and the Gaussian 82(TM) system (copyright 1983,
 Carnegie Mellon University). Gaussian is a federally registered
 trademark of Gaussian, Inc.
  
 This software contains proprietary and confidential information,
 including trade secrets, belonging to Gaussian, Inc.
  
 This software is provided under written license and may be
 used, copied, transmitted, or stored only in accord with that
 written license.
  
 The following legend is applicable only to US Government
 contracts under FAR:
  
                    RESTRICTED RIGHTS LEGEND
  
 Use, reproduction and disclosure by the US Government is
 subject to restrictions as set forth in subparagraphs (a)
 and (c) of the Commercial Computer Software - Restricted
 Rights clause in FAR 52.227-19.
  
 Gaussian, Inc.
 340 Quinnipiac St., Bldg. 40, Wallingford CT 06492
  
  
 ---------------------------------------------------------------
 Warning -- This program may not be used in any manner that
 competes with the business of Gaussian, Inc. or will provide
 assistance to any competitor of Gaussian, Inc.  The licensee
 of this program is prohibited from giving any competitor of
 Gaussian, Inc. access to this program.  By using this program,
 the user acknowledges that Gaussian, Inc. is engaged in the
 business of creating and licensing software in the field of
 computational chemistry and represents and warrants to the
 licensee that it is not a competitor of Gaussian, Inc. and that
 it will not use this program in any manner prohibited above.
 ---------------------------------------------------------------
  

 Cite this work as:
 Gaussian 16, Revision A.03,
 M. J. Frisch, G. W. Trucks, H. B. Schlegel, G. E. Scuseria, 
 M. A. Robb, J. R. Cheeseman, G. Scalmani, V. Barone, 
 G. A. Petersson, H. Nakatsuji, X. Li, M. Caricato, A. V. Marenich, 
 J. Bloino, B. G. Janesko, R. Gomperts, B. Mennucci, H. P. Hratchian, 
 J. V. Ortiz, A. F. Izmaylov, J. L. Sonnenberg, D. Williams-Young, 
 F. Ding, F. Lipparini, F. Egidi, J. Goings, B. Peng, A. Petrone, 
 T. Henderson, D. Ranasinghe, V. G. Zakrzewski, J. Gao, N. Rega, 
 G. Zheng, W. Liang, M. Hada, M. Ehara, K. Toyota, R. Fukuda, 
 J. Hasegawa, M. Ishida, T. Nakajima, Y. Honda, O. Kitao, H. Nakai, 
 T. Vreven, K. Throssell, J. A. Montgomery, Jr., J. E. Peralta, 
 F. Ogliaro, M. J. Bearpark, J. J. Heyd, E. N. Brothers, K. N. Kudin, 
 V. N. Staroverov, T. A. Keith, R. Kobayashi, J. Normand, 
 K. Raghavachari, A. P. Rendell, J. C. Burant, S. S. Iyengar, 
 J. Tomasi, M. Cossi, J. M. Millam, M. Klene, C. Adamo, R. Cammi, 
 J. W. Ochterski, R. L. Martin, K. Morokuma, O. Farkas, 
 J. B. Foresman, and D. J. Fox, Gaussian, Inc., Wallingford CT, 2016.
 
 ******************************************
 Gaussian 16:  EM64L-G16RevA.03 25-Dec-2016
                11-Jul-2024 
 ******************************************
 %nprocshared=3
 Will use up to    3 processors via shared memory.
 %mem=6GB
 %Chk=ISKQADXMHQSTHK-UHFFFAOYSA-N_conf_3_0.chk
 -------------------------------------------------------
 # opt=CalcFc B3LYP/6-31G** SCRF=(Solvent=water) scf=xqc
 -------------------------------------------------------
 1/10=4,18=20,19=15,26=3,38=1/1,3;
 2/9=110,12=2,17=6,18=5,40=1/2;
 3/5=1,6=6,7=101,11=2,25=1,30=1,70=2201,71=2,72=1,74=-5,140=1/1,2,3;
 4//1;
 5/5=2,8=3,13=1,38=5,53=1/2,8;
 8/6=4,10=90,11=11/1;
 11/6=1,8=1,9=11,15=111,16=1/1,2,10;
 10/6=1,13=1/2;
 6/7=2,8=2,9=2,10=2,28=1/1;
 7/10=1,18=20,25=1/1,2,3,16;
 1/10=4,18=20,19=15,26=3/3(2);
 2/9=110/2;
 99//99;
 2/9=110/2;
 3/5=1,6=6,7=101,11=2,25=1,30=1,70=2205,71=1,72=1,74=-5/1,2,3;
 4/5=5,16=3,69=1/1;
 5/5=2,8=3,13=1,38=5,53=1/2,8;
 7//1,2,3,16;
 1/18=20,19=15,26=3/3(-5);
 2/9=110/2;
 6/7=2,8=2,9=2,10=2,19=2,28=1/1;
 99/9=1/99;
 ----------------------------------
 ISKQADXMHQSTHK-UHFFFAOYSA-N_conf_3
 ----------------------------------
 Symbolic Z-matrix:
 Charge =  0 Multiplicity = 1
 N                    -3.36739   0.88969   0.79239 
 C                    -2.86312   0.42652  -0.49492 
 C                    -1.38336   0.14909  -0.43426 
 C                    -0.91104  -1.11689  -0.06345 
 C                     0.46101  -1.36779   0.01526 
 C                     1.3875   -0.3576   -0.27531 
 C                     2.86699  -0.62132  -0.16622 
 N                     3.35647  -0.33986   1.1781 
 C                     0.91508   0.91358  -0.62773 
 C                    -0.45697   1.16448  -0.70643 
 H                    -2.84407   1.72018   1.06659 
 H                    -3.14904   0.18788   1.49846 
 H                    -3.07349   1.17889  -1.26372 
 H                    -3.40331  -0.4782   -0.79669 
 H                    -1.61167  -1.917     0.16615 
 H                     0.80433  -2.35881   0.30474 
 H                     3.41295  -0.00726  -0.89163 
 H                     3.08314  -1.66435  -0.42459 
 H                     2.82788  -0.90509   1.84132 
 H                     3.13285   0.62721   1.40945 
 H                     1.61564   1.71743  -0.84411 
 H                    -0.80037   2.15924  -0.9827 
 

 GradGradGradGradGradGradGradGradGradGradGradGradGradGradGradGradGradGrad
 Berny optimization.
 Initialization pass.
                           ----------------------------
                           !    Initial Parameters    !
                           ! (Angstroms and Degrees)  !
 --------------------------                            --------------------------
 ! Name  Definition              Value          Derivative Info.                !
 --------------------------------------------------------------------------------
 ! R1    R(1,2)                  1.4581         calculate D2E/DX2 analytically  !
 ! R2    R(1,11)                 1.0192         calculate D2E/DX2 analytically  !
 ! R3    R(1,12)                 1.0192         calculate D2E/DX2 analytically  !
 ! R4    R(2,3)                  1.5068         calculate D2E/DX2 analytically  !
 ! R5    R(2,13)                 1.0961         calculate D2E/DX2 analytically  !
 ! R6    R(2,14)                 1.0961         calculate D2E/DX2 analytically  !
 ! R7    R(3,4)                  1.4012         calculate D2E/DX2 analytically  !
 ! R8    R(3,10)                 1.4012         calculate D2E/DX2 analytically  !
 ! R9    R(4,5)                  1.397          calculate D2E/DX2 analytically  !
 ! R10   R(4,15)                 1.088          calculate D2E/DX2 analytically  !
 ! R11   R(5,6)                  1.4012         calculate D2E/DX2 analytically  !
 ! R12   R(5,16)                 1.088          calculate D2E/DX2 analytically  !
 ! R13   R(6,7)                  1.5068         calculate D2E/DX2 analytically  !
 ! R14   R(6,9)                  1.4012         calculate D2E/DX2 analytically  !
 ! R15   R(7,8)                  1.4581         calculate D2E/DX2 analytically  !
 ! R16   R(7,17)                 1.0961         calculate D2E/DX2 analytically  !
 ! R17   R(7,18)                 1.0961         calculate D2E/DX2 analytically  !
 ! R18   R(8,19)                 1.0192         calculate D2E/DX2 analytically  !
 ! R19   R(8,20)                 1.0192         calculate D2E/DX2 analytically  !
 ! R20   R(9,10)                 1.397          calculate D2E/DX2 analytically  !
 ! R21   R(9,21)                 1.088          calculate D2E/DX2 analytically  !
 ! R22   R(10,22)                1.088          calculate D2E/DX2 analytically  !
 ! A1    A(2,1,11)             108.5902         calculate D2E/DX2 analytically  !
 ! A2    A(2,1,12)             108.5903         calculate D2E/DX2 analytically  !
 ! A3    A(11,1,12)            105.3501         calculate D2E/DX2 analytically  !
 ! A4    A(1,2,3)              111.2595         calculate D2E/DX2 analytically  !
 ! A5    A(1,2,13)             109.5621         calculate D2E/DX2 analytically  !
 ! A6    A(1,2,14)             109.5622         calculate D2E/DX2 analytically  !
 ! A7    A(3,2,13)             110.067          calculate D2E/DX2 analytically  !
 ! A8    A(3,2,14)             110.067          calculate D2E/DX2 analytically  !
 ! A9    A(13,2,14)            106.1934         calculate D2E/DX2 analytically  !
 ! A10   A(2,3,4)              120.5343         calculate D2E/DX2 analytically  !
 ! A11   A(2,3,10)             120.5344         calculate D2E/DX2 analytically  !
 ! A12   A(4,3,10)             118.9006         calculate D2E/DX2 analytically  !
 ! A13   A(3,4,5)              120.5466         calculate D2E/DX2 analytically  !
 ! A14   A(3,4,15)             120.2122         calculate D2E/DX2 analytically  !
 ! A15   A(5,4,15)             119.2412         calculate D2E/DX2 analytically  !
 ! A16   A(4,5,6)              120.5466         calculate D2E/DX2 analytically  !
 ! A17   A(4,5,16)             119.2412         calculate D2E/DX2 analytically  !
 ! A18   A(6,5,16)             120.2122         calculate D2E/DX2 analytically  !
 ! A19   A(5,6,7)              120.5343         calculate D2E/DX2 analytically  !
 ! A20   A(5,6,9)              118.9006         calculate D2E/DX2 analytically  !
 ! A21   A(7,6,9)              120.5343         calculate D2E/DX2 analytically  !
 ! A22   A(6,7,8)              111.2595         calculate D2E/DX2 analytically  !
 ! A23   A(6,7,17)             110.0671         calculate D2E/DX2 analytically  !
 ! A24   A(6,7,18)             110.067          calculate D2E/DX2 analytically  !
 ! A25   A(8,7,17)             109.5622         calculate D2E/DX2 analytically  !
 ! A26   A(8,7,18)             109.5621         calculate D2E/DX2 analytically  !
 ! A27   A(17,7,18)            106.1934         calculate D2E/DX2 analytically  !
 ! A28   A(7,8,19)             108.5902         calculate D2E/DX2 analytically  !
 ! A29   A(7,8,20)             108.5902         calculate D2E/DX2 analytically  !
 ! A30   A(19,8,20)            105.3502         calculate D2E/DX2 analytically  !
 ! A31   A(6,9,10)             120.5466         calculate D2E/DX2 analytically  !
 ! A32   A(6,9,21)             120.2122         calculate D2E/DX2 analytically  !
 ! A33   A(10,9,21)            119.2412         calculate D2E/DX2 analytically  !
 ! A34   A(3,10,9)             120.5466         calculate D2E/DX2 analytically  !
 ! A35   A(3,10,22)            120.2122         calculate D2E/DX2 analytically  !
 ! A36   A(9,10,22)            119.2412         calculate D2E/DX2 analytically  !
 ! D1    D(11,1,2,3)            57.0334         calculate D2E/DX2 analytically  !
 ! D2    D(11,1,2,13)          -64.9031         calculate D2E/DX2 analytically  !
 ! D3    D(11,1,2,14)          178.97           calculate D2E/DX2 analytically  !
 ! D4    D(12,1,2,3)           -57.0329         calculate D2E/DX2 analytically  !
 ! D5    D(12,1,2,13)         -178.9695         calculate D2E/DX2 analytically  !
 ! D6    D(12,1,2,14)           64.9036         calculate D2E/DX2 analytically  !
 ! D7    D(1,2,3,4)             88.9815         calculate D2E/DX2 analytically  !
 ! D8    D(1,2,3,10)           -88.9818         calculate D2E/DX2 analytically  !
 ! D9    D(13,2,3,4)          -149.3755         calculate D2E/DX2 analytically  !
 ! D10   D(13,2,3,10)           32.6612         calculate D2E/DX2 analytically  !
 ! D11   D(14,2,3,4)           -32.6616         calculate D2E/DX2 analytically  !
 ! D12   D(14,2,3,10)          149.3751         calculate D2E/DX2 analytically  !
 ! D13   D(2,3,4,5)           -178.8889         calculate D2E/DX2 analytically  !
 ! D14   D(2,3,4,15)             1.1508         calculate D2E/DX2 analytically  !
 ! D15   D(10,3,4,5)            -0.8927         calculate D2E/DX2 analytically  !
 ! D16   D(10,3,4,15)          179.147          calculate D2E/DX2 analytically  !
 ! D17   D(2,3,10,9)           178.8889         calculate D2E/DX2 analytically  !
 ! D18   D(2,3,10,22)           -1.1507         calculate D2E/DX2 analytically  !
 ! D19   D(4,3,10,9)             0.8927         calculate D2E/DX2 analytically  !
 ! D20   D(4,3,10,22)         -179.1469         calculate D2E/DX2 analytically  !
 ! D21   D(3,4,5,6)              0.0            calculate D2E/DX2 analytically  !
 ! D22   D(3,4,5,16)          -179.9607         calculate D2E/DX2 analytically  !
 ! D23   D(15,4,5,6)           179.9608         calculate D2E/DX2 analytically  !
 ! D24   D(15,4,5,16)            0.0            calculate D2E/DX2 analytically  !
 ! D25   D(4,5,6,7)            178.8889         calculate D2E/DX2 analytically  !
 ! D26   D(4,5,6,9)              0.8926         calculate D2E/DX2 analytically  !
 ! D27   D(16,5,6,7)            -1.1507         calculate D2E/DX2 analytically  !
 ! D28   D(16,5,6,9)          -179.1471         calculate D2E/DX2 analytically  !
 ! D29   D(5,6,7,8)            -88.9817         calculate D2E/DX2 analytically  !
 ! D30   D(5,6,7,17)           149.3752         calculate D2E/DX2 analytically  !
 ! D31   D(5,6,7,18)            32.6612         calculate D2E/DX2 analytically  !
 ! D32   D(9,6,7,8)             88.9817         calculate D2E/DX2 analytically  !
 ! D33   D(9,6,7,17)           -32.6614         calculate D2E/DX2 analytically  !
 ! D34   D(9,6,7,18)          -149.3753         calculate D2E/DX2 analytically  !
 ! D35   D(5,6,9,10)            -0.8925         calculate D2E/DX2 analytically  !
 ! D36   D(5,6,9,21)           179.1469         calculate D2E/DX2 analytically  !
 ! D37   D(7,6,9,10)          -178.8889         calculate D2E/DX2 analytically  !
 ! D38   D(7,6,9,21)             1.1506         calculate D2E/DX2 analytically  !
 ! D39   D(6,7,8,19)            57.0332         calculate D2E/DX2 analytically  !
 ! D40   D(6,7,8,20)           -57.0332         calculate D2E/DX2 analytically  !
 ! D41   D(17,7,8,19)          178.9698         calculate D2E/DX2 analytically  !
 ! D42   D(17,7,8,20)           64.9034         calculate D2E/DX2 analytically  !
 ! D43   D(18,7,8,19)          -64.9033         calculate D2E/DX2 analytically  !
 ! D44   D(18,7,8,20)         -178.9697         calculate D2E/DX2 analytically  !
 ! D45   D(6,9,10,3)            -0.0001         calculate D2E/DX2 analytically  !
 ! D46   D(6,9,10,22)         -179.9609         calculate D2E/DX2 analytically  !
 ! D47   D(21,9,10,3)          179.9608         calculate D2E/DX2 analytically  !
 ! D48   D(21,9,10,22)           0.0001         calculate D2E/DX2 analytically  !
 --------------------------------------------------------------------------------
 Trust Radius=3.00D-01 FncErr=1.00D-07 GrdErr=1.00D-06 EigMax=2.50D+02 EigMin=1.00D-04
 Number of steps in this run=    116 maximum allowed number of steps=    132.
 GradGradGradGradGradGradGradGradGradGradGradGradGradGradGradGradGradGrad

                          Input orientation:                          
 ---------------------------------------------------------------------
 Center     Atomic      Atomic             Coordinates (Angstroms)
 Number     Number       Type             X           Y           Z
 ---------------------------------------------------------------------
      1          7           0       -3.367387    0.889694    0.792389
      2          6           0       -2.863117    0.426515   -0.494918
      3          6           0       -1.383356    0.149090   -0.434257
      4          6           0       -0.911038   -1.116893   -0.063448
      5          6           0        0.461006   -1.367793    0.015258
      6          6           0        1.387498   -0.357604   -0.275308
      7          6           0        2.866987   -0.621324   -0.166215
      8          7           0        3.356465   -0.339863    1.178095
      9          6           0        0.915076    0.913583   -0.627729
     10          6           0       -0.456968    1.164483   -0.706434
     11          1           0       -2.844068    1.720176    1.066592
     12          1           0       -3.149040    0.187878    1.498455
     13          1           0       -3.073493    1.178890   -1.263716
     14          1           0       -3.403308   -0.478198   -0.796686
     15          1           0       -1.611675   -1.917000    0.166149
     16          1           0        0.804333   -2.358805    0.304741
     17          1           0        3.412951   -0.007262   -0.891630
     18          1           0        3.083135   -1.664347   -0.424592
     19          1           0        2.827875   -0.905090    1.841316
     20          1           0        3.132854    0.627207    1.409450
     21          1           0        1.615639    1.717430   -0.844109
     22          1           0       -0.800369    2.159235   -0.982701
 ---------------------------------------------------------------------
                    Distance matrix (angstroms):
                    1          2          3          4          5
     1  N    0.000000
     2  C    1.458074   0.000000
     3  C    2.447352   1.506764   0.000000
     4  C    3.285194   2.525646   1.401177   0.000000
     5  C    4.511848   3.811774   2.429953   1.397015   0.000000
     6  C    5.030374   4.327909   2.821282   2.429953   1.401177
     7  C    6.486102   5.834390   4.327909   3.811774   2.525646
     8  N    6.846223   6.486102   5.030374   4.511850   3.285196
     9  C    4.511851   3.811774   2.429953   2.788537   2.413356
    10  C    3.285197   2.525647   1.401177   2.413356   2.788537
    11  H    1.019191   2.027864   2.618117   3.614216   4.643745
    12  H    1.019191   2.027865   2.618114   3.025000   4.201479
    13  H    2.097039   1.096073   2.145939   3.374533   4.540270
    14  H    2.097040   1.096073   2.145938   2.675253   4.047661
    15  H    3.369307   2.737733   2.163642   1.088016   2.149513
    16  H    5.309783   4.674147   3.409053   2.149513   1.088016
    17  H    7.043681   6.303537   4.820602   4.540269   3.374532
    18  H    7.043679   6.303537   4.820601   4.047660   2.675252
    19  H    6.534736   6.294327   4.901428   4.201483   3.025004
    20  H    6.534737   6.294328   4.901428   4.643745   3.614217
    21  H    5.309785   4.674147   3.409053   3.876456   3.404451
    22  H    3.369312   2.737733   2.163642   3.404452   3.876457
                    6          7          8          9         10
     6  C    0.000000
     7  C    1.506764   0.000000
     8  N    2.447352   1.458074   0.000000
     9  C    1.401177   2.525646   3.285195   0.000000
    10  C    2.429953   3.811774   4.511849   1.397015   0.000000
    11  H    4.901430   6.294329   6.534738   4.201486   3.025006
    12  H    4.901425   6.294324   6.534734   4.643743   3.614215
    13  H    4.820602   6.303537   7.043679   4.047660   2.675252
    14  H    4.820601   6.303537   7.043681   4.540269   3.374532
    15  H    3.409053   4.674147   5.309785   3.876457   3.404452
    16  H    2.163642   2.737733   3.369311   3.404451   3.876457
    17  H    2.145939   1.096073   2.097040   2.675253   4.047661
    18  H    2.145939   1.096073   2.097039   3.374533   4.540270
    19  H    2.618115   2.027864   1.019191   3.614215   4.643744
    20  H    2.618115   2.027865   1.019191   3.025003   4.201482
    21  H    2.163642   2.737733   3.369309   1.088016   2.149513
    22  H    3.409053   4.674148   5.309784   2.149513   1.088016
                   11         12         13         14         15
    11  H    0.000000
    12  H    1.620941   0.000000
    13  H    2.403323   2.935541   0.000000
    14  H    2.935541   2.403328   1.752950   0.000000
    15  H    3.944444   2.927293   3.710251   2.491416   0.000000
    16  H    5.525335   4.851774   5.478401   4.738572   2.459978
    17  H    6.780042   6.986438   6.604496   6.833168   5.478400
    18  H    6.986442   6.780034   6.833169   6.604495   4.738571
    19  H    6.297869   6.085693   6.986440   6.780040   4.851778
    20  H    6.085698   6.297867   6.780037   6.986442   5.525336
    21  H    4.851780   5.525333   4.738571   5.478399   4.964399
    22  H    2.927300   3.944445   2.491414   3.710249   4.312050
                   16         17         18         19         20
    16  H    0.000000
    17  H    3.710249   0.000000
    18  H    2.491413   1.752950   0.000000
    19  H    2.927298   2.935541   2.403324   0.000000
    20  H    3.944447   2.403325   2.935541   1.620943   0.000000
    21  H    4.312049   2.491416   3.710251   3.944444   2.927295
    22  H    4.964400   4.738573   5.478401   5.525334   4.851776
                   21         22
    21  H    0.000000
    22  H    2.459978   0.000000
 Stoichiometry    C8H12N2
 Framework group  C1[X(C8H12N2)]
 Deg. of freedom    60
 Full point group                 C1      NOp   1
 Largest Abelian subgroup         C1      NOp   1
 Largest concise Abelian subgroup C1      NOp   1
                         Standard orientation:                         
 ---------------------------------------------------------------------
 Center     Atomic      Atomic             Coordinates (Angstroms)
 Number     Number       Type             X           Y           Z
 ---------------------------------------------------------------------
      1          7           0       -3.423112   -0.000003    1.046996
      2          6           0       -2.917195    0.000002   -0.320494
      3          6           0       -1.410641    0.000001   -0.345662
      4          6           0       -0.698508   -1.206677   -0.336107
      5          6           0        0.698507   -1.206678   -0.336107
      6          6           0        1.410641    0.000000   -0.345661
      7          6           0        2.917195   -0.000001   -0.320494
      8          7           0        3.423112   -0.000001    1.046995
      9          6           0        0.698508    1.206678   -0.336106
     10          6           0       -0.698507    1.206679   -0.336105
     11          1           0       -3.042850    0.810468    1.534118
     12          1           0       -3.042845   -0.810474    1.534115
     13          1           0       -3.302247    0.876479   -0.854253
     14          1           0       -3.302248   -0.876471   -0.854261
     15          1           0       -1.229990   -2.156024   -0.329241
     16          1           0        1.229988   -2.156025   -0.329241
     17          1           0        3.302248    0.876473   -0.854257
     18          1           0        3.302247   -0.876476   -0.854256
     19          1           0        3.042848   -0.810472    1.534116
     20          1           0        3.042848    0.810471    1.534117
     21          1           0        1.229990    2.156025   -0.329236
     22          1           0       -1.229988    2.156026   -0.329236
 ---------------------------------------------------------------------
 Rotational constants (GHZ):           3.3990231           0.6781074           0.6435110
 Standard basis: 6-31G(d,p) (6D, 7F)
 There are   210 symmetry adapted cartesian basis functions of A   symmetry.
 There are   210 symmetry adapted basis functions of A   symmetry.
   210 basis functions,   364 primitive gaussians,   210 cartesian basis functions
    37 alpha electrons       37 beta electrons
       nuclear repulsion energy       501.4754588305 Hartrees.
 NAtoms=   22 NActive=   22 NUniq=   22 SFac= 1.00D+00 NAtFMM=   60 NAOKFM=F Big=F
 Integral buffers will be    131072 words long.
 Raffenetti 2 integral format.
 Two-electron integral symmetry is turned on.
 Force inversion solution in PCM.
 ------------------------------------------------------------------------------
 Polarizable Continuum Model (PCM)
 =================================
 Model                : PCM.
 Atomic radii         : UFF (Universal Force Field).
 Polarization charges : Total charges.
 Charge compensation  : None.
 Solution method      : Matrix inversion.
 Cavity type          : Scaled VdW (van der Waals Surface) (Alpha=1.100).
 Cavity algorithm     : GePol (No added spheres)
                        Default sphere list used, NSphG=   22.
                        Lebedev-Laikov grids with approx.  5.0 points / Ang**2.
                        Smoothing algorithm: York/Karplus (Gamma=1.0000).
                        Polarization charges: spherical gaussians, with
                                              point-specific exponents (IZeta= 3).
                        Self-potential: point-specific (ISelfS= 7).
                        Self-field    : sphere-specific E.n sum rule (ISelfD= 2).
 1st derivatives      : Analytical E(r).r(x)/FMM algorithm (CHGder, D1EAlg=3).
                        Cavity 1st derivative terms included.
 2nd derivatives      : Analytical E(r).r(xy)/FMM algorithm (CHGder, D2EAlg=3).
                        Cavity 2nd derivative terms included.
 Solvent              : Water, Eps=  78.355300 Eps(inf)=   1.777849
 ------------------------------------------------------------------------------
 One-electron integrals computed using PRISM.
 NBasis=   210 RedAO= T EigKep=  4.35D-04  NBF=   210
 NBsUse=   210 1.00D-06 EigRej= -1.00D+00 NBFU=   210
 ExpMin= 1.61D-01 ExpMax= 4.17D+03 ExpMxC= 6.27D+02 IAcc=3 IRadAn=         5 AccDes= 0.00D+00
 Harris functional with IExCor=  402 and IRadAn=       5 diagonalized for initial guess.
 HarFok:  IExCor=  402 AccDes= 0.00D+00 IRadAn=         5 IDoV= 1 UseB2=F ITyADJ=14
 ICtDFT=  3500011 ScaDFX=  1.000000  1.000000  1.000000  1.000000
 FoFCou: FMM=F IPFlag=           0 FMFlag=      100000 FMFlg1=           0
         NFxFlg=           0 DoJE=T BraDBF=F KetDBF=T FulRan=T
         wScrn=  0.000000 ICntrl=       500 IOpCl=  0 I1Cent=   200000004 NGrid=           0
         NMat0=    1 NMatS0=      1 NMatT0=    0 NMatD0=    1 NMtDS0=    0 NMtDT0=    0
 Petite list used in FoFCou.
 Keep R1 ints in memory in canonical form, NReq=250131393.
 Requested convergence on RMS density matrix=1.00D-08 within  32 cycles.
 Requested convergence on MAX density matrix=1.00D-06.
 Requested convergence on             energy=1.00D-06.
 No special actions if energy rises.
 Inv3:  Mode=1 IEnd=     8690412.
 Iteration    1 A*A^-1 deviation from unit magnitude is 6.99D-15 for    762.
 Iteration    1 A*A^-1 deviation from orthogonality  is 4.50D-15 for   1294    454.
 Iteration    1 A^-1*A deviation from unit magnitude is 7.66D-15 for    762.
 Iteration    1 A^-1*A deviation from orthogonality  is 5.85D-15 for   1298    507.
 Error on total polarization charges =  0.00871
 SCF Done:  E(RB3LYP) =  -421.595311034     A.U. after   11 cycles
            NFock= 11  Conv=0.25D-08     -V/T= 2.0095
 QCSCF skips out because SCF is already converged.
 DoSCS=F DFT=T ScalE2(SS,OS)=  1.000000  1.000000
 Range of M.O.s used for correlation:     1   210
 NBasis=   210 NAE=    37 NBE=    37 NFC=     0 NFV=     0
 NROrb=    210 NOA=    37 NOB=    37 NVA=   173 NVB=   173
 Symmetrizing basis deriv contribution to polar:
 IMax=3 JMax=2 DiffMx= 0.00D+00
 G2DrvN: will do    23 centers at a time, making    1 passes.
 Calling FoFCou, ICntrl=  3107 FMM=F I1Cent=   0 AccDes= 0.00D+00.
 NEqPCM:  Using equilibrium solvation (IEInf=0, Eps=  78.3553, EpsInf=   1.7778)
 G2PCM: DoFxE=T DoFxN=T DoGrad=T DoDP/DQ/DG/TGxP=FFFF NFrqRd=   0 IEInf=0 SqF1=F DoCFld=F IF1Alg=4.
 End of G2Drv F.D. properties file   721 does not exist.
 End of G2Drv F.D. properties file   722 does not exist.
 End of G2Drv F.D. properties file   788 does not exist.
          IDoAtm=1111111111111111111111
 NEqPCM:  Using equilibrium solvation (IEInf=0, Eps=  78.3553, EpsInf=   1.7778)
          Differentiating once with respect to nuclear coordinates.
 Keep R1 ints in memory in canonical form, NReq=253324689.
          There are    69 degrees of freedom in the 1st order CPHF.  IDoFFX=6 NUNeed=     0.
     63 vectors produced by pass  0 Test12= 9.28D-15 1.45D-09 XBig12= 1.51D-01 1.92D-01.
 AX will form    63 AO Fock derivatives at one time.
     63 vectors produced by pass  1 Test12= 9.28D-15 1.45D-09 XBig12= 2.67D-02 5.05D-02.
     63 vectors produced by pass  2 Test12= 9.28D-15 1.45D-09 XBig12= 2.53D-04 3.61D-03.
     63 vectors produced by pass  3 Test12= 9.28D-15 1.45D-09 XBig12= 1.18D-06 1.62D-04.
     63 vectors produced by pass  4 Test12= 9.28D-15 1.45D-09 XBig12= 1.25D-09 4.87D-06.
     36 vectors produced by pass  5 Test12= 9.28D-15 1.45D-09 XBig12= 1.13D-12 1.58D-07.
      2 vectors produced by pass  6 Test12= 9.28D-15 1.45D-09 XBig12= 1.04D-15 3.71D-09.
 InvSVY:  IOpt=1 It=  1 EMax= 5.00D-16
 Solved reduced A of dimension   353 with    69 vectors.
 End of Minotr F.D. properties file   721 does not exist.
 End of Minotr F.D. properties file   722 does not exist.
 End of Minotr F.D. properties file   788 does not exist.

 **********************************************************************

            Population analysis using the SCF density.

 **********************************************************************

 Orbital symmetries:
       Occupied  (A) (A) (A) (A) (A) (A) (A) (A) (A) (A) (A) (A)
                 (A) (A) (A) (A) (A) (A) (A) (A) (A) (A) (A) (A)
                 (A) (A) (A) (A) (A) (A) (A) (A) (A) (A) (A) (A)
                 (A)
       Virtual   (A) (A) (A) (A) (A) (A) (A) (A) (A) (A) (A) (A)
                 (A) (A) (A) (A) (A) (A) (A) (A) (A) (A) (A) (A)
                 (A) (A) (A) (A) (A) (A) (A) (A) (A) (A) (A) (A)
                 (A) (A) (A) (A) (A) (A) (A) (A) (A) (A) (A) (A)
                 (A) (A) (A) (A) (A) (A) (A) (A) (A) (A) (A) (A)
                 (A) (A) (A) (A) (A) (A) (A) (A) (A) (A) (A) (A)
                 (A) (A) (A) (A) (A) (A) (A) (A) (A) (A) (A) (A)
                 (A) (A) (A) (A) (A) (A) (A) (A) (A) (A) (A) (A)
                 (A) (A) (A) (A) (A) (A) (A) (A) (A) (A) (A) (A)
                 (A) (A) (A) (A) (A) (A) (A) (A) (A) (A) (A) (A)
                 (A) (A) (A) (A) (A) (A) (A) (A) (A) (A) (A) (A)
                 (A) (A) (A) (A) (A) (A) (A) (A) (A) (A) (A) (A)
                 (A) (A) (A) (A) (A) (A) (A) (A) (A) (A) (A) (A)
                 (A) (A) (A) (A) (A) (A) (A) (A) (A) (A) (A) (A)
                 (A) (A) (A) (A) (A)
 The electronic state is 1-A.
 Alpha  occ. eigenvalues --  -14.31283 -14.31283 -10.20720 -10.20720 -10.18924
 Alpha  occ. eigenvalues --  -10.18924 -10.18720 -10.18712 -10.18665 -10.18660
 Alpha  occ. eigenvalues --   -0.89041  -0.88560  -0.84190  -0.75701  -0.74186
 Alpha  occ. eigenvalues --   -0.67966  -0.63171  -0.60670  -0.57110  -0.50021
 Alpha  occ. eigenvalues --   -0.49810  -0.48279  -0.45529  -0.44031  -0.42709
 Alpha  occ. eigenvalues --   -0.42603  -0.41529  -0.41009  -0.37153  -0.36303
 Alpha  occ. eigenvalues --   -0.35163  -0.34693  -0.33168  -0.26400  -0.25032
 Alpha  occ. eigenvalues --   -0.23862  -0.21882
 Alpha virt. eigenvalues --   -0.00396  -0.00123   0.09471   0.09510   0.11696
 Alpha virt. eigenvalues --    0.12303   0.13116   0.14415   0.15443   0.15568
 Alpha virt. eigenvalues --    0.17755   0.18155   0.18737   0.19404   0.21676
 Alpha virt. eigenvalues --    0.23378   0.26029   0.26971   0.28126   0.32907
 Alpha virt. eigenvalues --    0.33490   0.34604   0.35995   0.49231   0.50732
 Alpha virt. eigenvalues --    0.52044   0.52342   0.52697   0.54891   0.55569
 Alpha virt. eigenvalues --    0.58236   0.59317   0.59549   0.59630   0.62230
 Alpha virt. eigenvalues --    0.63456   0.63940   0.64908   0.68506   0.69301
 Alpha virt. eigenvalues --    0.71527   0.72351   0.72411   0.73155   0.73417
 Alpha virt. eigenvalues --    0.77218   0.79680   0.80824   0.81526   0.83010
 Alpha virt. eigenvalues --    0.84121   0.84949   0.86947   0.87111   0.88315
 Alpha virt. eigenvalues --    0.89224   0.91437   0.93781   0.93881   0.94732
 Alpha virt. eigenvalues --    0.97671   0.99078   0.99204   1.00646   1.07066
 Alpha virt. eigenvalues --    1.08081   1.08256   1.15826   1.17498   1.19939
 Alpha virt. eigenvalues --    1.26311   1.27736   1.30712   1.31913   1.35364
 Alpha virt. eigenvalues --    1.40247   1.40669   1.42401   1.43151   1.45376
 Alpha virt. eigenvalues --    1.50456   1.50984   1.55727   1.62643   1.67541
 Alpha virt. eigenvalues --    1.67559   1.75729   1.78261   1.82074   1.82263
 Alpha virt. eigenvalues --    1.83831   1.85202   1.88130   1.91788   1.92949
 Alpha virt. eigenvalues --    1.93827   1.94511   1.95926   1.96933   1.97631
 Alpha virt. eigenvalues --    1.99344   2.03042   2.04159   2.08213   2.09318
 Alpha virt. eigenvalues --    2.16517   2.16973   2.19880   2.22172   2.23813
 Alpha virt. eigenvalues --    2.24193   2.24400   2.26441   2.28044   2.29178
 Alpha virt. eigenvalues --    2.29543   2.31141   2.31456   2.35457   2.40240
 Alpha virt. eigenvalues --    2.40439   2.41476   2.42868   2.43560   2.46372
 Alpha virt. eigenvalues --    2.48476   2.50574   2.54121   2.55283   2.59579
 Alpha virt. eigenvalues --    2.60102   2.62225   2.64821   2.68645   2.69559
 Alpha virt. eigenvalues --    2.72825   2.73272   2.73828   2.78874   2.79977
 Alpha virt. eigenvalues --    2.80584   2.83848   2.88256   2.89500   2.91243
 Alpha virt. eigenvalues --    2.97496   2.97929   3.03925   3.06908   3.20595
 Alpha virt. eigenvalues --    3.24807   3.25699   3.27385   3.31750   3.32053
 Alpha virt. eigenvalues --    3.32784   3.38242   3.38546   3.39911   3.50469
 Alpha virt. eigenvalues --    3.57841   3.59229   3.82746   3.96366   3.97163
 Alpha virt. eigenvalues --    4.16128   4.16238   4.23987   4.44048   4.45223
 Alpha virt. eigenvalues --    4.57703   4.58987   4.85262
          Condensed to atoms (all electrons):
               1          2          3          4          5          6
     1  N    6.775955   0.319980  -0.082864  -0.003155  -0.000027   0.000002
     2  C    0.319980   4.897000   0.358305  -0.052418   0.005995   0.000352
     3  C   -0.082864   0.358305   4.803167   0.540114  -0.032825  -0.027904
     4  C   -0.003155  -0.052418   0.540114   4.923295   0.496328  -0.032825
     5  C   -0.000027   0.005995  -0.032825   0.496328   4.923295   0.540114
     6  C    0.000002   0.000352  -0.027904  -0.032825   0.540114   4.803167
     7  C   -0.000000  -0.000001   0.000352   0.005995  -0.052418   0.358305
     8  N   -0.000000  -0.000000   0.000002  -0.000028  -0.003155  -0.082864
     9  C   -0.000028   0.005995  -0.032825  -0.049150  -0.032795   0.540113
    10  C   -0.003155  -0.052418   0.540114  -0.032795  -0.049150  -0.032825
    11  H    0.342979  -0.046062  -0.000349  -0.000127  -0.000007  -0.000009
    12  H    0.342979  -0.046063  -0.000349   0.005052  -0.000170  -0.000009
    13  H   -0.037855   0.376650  -0.038942   0.004427  -0.000251   0.000012
    14  H   -0.037855   0.376650  -0.038942  -0.005560   0.000106   0.000012
    15  H    0.000542  -0.008245  -0.046172   0.367169  -0.038059   0.003994
    16  H    0.000003  -0.000167   0.003994  -0.038059   0.367169  -0.046172
    17  H    0.000000  -0.000000   0.000012  -0.000251   0.004427  -0.038942
    18  H    0.000000  -0.000000   0.000012   0.000106  -0.005560  -0.038942
    19  H    0.000000  -0.000000  -0.000009  -0.000170   0.005052  -0.000349
    20  H    0.000000  -0.000000  -0.000009  -0.000007  -0.000127  -0.000349
    21  H    0.000003  -0.000167   0.003994   0.000614   0.005296  -0.046172
    22  H    0.000542  -0.008245  -0.046172   0.005296   0.000614   0.003994
               7          8          9         10         11         12
     1  N   -0.000000  -0.000000  -0.000028  -0.003155   0.342979   0.342979
     2  C   -0.000001  -0.000000   0.005995  -0.052418  -0.046062  -0.046063
     3  C    0.000352   0.000002  -0.032825   0.540114  -0.000349  -0.000349
     4  C    0.005995  -0.000028  -0.049150  -0.032795  -0.000127   0.005052
     5  C   -0.052418  -0.003155  -0.032795  -0.049150  -0.000007  -0.000170
     6  C    0.358305  -0.082864   0.540113  -0.032825  -0.000009  -0.000009
     7  C    4.897000   0.319980  -0.052418   0.005995  -0.000000  -0.000000
     8  N    0.319980   6.775955  -0.003155  -0.000028   0.000000   0.000000
     9  C   -0.052418  -0.003155   4.923295   0.496328  -0.000170  -0.000007
    10  C    0.005995  -0.000028   0.496328   4.923295   0.005052  -0.000127
    11  H   -0.000000   0.000000  -0.000170   0.005052   0.479242  -0.033503
    12  H   -0.000000   0.000000  -0.000007  -0.000127  -0.033503   0.479242
    13  H   -0.000000   0.000000   0.000106  -0.005560  -0.005390   0.006834
    14  H   -0.000000   0.000000  -0.000251   0.004427   0.006834  -0.005390
    15  H   -0.000167   0.000003   0.000614   0.005296   0.000047   0.000913
    16  H   -0.008245   0.000542   0.005296   0.000614   0.000000   0.000004
    17  H    0.376650  -0.037855  -0.005560   0.000106  -0.000000   0.000000
    18  H    0.376650  -0.037855   0.004427  -0.000251   0.000000  -0.000000
    19  H   -0.046063   0.342979  -0.000127  -0.000007  -0.000000  -0.000000
    20  H   -0.046063   0.342979   0.005052  -0.000170  -0.000000  -0.000000
    21  H   -0.008245   0.000542   0.367169  -0.038059   0.000004   0.000000
    22  H   -0.000167   0.000003  -0.038059   0.367169   0.000913   0.000047
              13         14         15         16         17         18
     1  N   -0.037855  -0.037855   0.000542   0.000003   0.000000   0.000000
     2  C    0.376650   0.376650  -0.008245  -0.000167  -0.000000  -0.000000
     3  C   -0.038942  -0.038942  -0.046172   0.003994   0.000012   0.000012
     4  C    0.004427  -0.005560   0.367169  -0.038059  -0.000251   0.000106
     5  C   -0.000251   0.000106  -0.038059   0.367169   0.004427  -0.005560
     6  C    0.000012   0.000012   0.003994  -0.046172  -0.038942  -0.038942
     7  C   -0.000000  -0.000000  -0.000167  -0.008245   0.376650   0.376650
     8  N    0.000000   0.000000   0.000003   0.000542  -0.037855  -0.037855
     9  C    0.000106  -0.000251   0.000614   0.005296  -0.005560   0.004427
    10  C   -0.005560   0.004427   0.005296   0.000614   0.000106  -0.000251
    11  H   -0.005390   0.006834   0.000047   0.000000  -0.000000   0.000000
    12  H    0.006834  -0.005390   0.000913   0.000004   0.000000  -0.000000
    13  H    0.617940  -0.035459   0.000114   0.000003   0.000000  -0.000000
    14  H   -0.035459   0.617940   0.004984  -0.000003  -0.000000   0.000000
    15  H    0.000114   0.004984   0.619709  -0.005460   0.000003  -0.000003
    16  H    0.000003  -0.000003  -0.005460   0.619709   0.000114   0.004984
    17  H    0.000000  -0.000000   0.000003   0.000114   0.617939  -0.035459
    18  H   -0.000000   0.000000  -0.000003   0.004984  -0.035459   0.617940
    19  H    0.000000  -0.000000   0.000004   0.000913   0.006834  -0.005390
    20  H   -0.000000   0.000000   0.000000   0.000047  -0.005390   0.006834
    21  H   -0.000003   0.000003   0.000019  -0.000167   0.004984   0.000114
    22  H    0.004984   0.000114  -0.000167   0.000019  -0.000003   0.000003
              19         20         21         22
     1  N    0.000000   0.000000   0.000003   0.000542
     2  C   -0.000000  -0.000000  -0.000167  -0.008245
     3  C   -0.000009  -0.000009   0.003994  -0.046172
     4  C   -0.000170  -0.000007   0.000614   0.005296
     5  C    0.005052  -0.000127   0.005296   0.000614
     6  C   -0.000349  -0.000349  -0.046172   0.003994
     7  C   -0.046063  -0.046063  -0.008245  -0.000167
     8  N    0.342979   0.342979   0.000542   0.000003
     9  C   -0.000127   0.005052   0.367169  -0.038059
    10  C   -0.000007  -0.000170  -0.038059   0.367169
    11  H   -0.000000  -0.000000   0.000004   0.000913
    12  H   -0.000000  -0.000000   0.000000   0.000047
    13  H    0.000000  -0.000000  -0.000003   0.004984
    14  H   -0.000000   0.000000   0.000003   0.000114
    15  H    0.000004   0.000000   0.000019  -0.000167
    16  H    0.000913   0.000047  -0.000167   0.000019
    17  H    0.006834  -0.005390   0.004984  -0.000003
    18  H   -0.005390   0.006834   0.000114   0.000003
    19  H    0.479242  -0.033503   0.000047   0.000000
    20  H   -0.033503   0.479242   0.000913   0.000004
    21  H    0.000047   0.000913   0.619709  -0.005460
    22  H    0.000000   0.000004  -0.005460   0.619709
 Mulliken charges:
               1
     1  N   -0.618048
     2  C   -0.127138
     3  C    0.097297
     4  C   -0.133852
     5  C   -0.133853
     6  C    0.097298
     7  C   -0.127138
     8  N   -0.618048
     9  C   -0.133853
    10  C   -0.133853
    11  H    0.250547
    12  H    0.250546
    13  H    0.112389
    14  H    0.112389
    15  H    0.094861
    16  H    0.094861
    17  H    0.112389
    18  H    0.112389
    19  H    0.250547
    20  H    0.250546
    21  H    0.094861
    22  H    0.094861
 Sum of Mulliken charges =  -0.00000
 Mulliken charges with hydrogens summed into heavy atoms:
               1
     1  N   -0.116955
     2  C    0.097640
     3  C    0.097297
     4  C   -0.038991
     5  C   -0.038992
     6  C    0.097298
     7  C    0.097640
     8  N   -0.116955
     9  C   -0.038992
    10  C   -0.038991
 APT charges:
               1
     1  N   -0.586230
     2  C   -0.870861
     3  C    0.003233
     4  C   -0.515188
     5  C   -0.515189
     6  C    0.003233
     7  C   -0.870861
     8  N   -0.586231
     9  C   -0.515188
    10  C   -0.515189
    11  H    0.288804
    12  H    0.288801
    13  H    0.461000
    14  H    0.461000
    15  H    0.492316
    16  H    0.492316
    17  H    0.461000
    18  H    0.460999
    19  H    0.288802
    20  H    0.288803
    21  H    0.492315
    22  H    0.492316
 Sum of APT charges =  -0.00000
 APT charges with hydrogens summed into heavy atoms:
               1
     1  N   -0.008626
     2  C    0.051139
     3  C    0.003233
     4  C   -0.022873
     5  C   -0.022873
     6  C    0.003233
     7  C    0.051139
     8  N   -0.008626
     9  C   -0.022873
    10  C   -0.022873
 Electronic spatial extent (au):  <R**2>=           1861.2725
 Charge=             -0.0000 electrons
 Dipole moment (field-independent basis, Debye):
    X=              0.0000    Y=              0.0000    Z=              0.3825  Tot=              0.3825
 Quadrupole moment (field-independent basis, Debye-Ang):
   XX=            -79.8673   YY=            -52.6132   ZZ=            -59.7206
   XY=             -0.0000   XZ=              0.0000   YZ=              0.0000
 Traceless Quadrupole moment (field-independent basis, Debye-Ang):
   XX=            -15.8003   YY=             11.4538   ZZ=              4.3464
   XY=             -0.0000   XZ=              0.0000   YZ=              0.0000
 Octapole moment (field-independent basis, Debye-Ang**2):
  XXX=              0.0001  YYY=             -0.0000  ZZZ=             16.3991  XYY=              0.0000
  XXY=              0.0002  XXZ=            -27.2343  XZZ=             -0.0000  YZZ=             -0.0000
  YYZ=              4.5200  XYZ=             -0.0000
 Hexadecapole moment (field-independent basis, Debye-Ang**3):
 XXXX=          -2534.0415 YYYY=           -310.7866 ZZZZ=           -199.6624 XXXY=             -0.0005
 XXXZ=              0.0001 YYYX=             -0.0000 YYYZ=              0.0000 ZZZX=             -0.0000
 ZZZY=              0.0000 XXYY=           -330.6640 XXZZ=           -355.4029 YYZZ=            -88.6138
 XXYZ=              0.0002 YYXZ=              0.0000 ZZXY=             -0.0000
 N-N= 5.014754588305D+02 E-N=-1.980606729319D+03  KE= 4.176175645332D+02
  Exact polarizability:   0.000   0.000   0.000   0.000   0.000   0.000
 Approx polarizability: 180.226  -0.000 167.991   0.000   0.000  85.897
 D2PCM: PCM CHGder 2nd derivatives, FixD1E=F FixD2E=F DoIter=F DoCFld=F I1PDM=0
 Calling FoFJK, ICntrl=    100147 FMM=F ISym2X=0 I1Cent= 0 IOpClX= 0 NMat=1 NMatS=1 NMatT=0.
 ***** Axes restored to original set *****
 -------------------------------------------------------------------
 Center     Atomic                   Forces (Hartrees/Bohr)
 Number     Number              X              Y              Z
 -------------------------------------------------------------------
      1        7          -0.012557500    0.004589106    0.007414598
      2        6           0.004707855   -0.002023961   -0.003857037
      3        6           0.002536991   -0.002704515   -0.007804963
      4        6           0.004936359    0.000159262    0.000648052
      5        6          -0.004602031    0.001903585    0.000100942
      6        6          -0.002447577   -0.001793274   -0.008091189
      7        6          -0.004661592   -0.000310934   -0.004394299
      8        7           0.012466127    0.000013391    0.008850165
      9        6          -0.004943360    0.000189406    0.000584380
     10        6           0.004595066   -0.001555059    0.001131208
     11        1          -0.000302922   -0.000701172    0.000472496
     12        1           0.000015298    0.000897687    0.000021817
     13        1          -0.000529146    0.001521469    0.001775912
     14        1          -0.000854921   -0.000115046    0.002237211
     15        1          -0.000894686    0.000745693   -0.001238135
     16        1           0.001231331    0.000356927   -0.001116142
     17        1           0.000831955    0.001272768    0.001853841
     18        1           0.000506149   -0.000363883    0.002315178
     19        1           0.000300070    0.000845811    0.000038191
     20        1          -0.000018172   -0.000753583    0.000488819
     21        1           0.000905413   -0.001281184   -0.000654577
     22        1          -0.001220708   -0.000892491   -0.000776468
 -------------------------------------------------------------------
 Cartesian Forces:  Max     0.012557500 RMS     0.003559251
 FormGI is forming the generalized inverse of G from B-inverse, IUseBI=4.

 GradGradGradGradGradGradGradGradGradGradGradGradGradGradGradGradGradGrad
 Berny optimization.
 Internal  Forces:  Max     0.016666020 RMS     0.003702201
 Search for a local minimum.
 Step number   1 out of a maximum of  116
 All quantities printed in internal units (Hartrees-Bohrs-Radians)
 Mixed Optimization -- RFO/linear search
 Second derivative matrix not updated -- analytic derivatives used.
 ITU=  0
     Eigenvalues ---    0.00098   0.00103   0.00309   0.00310   0.01617
     Eigenvalues ---    0.01626   0.01729   0.02048   0.02113   0.02373
     Eigenvalues ---    0.02549   0.02699   0.02703   0.03557   0.03595
     Eigenvalues ---    0.05433   0.05445   0.05955   0.05971   0.08834
     Eigenvalues ---    0.08852   0.11392   0.11582   0.11961   0.12360
     Eigenvalues ---    0.12366   0.12859   0.15091   0.15119   0.17343
     Eigenvalues ---    0.18145   0.19126   0.19177   0.19384   0.19447
     Eigenvalues ---    0.20274   0.22202   0.22511   0.29291   0.29993
     Eigenvalues ---    0.31063   0.33112   0.33162   0.33273   0.33277
     Eigenvalues ---    0.35237   0.35620   0.35623   0.35708   0.38309
     Eigenvalues ---    0.38596   0.41309   0.41658   0.44072   0.44075
     Eigenvalues ---    0.44244   0.44247   0.46465   0.46505   0.50344
 RFO step:  Lambda=-5.24018317D-03 EMin= 9.79824913D-04
 Linear search not attempted -- first point.
 Iteration  1 RMS(Cart)=  0.05159367 RMS(Int)=  0.00059067
 Iteration  2 RMS(Cart)=  0.00088701 RMS(Int)=  0.00019543
 Iteration  3 RMS(Cart)=  0.00000137 RMS(Int)=  0.00019543
 Iteration  4 RMS(Cart)=  0.00000000 RMS(Int)=  0.00019543
 Variable       Old X    -DE/DX   Delta X   Delta X   Delta X     New X
                                 (Linear)    (Quad)   (Total)
    R1        2.75536   0.01295   0.00000   0.03254   0.03254   2.78790
    R2        1.92599  -0.00060   0.00000   0.00048   0.00048   1.92647
    R3        1.92599  -0.00060   0.00000   0.00048   0.00048   1.92647
    R4        2.84737   0.00979   0.00000   0.02063   0.02063   2.86800
    R5        2.07128  -0.00010   0.00000  -0.00070  -0.00070   2.07058
    R6        2.07128  -0.00010   0.00000  -0.00070  -0.00070   2.07058
    R7        2.64784   0.00028   0.00000   0.00130   0.00130   2.64915
    R8        2.64784   0.00028   0.00000   0.00130   0.00130   2.64915
    R9        2.63998  -0.00022   0.00000  -0.00370  -0.00370   2.63627
   R10        2.05605  -0.00023   0.00000  -0.00032  -0.00032   2.05573
   R11        2.64784   0.00028   0.00000   0.00130   0.00130   2.64915
   R12        2.05605  -0.00023   0.00000  -0.00032  -0.00032   2.05573
   R13        2.84737   0.00979   0.00000   0.02063   0.02063   2.86800
   R14        2.64784   0.00028   0.00000   0.00130   0.00130   2.64915
   R15        2.75536   0.01295   0.00000   0.03254   0.03254   2.78790
   R16        2.07128  -0.00010   0.00000  -0.00070  -0.00070   2.07058
   R17        2.07128  -0.00010   0.00000  -0.00070  -0.00070   2.07058
   R18        1.92599  -0.00060   0.00000   0.00048   0.00048   1.92647
   R19        1.92599  -0.00060   0.00000   0.00048   0.00048   1.92647
   R20        2.63998  -0.00022   0.00000  -0.00370  -0.00370   2.63627
   R21        2.05605  -0.00023   0.00000  -0.00032  -0.00032   2.05573
   R22        2.05605  -0.00023   0.00000  -0.00032  -0.00032   2.05573
    A1        1.89526   0.00069   0.00000  -0.00160  -0.00161   1.89365
    A2        1.89526   0.00069   0.00000  -0.00160  -0.00161   1.89365
    A3        1.83871  -0.00070   0.00000  -0.00811  -0.00812   1.83058
    A4        1.94184   0.01667   0.00000   0.06478   0.06502   2.00686
    A5        1.91222  -0.00639   0.00000  -0.03307  -0.03335   1.87887
    A6        1.91222  -0.00639   0.00000  -0.03307  -0.03335   1.87887
    A7        1.92103  -0.00378   0.00000  -0.00809  -0.00770   1.91334
    A8        1.92103  -0.00378   0.00000  -0.00809  -0.00769   1.91334
    A9        1.85342   0.00288   0.00000   0.01444   0.01381   1.86724
   A10        2.10372   0.00200   0.00000   0.00697   0.00699   2.11071
   A11        2.10372   0.00200   0.00000   0.00697   0.00699   2.11071
   A12        2.07521  -0.00401   0.00000  -0.01397  -0.01401   2.06119
   A13        2.10394   0.00201   0.00000   0.00711   0.00706   2.11099
   A14        2.09810  -0.00241   0.00000  -0.01301  -0.01300   2.08510
   A15        2.08115   0.00041   0.00000   0.00590   0.00591   2.08706
   A16        2.10394   0.00201   0.00000   0.00711   0.00706   2.11099
   A17        2.08115   0.00041   0.00000   0.00590   0.00591   2.08706
   A18        2.09810  -0.00241   0.00000  -0.01301  -0.01300   2.08510
   A19        2.10372   0.00200   0.00000   0.00697   0.00699   2.11071
   A20        2.07521  -0.00401   0.00000  -0.01397  -0.01401   2.06119
   A21        2.10372   0.00200   0.00000   0.00697   0.00699   2.11071
   A22        1.94184   0.01667   0.00000   0.06478   0.06502   2.00686
   A23        1.92103  -0.00378   0.00000  -0.00809  -0.00770   1.91334
   A24        1.92103  -0.00378   0.00000  -0.00809  -0.00770   1.91334
   A25        1.91222  -0.00639   0.00000  -0.03307  -0.03335   1.87887
   A26        1.91222  -0.00639   0.00000  -0.03307  -0.03335   1.87887
   A27        1.85343   0.00288   0.00000   0.01444   0.01381   1.86724
   A28        1.89526   0.00069   0.00000  -0.00160  -0.00161   1.89365
   A29        1.89526   0.00069   0.00000  -0.00160  -0.00161   1.89365
   A30        1.83871  -0.00070   0.00000  -0.00811  -0.00813   1.83058
   A31        2.10394   0.00201   0.00000   0.00711   0.00706   2.11099
   A32        2.09810  -0.00241   0.00000  -0.01301  -0.01300   2.08510
   A33        2.08115   0.00041   0.00000   0.00590   0.00591   2.08706
   A34        2.10394   0.00201   0.00000   0.00711   0.00706   2.11099
   A35        2.09810  -0.00241   0.00000  -0.01301  -0.01300   2.08510
   A36        2.08115   0.00041   0.00000   0.00590   0.00591   2.08706
    D1        0.99542  -0.00006   0.00000  -0.00560  -0.00560   0.98983
    D2       -1.13277  -0.00197   0.00000  -0.01575  -0.01525  -1.14802
    D3        3.12362   0.00185   0.00000   0.00456   0.00406   3.12767
    D4       -0.99541   0.00006   0.00000   0.00560   0.00559  -0.98982
    D5       -3.12361  -0.00185   0.00000  -0.00456  -0.00406  -3.12767
    D6        1.13278   0.00197   0.00000   0.01575   0.01524   1.14802
    D7        1.55302  -0.00009   0.00000  -0.00072  -0.00072   1.55230
    D8       -1.55303   0.00009   0.00000   0.00072   0.00072  -1.55231
    D9       -2.60709   0.00040   0.00000  -0.00472  -0.00458  -2.61168
   D10        0.57005   0.00058   0.00000  -0.00329  -0.00314   0.56690
   D11       -0.57005  -0.00058   0.00000   0.00329   0.00314  -0.56691
   D12        2.60709  -0.00040   0.00000   0.00472   0.00458   2.61167
   D13       -3.12220   0.00069   0.00000   0.01912   0.01913  -3.10307
   D14        0.02008   0.00083   0.00000   0.02643   0.02641   0.04650
   D15       -0.01558   0.00064   0.00000   0.01812   0.01814   0.00256
   D16        3.12670   0.00077   0.00000   0.02544   0.02542  -3.13106
   D17        3.12220  -0.00069   0.00000  -0.01912  -0.01913   3.10307
   D18       -0.02008  -0.00083   0.00000  -0.02644  -0.02641  -0.04650
   D19        0.01558  -0.00064   0.00000  -0.01812  -0.01814  -0.00256
   D20       -3.12670  -0.00077   0.00000  -0.02544  -0.02542   3.13106
   D21        0.00000  -0.00000   0.00000  -0.00000  -0.00000   0.00000
   D22       -3.14091   0.00013   0.00000   0.00726   0.00729  -3.13361
   D23        3.14091  -0.00013   0.00000  -0.00726  -0.00730   3.13361
   D24        0.00000  -0.00000   0.00000  -0.00000  -0.00000   0.00000
   D25        3.12220  -0.00069   0.00000  -0.01912  -0.01913   3.10307
   D26        0.01558  -0.00064   0.00000  -0.01812  -0.01814  -0.00256
   D27       -0.02008  -0.00083   0.00000  -0.02643  -0.02641  -0.04650
   D28       -3.12671  -0.00077   0.00000  -0.02544  -0.02542   3.13106
   D29       -1.55302   0.00009   0.00000   0.00072   0.00072  -1.55230
   D30        2.60709  -0.00040   0.00000   0.00472   0.00458   2.61167
   D31        0.57005   0.00058   0.00000  -0.00328  -0.00314   0.56690
   D32        1.55302  -0.00009   0.00000  -0.00072  -0.00072   1.55230
   D33       -0.57005  -0.00058   0.00000   0.00329   0.00314  -0.56691
   D34       -2.60709   0.00040   0.00000  -0.00472  -0.00458  -2.61168
   D35       -0.01558   0.00064   0.00000   0.01812   0.01814   0.00256
   D36        3.12670   0.00077   0.00000   0.02544   0.02542  -3.13106
   D37       -3.12220   0.00069   0.00000   0.01911   0.01913  -3.10307
   D38        0.02008   0.00083   0.00000   0.02644   0.02641   0.04650
   D39        0.99542  -0.00006   0.00000  -0.00560  -0.00559   0.98982
   D40       -0.99542   0.00006   0.00000   0.00560   0.00559  -0.98982
   D41        3.12361   0.00185   0.00000   0.00456   0.00406   3.12767
   D42        1.13278   0.00197   0.00000   0.01575   0.01525   1.14802
   D43       -1.13278  -0.00197   0.00000  -0.01575  -0.01525  -1.14802
   D44       -3.12361  -0.00185   0.00000  -0.00456  -0.00406  -3.12767
   D45       -0.00000   0.00000   0.00000   0.00000   0.00000  -0.00000
   D46       -3.14091   0.00013   0.00000   0.00726   0.00730  -3.13361
   D47        3.14091  -0.00013   0.00000  -0.00726  -0.00730   3.13361
   D48        0.00000  -0.00000   0.00000  -0.00000  -0.00000   0.00000
         Item               Value     Threshold  Converged?
 Maximum Force            0.016666     0.000450     NO 
 RMS     Force            0.003702     0.000300     NO 
 Maximum Displacement     0.205033     0.001800     NO 
 RMS     Displacement     0.051799     0.001200     NO 
 Predicted change in Energy=-2.693153D-03
 GradGradGradGradGradGradGradGradGradGradGradGradGradGradGradGradGradGrad

                          Input orientation:                          
 ---------------------------------------------------------------------
 Center     Atomic      Atomic             Coordinates (Angstroms)
 Number     Number       Type             X           Y           Z
 ---------------------------------------------------------------------
      1          7           0       -3.456664    0.907603    0.792884
      2          6           0       -2.881054    0.434199   -0.480321
      3          6           0       -1.391043    0.148126   -0.443108
      4          6           0       -0.909135   -1.118296   -0.083699
      5          6           0        0.460985   -1.368844   -0.005103
      6          6           0        1.395279   -0.361397   -0.283273
      7          6           0        2.884748   -0.620168   -0.149571
      8          7           0        3.445680   -0.354594    1.188830
      9          6           0        0.913389    0.904162   -0.645730
     10          6           0       -0.456731    1.154710   -0.724326
     11          1           0       -2.952567    1.744353    1.084443
     12          1           0       -3.256671    0.216430    1.515072
     13          1           0       -3.091217    1.192892   -1.242411
     14          1           0       -3.422622   -0.472184   -0.773129
     15          1           0       -1.614484   -1.918535    0.129631
     16          1           0        0.810442   -2.361971    0.268735
     17          1           0        3.432001    0.000016   -0.868215
     18          1           0        3.100595   -1.665058   -0.398926
     19          1           0        2.936112   -0.916011    1.870315
     20          1           0        3.240219    0.611909    1.439683
     21          1           0        1.618832    1.699612   -0.875987
     22          1           0       -0.806093    2.143048   -1.015090
 ---------------------------------------------------------------------
                    Distance matrix (angstroms):
                    1          2          3          4          5
     1  N    0.000000
     2  C    1.475293   0.000000
     3  C    2.524139   1.517682   0.000000
     4  C    3.370841   2.540869   1.401868   0.000000
     5  C    4.600757   3.827012   2.433732   1.395056   0.000000
     6  C    5.129311   4.354174   2.837031   2.433731   1.401868
     7  C    6.590586   5.870738   4.354174   3.827012   2.540869
     8  N    7.027963   6.590586   5.129311   4.600758   3.370843
     9  C    4.600759   3.827012   2.433731   2.779893   2.404501
    10  C    3.370843   2.540869   1.401867   2.404501   2.779893
    11  H    1.019446   2.042083   2.705496   3.706065   4.746729
    12  H    1.019446   2.042083   2.705495   3.138229   4.317984
    13  H    2.087431   1.095702   2.149654   3.383147   4.550995
    14  H    2.087431   1.095702   2.149654   2.685217   4.059096
    15  H    3.438109   2.740731   2.156164   1.087846   2.151252
    16  H    5.401207   4.691140   3.413772   2.151252   1.087846
    17  H    7.143996   6.339846   4.844007   4.550994   3.383146
    18  H    7.143994   6.339846   4.844007   4.059096   2.685216
    19  H    6.734539   6.417786   5.020815   4.317987   3.138233
    20  H    6.734540   6.417786   5.020815   4.746729   3.706067
    21  H    5.401210   4.691141   3.413772   3.867679   3.393298
    22  H    3.438113   2.740731   2.156164   3.393298   3.867679
                    6          7          8          9         10
     6  C    0.000000
     7  C    1.517682   0.000000
     8  N    2.524139   1.475293   0.000000
     9  C    1.401867   2.540869   3.370842   0.000000
    10  C    2.433732   3.827012   4.600758   1.395056   0.000000
    11  H    5.020816   6.417787   6.734540   4.317989   3.138234
    12  H    5.020813   6.417785   6.734538   4.746729   3.706066
    13  H    4.844007   6.339846   7.143994   4.059095   2.685215
    14  H    4.844007   6.339846   7.143996   4.550994   3.383146
    15  H    3.413772   4.691141   5.401209   3.867679   3.393298
    16  H    2.156164   2.740731   3.438112   3.393298   3.867679
    17  H    2.149654   1.095702   2.087431   2.685216   4.059096
    18  H    2.149654   1.095702   2.087431   3.383146   4.550994
    19  H    2.705496   2.042083   1.019446   3.706066   4.746728
    20  H    2.705496   2.042083   1.019446   3.138231   4.317986
    21  H    2.156164   2.740731   3.438110   1.087846   2.151252
    22  H    3.413772   4.691141   5.401208   2.151252   1.087846
                   11         12         13         14         15
    11  H    0.000000
    12  H    1.616313   0.000000
    13  H    2.395325   2.929942   0.000000
    14  H    2.929942   2.395327   1.761401   0.000000
    15  H    4.014832   3.028911   3.707320   2.485211   0.000000
    16  H    5.629166   4.974225   5.490314   4.751379   2.469058
    17  H    6.900600   7.103888   6.641938   6.871526   5.490314
    18  H    7.103889   6.900596   6.871527   6.641938   4.751378
    19  H    6.509352   6.305488   7.103888   6.900599   4.974229
    20  H    6.305491   6.509352   6.900597   7.103889   5.629167
    21  H    4.974231   5.629167   4.751378   5.490313   4.955461
    22  H    3.028918   4.014835   2.485208   3.707318   4.296550
                   16         17         18         19         20
    16  H    0.000000
    17  H    3.707319   0.000000
    18  H    2.485209   1.761401   0.000000
    19  H    3.028916   2.929942   2.395326   0.000000
    20  H    4.014835   2.395326   2.929942   1.616313   0.000000
    21  H    4.296550   2.485210   3.707319   4.014833   3.028913
    22  H    4.955461   4.751379   5.490314   5.629166   4.974227
                   21         22
    21  H    0.000000
    22  H    2.469058   0.000000
 Stoichiometry    C8H12N2
 Framework group  C1[X(C8H12N2)]
 Deg. of freedom    60
 Full point group                 C1      NOp   1
 Largest Abelian subgroup         C1      NOp   1
 Largest concise Abelian subgroup C1      NOp   1
                         Standard orientation:                         
 ---------------------------------------------------------------------
 Center     Atomic      Atomic             Coordinates (Angstroms)
 Number     Number       Type             X           Y           Z
 ---------------------------------------------------------------------
      1          7           0       -3.513982   -0.000003    1.056244
      2          6           0       -2.935369    0.000002   -0.300848
      3          6           0       -1.418516    0.000001   -0.350987
      4          6           0       -0.697528   -1.202250   -0.352572
      5          6           0        0.697527   -1.202250   -0.352572
      6          6           0        1.418516    0.000000   -0.350987
      7          6           0        2.935369   -0.000001   -0.300848
      8          7           0        3.513982   -0.000001    1.056244
      9          6           0        0.697528    1.202251   -0.352569
     10          6           0       -0.697527    1.202251   -0.352569
     11          1           0       -3.152746    0.808152    1.561877
     12          1           0       -3.152743   -0.808160    1.561872
     13          1           0       -3.320969    0.880705   -0.826432
     14          1           0       -3.320970   -0.880697   -0.826439
     15          1           0       -1.234530   -2.148274   -0.361369
     16          1           0        1.234528   -2.148275   -0.361369
     17          1           0        3.320969    0.880700   -0.826435
     18          1           0        3.320969   -0.880702   -0.826435
     19          1           0        3.152744   -0.808157    1.561874
     20          1           0        3.152745    0.808155    1.561875
     21          1           0        1.234530    2.148275   -0.361364
     22          1           0       -1.234528    2.148276   -0.361364
 ---------------------------------------------------------------------
 Rotational constants (GHZ):           3.3876554           0.6560168           0.6249426
 Standard basis: 6-31G(d,p) (6D, 7F)
 There are   210 symmetry adapted cartesian basis functions of A   symmetry.
 There are   210 symmetry adapted basis functions of A   symmetry.
   210 basis functions,   364 primitive gaussians,   210 cartesian basis functions
    37 alpha electrons       37 beta electrons
       nuclear repulsion energy       497.6208892159 Hartrees.
 NAtoms=   22 NActive=   22 NUniq=   22 SFac= 1.00D+00 NAtFMM=   60 NAOKFM=F Big=F
 Integral buffers will be    131072 words long.
 Raffenetti 2 integral format.
 Two-electron integral symmetry is turned on.
 ------------------------------------------------------------------------------
 Polarizable Continuum Model (PCM)
 =================================
 Model                : PCM.
 Atomic radii         : UFF (Universal Force Field).
 Polarization charges : Total charges.
 Charge compensation  : None.
 Solution method      : Matrix inversion.
 Cavity type          : Scaled VdW (van der Waals Surface) (Alpha=1.100).
 Cavity algorithm     : GePol (No added spheres)
                        Default sphere list used, NSphG=   22.
                        Lebedev-Laikov grids with approx.  5.0 points / Ang**2.
                        Smoothing algorithm: York/Karplus (Gamma=1.0000).
                        Polarization charges: spherical gaussians, with
                                              point-specific exponents (IZeta= 3).
                        Self-potential: point-specific (ISelfS= 7).
                        Self-field    : sphere-specific E.n sum rule (ISelfD= 2).
 1st derivatives      : Analytical E(r).r(x)/FMM algorithm (CHGder, D1EAlg=3).
                        Cavity 1st derivative terms included.
 Solvent              : Water, Eps=  78.355300 Eps(inf)=   1.777849
 ------------------------------------------------------------------------------
 One-electron integrals computed using PRISM.
 NBasis=   210 RedAO= T EigKep=  4.30D-04  NBF=   210
 NBsUse=   210 1.00D-06 EigRej= -1.00D+00 NBFU=   210
 Initial guess from the checkpoint file:  "ISKQADXMHQSTHK-UHFFFAOYSA-N_conf_3_0.chk"
 B after Tr=    -0.000000    0.000000    0.000000
         Rot=    1.000000   -0.000000    0.000000    0.000000 Ang=  -0.00 deg.
 ExpMin= 1.61D-01 ExpMax= 4.17D+03 ExpMxC= 6.27D+02 IAcc=2 IRadAn=         4 AccDes= 0.00D+00
 Harris functional with IExCor=  402 and IRadAn=       4 diagonalized for initial guess.
 HarFok:  IExCor=  402 AccDes= 0.00D+00 IRadAn=         4 IDoV= 1 UseB2=F ITyADJ=14
 ICtDFT=  3500011 ScaDFX=  1.000000  1.000000  1.000000  1.000000
 FoFCou: FMM=F IPFlag=           0 FMFlag=      100000 FMFlg1=           0
         NFxFlg=           0 DoJE=T BraDBF=F KetDBF=T FulRan=T
         wScrn=  0.000000 ICntrl=       500 IOpCl=  0 I1Cent=   200000004 NGrid=           0
         NMat0=    1 NMatS0=      1 NMatT0=    0 NMatD0=    1 NMtDS0=    0 NMtDT0=    0
 Petite list used in FoFCou.
 Keep R1 ints in memory in canonical form, NReq=250131393.
 Requested convergence on RMS density matrix=1.00D-08 within  32 cycles.
 Requested convergence on MAX density matrix=1.00D-06.
 Requested convergence on             energy=1.00D-06.
 No special actions if energy rises.
 Inv3:  Mode=1 IEnd=     8731308.
 Iteration    1 A*A^-1 deviation from unit magnitude is 6.66D-15 for   1131.
 Iteration    1 A*A^-1 deviation from orthogonality  is 4.71D-15 for   1549   1214.
 Iteration    1 A^-1*A deviation from unit magnitude is 6.33D-15 for    873.
 Iteration    1 A^-1*A deviation from orthogonality  is 3.72D-15 for   1412   1240.
 Error on total polarization charges =  0.00872
 SCF Done:  E(RB3LYP) =  -421.598090961     A.U. after    9 cycles
            NFock=  9  Conv=0.79D-08     -V/T= 2.0098
 QCSCF skips out because SCF is already converged.
 D1PCM: PCM CHGder 1st derivatives, ID1Alg=3 FixD1E=F DoIter=F DoCFld=F I1PDM=0.
 Calling FoFJK, ICntrl=      2127 FMM=F ISym2X=0 I1Cent= 0 IOpClX= 0 NMat=1 NMatS=1 NMatT=0.
 ***** Axes restored to original set *****
 -------------------------------------------------------------------
 Center     Atomic                   Forces (Hartrees/Bohr)
 Number     Number              X              Y              Z
 -------------------------------------------------------------------
      1        7          -0.001070913    0.000420546    0.000735805
      2        6           0.000578432   -0.000124026   -0.000031618
      3        6           0.000274633   -0.000234680   -0.000638749
      4        6           0.000160022   -0.000032730    0.000096497
      5        6          -0.000170909    0.000027795    0.000077530
      6        6          -0.000267274   -0.000135609   -0.000669899
      7        6          -0.000577722    0.000087371   -0.000097922
      8        7           0.001061977    0.000030501    0.000858164
      9        6          -0.000160928    0.000077988    0.000063439
     10        6           0.000170015    0.000017448    0.000082358
     11        1          -0.000026243   -0.000050546    0.000091703
     12        1           0.000002769    0.000095301    0.000050577
     13        1          -0.000025893   -0.000017306   -0.000014931
     14        1          -0.000019389    0.000015297   -0.000024105
     15        1          -0.000028268   -0.000028145   -0.000178482
     16        1           0.000036086   -0.000039911   -0.000174785
     17        1           0.000019601   -0.000025611   -0.000012317
     18        1           0.000026094    0.000006991   -0.000021512
     19        1           0.000025440    0.000091173    0.000051889
     20        1          -0.000003590   -0.000054689    0.000092995
     21        1           0.000030208   -0.000069464   -0.000166478
     22        1          -0.000034148   -0.000057695   -0.000170159
 -------------------------------------------------------------------
 Cartesian Forces:  Max     0.001070913 RMS     0.000297425

 GradGradGradGradGradGradGradGradGradGradGradGradGradGradGradGradGradGrad
 Berny optimization.
 Using GEDIIS/GDIIS optimizer.
 FormGI is forming the generalized inverse of G from B-inverse, IUseBI=4.
 Internal  Forces:  Max     0.001334123 RMS     0.000303335
 Search for a local minimum.
 Step number   2 out of a maximum of  116
 All quantities printed in internal units (Hartrees-Bohrs-Radians)
 Mixed Optimization -- En-DIIS/RFO-DIIS
 Update second derivatives using D2CorX and points    1    2
 DE= -2.78D-03 DEPred=-2.69D-03 R= 1.03D+00
 TightC=F SS=  1.41D+00  RLast= 1.67D-01 DXNew= 5.0454D-01 5.0100D-01
 Trust test= 1.03D+00 RLast= 1.67D-01 DXMaxT set to 5.01D-01
 ITU=  1  0
 Use linear search instead of GDIIS.
     Eigenvalues ---    0.00098   0.00103   0.00309   0.00310   0.01617
     Eigenvalues ---    0.01630   0.01729   0.02048   0.02113   0.02373
     Eigenvalues ---    0.02549   0.02699   0.02703   0.03557   0.03597
     Eigenvalues ---    0.05433   0.05447   0.05951   0.05967   0.08822
     Eigenvalues ---    0.08870   0.11392   0.11590   0.11960   0.12352
     Eigenvalues ---    0.12358   0.12859   0.15090   0.15115   0.17342
     Eigenvalues ---    0.18145   0.19123   0.19176   0.19418   0.19445
     Eigenvalues ---    0.20273   0.21847   0.22191   0.29291   0.29991
     Eigenvalues ---    0.31124   0.33093   0.33112   0.33162   0.33277
     Eigenvalues ---    0.35237   0.35621   0.35623   0.35708   0.37436
     Eigenvalues ---    0.38309   0.41308   0.41656   0.44072   0.44075
     Eigenvalues ---    0.44244   0.44247   0.46469   0.46502   0.50330
 RFO step:  Lambda=-1.26671895D-05 EMin= 9.79824747D-04
 Quartic linear search produced a step of  0.09252.
 Iteration  1 RMS(Cart)=  0.00658442 RMS(Int)=  0.00002060
 Iteration  2 RMS(Cart)=  0.00001892 RMS(Int)=  0.00001905
 Iteration  3 RMS(Cart)=  0.00000000 RMS(Int)=  0.00001905
 Variable       Old X    -DE/DX   Delta X   Delta X   Delta X     New X
                                 (Linear)    (Quad)   (Total)
    R1        2.78790   0.00133   0.00301   0.00050   0.00351   2.79142
    R2        1.92647  -0.00003   0.00004   0.00008   0.00012   1.92660
    R3        1.92647  -0.00003   0.00004   0.00008   0.00012   1.92660
    R4        2.86800   0.00060   0.00191  -0.00065   0.00126   2.86926
    R5        2.07058   0.00000  -0.00006   0.00010   0.00004   2.07062
    R6        2.07058   0.00000  -0.00006   0.00010   0.00004   2.07062
    R7        2.64915   0.00008   0.00012   0.00008   0.00020   2.64934
    R8        2.64915   0.00008   0.00012   0.00008   0.00020   2.64934
    R9        2.63627   0.00001  -0.00034   0.00022  -0.00013   2.63615
   R10        2.05573   0.00000  -0.00003   0.00003  -0.00000   2.05573
   R11        2.64915   0.00008   0.00012   0.00008   0.00020   2.64934
   R12        2.05573   0.00000  -0.00003   0.00003  -0.00000   2.05573
   R13        2.86800   0.00060   0.00191  -0.00065   0.00126   2.86926
   R14        2.64915   0.00008   0.00012   0.00008   0.00020   2.64934
   R15        2.78790   0.00133   0.00301   0.00050   0.00351   2.79142
   R16        2.07058   0.00000  -0.00006   0.00010   0.00004   2.07062
   R17        2.07058   0.00000  -0.00006   0.00010   0.00004   2.07062
   R18        1.92647  -0.00003   0.00004   0.00008   0.00012   1.92660
   R19        1.92647  -0.00003   0.00004   0.00008   0.00012   1.92660
   R20        2.63627   0.00001  -0.00034   0.00022  -0.00013   2.63615
   R21        2.05573   0.00000  -0.00003   0.00003  -0.00000   2.05573
   R22        2.05573   0.00000  -0.00003   0.00003  -0.00000   2.05573
    A1        1.89365   0.00012  -0.00015   0.00002  -0.00013   1.89352
    A2        1.89365   0.00012  -0.00015   0.00002  -0.00013   1.89352
    A3        1.83058  -0.00011  -0.00075  -0.00055  -0.00130   1.82928
    A4        2.00686   0.00133   0.00602  -0.00018   0.00586   2.01272
    A5        1.87887  -0.00039  -0.00309   0.00118  -0.00193   1.87694
    A6        1.87887  -0.00039  -0.00309   0.00118  -0.00193   1.87694
    A7        1.91334  -0.00036  -0.00071  -0.00022  -0.00089   1.91244
    A8        1.91334  -0.00036  -0.00071  -0.00022  -0.00089   1.91244
    A9        1.86724   0.00011   0.00128  -0.00186  -0.00065   1.86659
   A10        2.11071   0.00006   0.00065  -0.00047   0.00018   2.11089
   A11        2.11071   0.00006   0.00065  -0.00047   0.00018   2.11089
   A12        2.06119  -0.00012  -0.00130   0.00094  -0.00037   2.06083
   A13        2.11099   0.00006   0.00065  -0.00047   0.00017   2.11116
   A14        2.08510  -0.00007  -0.00120   0.00070  -0.00050   2.08460
   A15        2.08706   0.00001   0.00055  -0.00023   0.00032   2.08738
   A16        2.11099   0.00006   0.00065  -0.00047   0.00017   2.11116
   A17        2.08706   0.00001   0.00055  -0.00023   0.00032   2.08738
   A18        2.08510  -0.00007  -0.00120   0.00070  -0.00050   2.08460
   A19        2.11071   0.00006   0.00065  -0.00047   0.00018   2.11089
   A20        2.06119  -0.00012  -0.00130   0.00094  -0.00037   2.06083
   A21        2.11071   0.00006   0.00065  -0.00047   0.00018   2.11089
   A22        2.00686   0.00133   0.00602  -0.00018   0.00586   2.01272
   A23        1.91334  -0.00036  -0.00071  -0.00022  -0.00089   1.91244
   A24        1.91334  -0.00036  -0.00071  -0.00022  -0.00089   1.91244
   A25        1.87887  -0.00039  -0.00309   0.00118  -0.00193   1.87694
   A26        1.87887  -0.00039  -0.00309   0.00118  -0.00193   1.87694
   A27        1.86724   0.00011   0.00128  -0.00186  -0.00065   1.86659
   A28        1.89365   0.00012  -0.00015   0.00002  -0.00013   1.89352
   A29        1.89365   0.00012  -0.00015   0.00002  -0.00013   1.89352
   A30        1.83058  -0.00011  -0.00075  -0.00055  -0.00130   1.82928
   A31        2.11099   0.00006   0.00065  -0.00047   0.00017   2.11116
   A32        2.08510  -0.00007  -0.00120   0.00070  -0.00050   2.08460
   A33        2.08706   0.00001   0.00055  -0.00023   0.00032   2.08738
   A34        2.11099   0.00006   0.00065  -0.00047   0.00017   2.11116
   A35        2.08510  -0.00007  -0.00120   0.00070  -0.00050   2.08460
   A36        2.08706   0.00001   0.00055  -0.00023   0.00032   2.08738
    D1        0.98983  -0.00000  -0.00052  -0.00031  -0.00083   0.98899
    D2       -1.14802  -0.00014  -0.00141  -0.00081  -0.00217  -1.15019
    D3        3.12767   0.00013   0.00038   0.00018   0.00050   3.12817
    D4       -0.98982   0.00000   0.00052   0.00031   0.00082  -0.98900
    D5       -3.12767  -0.00013  -0.00038  -0.00018  -0.00051  -3.12818
    D6        1.14802   0.00014   0.00141   0.00080   0.00216   1.15018
    D7        1.55230   0.00000  -0.00007   0.00006  -0.00001   1.55229
    D8       -1.55231  -0.00000   0.00007  -0.00006   0.00001  -1.55230
    D9       -2.61168   0.00015  -0.00042   0.00131   0.00090  -2.61078
   D10        0.56690   0.00014  -0.00029   0.00119   0.00092   0.56782
   D11       -0.56691  -0.00014   0.00029  -0.00119  -0.00092  -0.56783
   D12        2.61167  -0.00015   0.00042  -0.00131  -0.00090   2.61077
   D13       -3.10307   0.00011   0.00177   0.00438   0.00615  -3.09692
   D14        0.04650   0.00014   0.00244   0.00604   0.00848   0.05498
   D15        0.00256   0.00012   0.00168   0.00446   0.00614   0.00870
   D16       -3.13106   0.00015   0.00235   0.00612   0.00847  -3.12259
   D17        3.10307  -0.00011  -0.00177  -0.00438  -0.00615   3.09692
   D18       -0.04650  -0.00014  -0.00244  -0.00604  -0.00848  -0.05498
   D19       -0.00256  -0.00012  -0.00168  -0.00446  -0.00614  -0.00870
   D20        3.13106  -0.00015  -0.00235  -0.00612  -0.00848   3.12259
   D21        0.00000  -0.00000  -0.00000  -0.00000  -0.00000  -0.00000
   D22       -3.13361   0.00003   0.00067   0.00166   0.00234  -3.13127
   D23        3.13361  -0.00003  -0.00067  -0.00166  -0.00234   3.13127
   D24        0.00000  -0.00000  -0.00000  -0.00000  -0.00000  -0.00000
   D25        3.10307  -0.00011  -0.00177  -0.00438  -0.00615   3.09692
   D26       -0.00256  -0.00012  -0.00168  -0.00446  -0.00614  -0.00870
   D27       -0.04650  -0.00014  -0.00244  -0.00604  -0.00848  -0.05498
   D28        3.13106  -0.00015  -0.00235  -0.00612  -0.00847   3.12259
   D29       -1.55230  -0.00000   0.00007  -0.00006   0.00001  -1.55230
   D30        2.61167  -0.00015   0.00042  -0.00131  -0.00090   2.61077
   D31        0.56690   0.00014  -0.00029   0.00120   0.00092   0.56782
   D32        1.55230   0.00000  -0.00007   0.00006  -0.00001   1.55229
   D33       -0.56691  -0.00014   0.00029  -0.00119  -0.00092  -0.56782
   D34       -2.61168   0.00015  -0.00042   0.00131   0.00090  -2.61077
   D35        0.00256   0.00012   0.00168   0.00446   0.00614   0.00870
   D36       -3.13106   0.00015   0.00235   0.00612   0.00848  -3.12259
   D37       -3.10307   0.00011   0.00177   0.00438   0.00615  -3.09692
   D38        0.04650   0.00014   0.00244   0.00604   0.00848   0.05498
   D39        0.98982  -0.00000  -0.00052  -0.00031  -0.00083   0.98899
   D40       -0.98982   0.00000   0.00052   0.00031   0.00083  -0.98900
   D41        3.12767   0.00013   0.00038   0.00018   0.00051   3.12818
   D42        1.14802   0.00014   0.00141   0.00080   0.00216   1.15019
   D43       -1.14802  -0.00014  -0.00141  -0.00080  -0.00216  -1.15019
   D44       -3.12767  -0.00013  -0.00038  -0.00018  -0.00051  -3.12818
   D45       -0.00000   0.00000   0.00000   0.00000   0.00000   0.00000
   D46       -3.13361   0.00003   0.00068   0.00166   0.00234  -3.13127
   D47        3.13361  -0.00003  -0.00068  -0.00166  -0.00234   3.13127
   D48        0.00000  -0.00000  -0.00000  -0.00000  -0.00000  -0.00000
         Item               Value     Threshold  Converged?
 Maximum Force            0.001334     0.000450     NO 
 RMS     Force            0.000303     0.000300     NO 
 Maximum Displacement     0.021400     0.001800     NO 
[...]
     3  C   -0.000001  -0.000001   0.004357  -0.047998
     4  C   -0.000268   0.000036   0.000650   0.005644
     5  C    0.006225  -0.000948   0.005644   0.000650
     6  C    0.000665   0.000665  -0.047998   0.004357
     7  C   -0.037782  -0.037782  -0.008921  -0.000170
     8  N    0.329223   0.329223   0.000283   0.000002
     9  C   -0.000948   0.006225   0.367410  -0.039149
    10  C    0.000036  -0.000268  -0.039149   0.367410
    11  H    0.000000  -0.000000   0.000002   0.000817
    12  H   -0.000000   0.000000   0.000000   0.000036
    13  H   -0.000000   0.000000  -0.000002   0.005213
    14  H    0.000000  -0.000000   0.000003   0.000130
    15  H    0.000002   0.000000   0.000020  -0.000194
    16  H    0.000817   0.000036  -0.000194   0.000020
    17  H    0.007090  -0.005597   0.005213  -0.000002
    18  H   -0.005597   0.007090   0.000130   0.000003
    19  H    0.464144  -0.031684   0.000036   0.000000
    20  H   -0.031684   0.464144   0.000817   0.000002
    21  H    0.000036   0.000817   0.642311  -0.006197
    22  H    0.000000   0.000002  -0.006197   0.642311
 Mulliken charges:
               1
     1  N   -0.568904
     2  C   -0.131808
     3  C    0.108981
     4  C   -0.165738
     5  C   -0.165738
     6  C    0.108981
     7  C   -0.131808
     8  N   -0.568904
     9  C   -0.165738
    10  C   -0.165738
    11  H    0.268042
    12  H    0.268042
    13  H    0.117809
    14  H    0.117809
    15  H    0.075752
    16  H    0.075752
    17  H    0.117809
    18  H    0.117809
    19  H    0.268042
    20  H    0.268042
    21  H    0.075752
    22  H    0.075752
 Sum of Mulliken charges =  -0.00000
 Mulliken charges with hydrogens summed into heavy atoms:
               1
     1  N   -0.032820
     2  C    0.103810
     3  C    0.108981
     4  C   -0.089986
     5  C   -0.089986
     6  C    0.108981
     7  C    0.103810
     8  N   -0.032820
     9  C   -0.089986
    10  C   -0.089986
 Electronic spatial extent (au):  <R**2>=           1907.0050
 Charge=             -0.0000 electrons
 Dipole moment (field-independent basis, Debye):
    X=              0.0000    Y=             -0.0000    Z=              1.9683  Tot=              1.9683
 Quadrupole moment (field-independent basis, Debye-Ang):
   XX=            -68.2820   YY=            -55.7570   ZZ=            -58.5044
   XY=              0.0000   XZ=              0.0000   YZ=              0.0000
 Traceless Quadrupole moment (field-independent basis, Debye-Ang):
   XX=             -7.4342   YY=              5.0908   ZZ=              2.3434
   XY=              0.0000   XZ=              0.0000   YZ=              0.0000
 Octapole moment (field-independent basis, Debye-Ang**2):
  XXX=              0.0000  YYY=             -0.0001  ZZZ=             21.7193  XYY=              0.0000
  XXY=              0.0000  XXZ=             -6.9232  XZZ=              0.0000  YZZ=             -0.0000
  YYZ=              5.9895  XYZ=              0.0000
 Hexadecapole moment (field-independent basis, Debye-Ang**3):
 XXXX=          -2422.7345 YYYY=           -325.4319 ZZZZ=           -198.6300 XXXY=              0.0002
 XXXZ=              0.0000 YYYX=              0.0000 YYYZ=             -0.0000 ZZZX=              0.0000
 ZZZY=             -0.0000 XXYY=           -339.1901 XXZZ=           -336.1560 YYZZ=            -90.5850
 XXYZ=              0.0000 YYXZ=              0.0000 ZZXY=              0.0000
 N-N= 4.973011823731D+02 E-N=-1.972420102404D+03  KE= 4.176901832947D+02
 Evaluate density.
 Using the total density.
 Monte-Carlo method of calculating molar volume:
 based on  0.001 e/bohr**3 density envelope.
 Number of points per bohr**3 =   20 CutOff= 1.00D-04
 Using the CI density.
 There are       368 points.  Will hold       368 in memory.
 LenV=   805183306 MDV=   805306368.
 Box volume = 6256.926 fraction occupied=0.198
 Integrated density= 5.6955912782714826D+01 error=-1.7044087217285174D+01
 Molar volume = 1241.184 bohr**3/mol (110.762 cm**3/mol)
 Recommended a0 for SCRF calculation =  4.38 angstrom (  8.28 bohr)
 ******************************Gaussian NBO Version 3.1******************************
             N A T U R A L   A T O M I C   O R B I T A L   A N D
          N A T U R A L   B O N D   O R B I T A L   A N A L Y S I S
 ******************************Gaussian NBO Version 3.1******************************
       /RESON  / : Allow strongly delocalized NBO set

 Analyzing the CI density

 Job title: ISKQADXMHQSTHK-UHFFFAOYSA-N_conf_3                              

 Storage needed:    133984 in NPA ( 805303728 available)
 GSVD:  LWork=       24900 too small for GESVD, short by       12636 words or       12636 for optimal perf.


 NATURAL POPULATIONS:  Natural atomic orbital occupancies 
                                                          
   NAO  Atom  No  lang   Type(AO)    Occupancy
 --------------------------------------------
     1    N    1  S      Cor( 1S)     1.99969
     2    N    1  S      Val( 2S)     1.45739
     3    N    1  S      Ryd( 3S)     0.00042
     4    N    1  S      Ryd( 4S)     0.00001
     5    N    1  px     Val( 2p)     1.67885
     6    N    1  px     Ryd( 3p)     0.00528
     7    N    1  py     Val( 2p)     1.39456
     8    N    1  py     Ryd( 3p)     0.00170
     9    N    1  pz     Val( 2p)     1.27444
    10    N    1  pz     Ryd( 3p)     0.00198
    11    N    1  dxy    Ryd( 3d)     0.00122
    12    N    1  dxz    Ryd( 3d)     0.00128
    13    N    1  dyz    Ryd( 3d)     0.00062
    14    N    1  dx2y2  Ryd( 3d)     0.00095
    15    N    1  dz2    Ryd( 3d)     0.00043

    16    C    2  S      Cor( 1S)     1.99928
    17    C    2  S      Val( 2S)     1.02177
    18    C    2  S      Ryd( 3S)     0.00115
    19    C    2  S      Ryd( 4S)     0.00004
    20    C    2  px     Val( 2p)     1.04671
    21    C    2  px     Ryd( 3p)     0.00357
    22    C    2  py     Val( 2p)     1.26206
    23    C    2  py     Ryd( 3p)     0.00588
    24    C    2  pz     Val( 2p)     0.94961
    25    C    2  pz     Ryd( 3p)     0.00187
    26    C    2  dxy    Ryd( 3d)     0.00055
    27    C    2  dxz    Ryd( 3d)     0.00148
    28    C    2  dyz    Ryd( 3d)     0.00097
    29    C    2  dx2y2  Ryd( 3d)     0.00093
    30    C    2  dz2    Ryd( 3d)     0.00103

    31    C    3  S      Cor( 1S)     1.99903
    32    C    3  S      Val( 2S)     0.90073
    33    C    3  S      Ryd( 3S)     0.00079
    34    C    3  S      Ryd( 4S)     0.00005
    35    C    3  px     Val( 2p)     1.06159
    36    C    3  px     Ryd( 3p)     0.00455
    37    C    3  py     Val( 2p)     1.08816
    38    C    3  py     Ryd( 3p)     0.00458
    39    C    3  pz     Val( 2p)     0.95431
    40    C    3  pz     Ryd( 3p)     0.00291
    41    C    3  dxy    Ryd( 3d)     0.00085
    42    C    3  dxz    Ryd( 3d)     0.00043
    43    C    3  dyz    Ryd( 3d)     0.00105
    44    C    3  dx2y2  Ryd( 3d)     0.00072
    45    C    3  dz2    Ryd( 3d)     0.00035

    46    C    4  S      Cor( 1S)     1.99906
    47    C    4  S      Val( 2S)     0.95185
    48    C    4  S      Ryd( 3S)     0.00066
    49    C    4  S      Ryd( 4S)     0.00004
    50    C    4  px     Val( 2p)     1.09237
    51    C    4  px     Ryd( 3p)     0.00450
    52    C    4  py     Val( 2p)     1.15568
    53    C    4  py     Ryd( 3p)     0.00485
    54    C    4  pz     Val( 2p)     1.07695
    55    C    4  pz     Ryd( 3p)     0.00597
    56    C    4  dxy    Ryd( 3d)     0.00071
    57    C    4  dxz    Ryd( 3d)     0.00059
    58    C    4  dyz    Ryd( 3d)     0.00035
    59    C    4  dx2y2  Ryd( 3d)     0.00066
    60    C    4  dz2    Ryd( 3d)     0.00036

    61    C    5  S      Cor( 1S)     1.99906
    62    C    5  S      Val( 2S)     0.95185
    63    C    5  S      Ryd( 3S)     0.00066
    64    C    5  S      Ryd( 4S)     0.00004
    65    C    5  px     Val( 2p)     1.09237
    66    C    5  px     Ryd( 3p)     0.00450
    67    C    5  py     Val( 2p)     1.15568
    68    C    5  py     Ryd( 3p)     0.00485
    69    C    5  pz     Val( 2p)     1.07695
    70    C    5  pz     Ryd( 3p)     0.00597
    71    C    5  dxy    Ryd( 3d)     0.00071
    72    C    5  dxz    Ryd( 3d)     0.00059
    73    C    5  dyz    Ryd( 3d)     0.00035
    74    C    5  dx2y2  Ryd( 3d)     0.00066
    75    C    5  dz2    Ryd( 3d)     0.00036

    76    C    6  S      Cor( 1S)     1.99903
    77    C    6  S      Val( 2S)     0.90073
    78    C    6  S      Ryd( 3S)     0.00079
    79    C    6  S      Ryd( 4S)     0.00005
    80    C    6  px     Val( 2p)     1.06159
    81    C    6  px     Ryd( 3p)     0.00455
    82    C    6  py     Val( 2p)     1.08816
    83    C    6  py     Ryd( 3p)     0.00458
    84    C    6  pz     Val( 2p)     0.95431
    85    C    6  pz     Ryd( 3p)     0.00291
    86    C    6  dxy    Ryd( 3d)     0.00085
    87    C    6  dxz    Ryd( 3d)     0.00043
    88    C    6  dyz    Ryd( 3d)     0.00105
    89    C    6  dx2y2  Ryd( 3d)     0.00072
    90    C    6  dz2    Ryd( 3d)     0.00035

    91    C    7  S      Cor( 1S)     1.99928
    92    C    7  S      Val( 2S)     1.02177
    93    C    7  S      Ryd( 3S)     0.00115
    94    C    7  S      Ryd( 4S)     0.00004
    95    C    7  px     Val( 2p)     1.04671
    96    C    7  px     Ryd( 3p)     0.00357
    97    C    7  py     Val( 2p)     1.26206
    98    C    7  py     Ryd( 3p)     0.00588
    99    C    7  pz     Val( 2p)     0.94961
   100    C    7  pz     Ryd( 3p)     0.00187
   101    C    7  dxy    Ryd( 3d)     0.00055
   102    C    7  dxz    Ryd( 3d)     0.00148
   103    C    7  dyz    Ryd( 3d)     0.00097
   104    C    7  dx2y2  Ryd( 3d)     0.00093
   105    C    7  dz2    Ryd( 3d)     0.00103

   106    N    8  S      Cor( 1S)     1.99969
   107    N    8  S      Val( 2S)     1.45739
   108    N    8  S      Ryd( 3S)     0.00042
   109    N    8  S      Ryd( 4S)     0.00001
   110    N    8  px     Val( 2p)     1.67885
   111    N    8  px     Ryd( 3p)     0.00528
   112    N    8  py     Val( 2p)     1.39456
   113    N    8  py     Ryd( 3p)     0.00170
   114    N    8  pz     Val( 2p)     1.27444
   115    N    8  pz     Ryd( 3p)     0.00198
   116    N    8  dxy    Ryd( 3d)     0.00122
   117    N    8  dxz    Ryd( 3d)     0.00128
   118    N    8  dyz    Ryd( 3d)     0.00062
   119    N    8  dx2y2  Ryd( 3d)     0.00095
   120    N    8  dz2    Ryd( 3d)     0.00043

   121    C    9  S      Cor( 1S)     1.99906
   122    C    9  S      Val( 2S)     0.95185
   123    C    9  S      Ryd( 3S)     0.00066
   124    C    9  S      Ryd( 4S)     0.00004
   125    C    9  px     Val( 2p)     1.09237
   126    C    9  px     Ryd( 3p)     0.00450
   127    C    9  py     Val( 2p)     1.15568
   128    C    9  py     Ryd( 3p)     0.00485
   129    C    9  pz     Val( 2p)     1.07695
   130    C    9  pz     Ryd( 3p)     0.00597
   131    C    9  dxy    Ryd( 3d)     0.00071
   132    C    9  dxz    Ryd( 3d)     0.00059
   133    C    9  dyz    Ryd( 3d)     0.00035
   134    C    9  dx2y2  Ryd( 3d)     0.00066
   135    C    9  dz2    Ryd( 3d)     0.00036

   136    C   10  S      Cor( 1S)     1.99906
   137    C   10  S      Val( 2S)     0.95185
   138    C   10  S      Ryd( 3S)     0.00066
   139    C   10  S      Ryd( 4S)     0.00004
   140    C   10  px     Val( 2p)     1.09237
   141    C   10  px     Ryd( 3p)     0.00450
   142    C   10  py     Val( 2p)     1.15568
   143    C   10  py     Ryd( 3p)     0.00485
   144    C   10  pz     Val( 2p)     1.07695
   145    C   10  pz     Ryd( 3p)     0.00597
   146    C   10  dxy    Ryd( 3d)     0.00071
   147    C   10  dxz    Ryd( 3d)     0.00059
   148    C   10  dyz    Ryd( 3d)     0.00035
   149    C   10  dx2y2  Ryd( 3d)     0.00066
   150    C   10  dz2    Ryd( 3d)     0.00036

   151    H   11  S      Val( 1S)     0.60243
   152    H   11  S      Ryd( 2S)     0.00217
   153    H   11  px     Ryd( 2p)     0.00054
   154    H   11  py     Ryd( 2p)     0.00049
   155    H   11  pz     Ryd( 2p)     0.00037

   156    H   12  S      Val( 1S)     0.60243
   157    H   12  S      Ryd( 2S)     0.00217
   158    H   12  px     Ryd( 2p)     0.00054
   159    H   12  py     Ryd( 2p)     0.00049
   160    H   12  pz     Ryd( 2p)     0.00037

   161    H   13  S      Val( 1S)     0.75870
   162    H   13  S      Ryd( 2S)     0.00193
   163    H   13  px     Ryd( 2p)     0.00014
   164    H   13  py     Ryd( 2p)     0.00026
   165    H   13  pz     Ryd( 2p)     0.00014

   166    H   14  S      Val( 1S)     0.75870
   167    H   14  S      Ryd( 2S)     0.00193
   168    H   14  px     Ryd( 2p)     0.00014
   169    H   14  py     Ryd( 2p)     0.00026
   170    H   14  pz     Ryd( 2p)     0.00014

   171    H   15  S      Val( 1S)     0.76854
   172    H   15  S      Ryd( 2S)     0.00110
   173    H   15  px     Ryd( 2p)     0.00014
   174    H   15  py     Ryd( 2p)     0.00032
   175    H   15  pz     Ryd( 2p)     0.00020

   176    H   16  S      Val( 1S)     0.76854
   177    H   16  S      Ryd( 2S)     0.00110
   178    H   16  px     Ryd( 2p)     0.00014
   179    H   16  py     Ryd( 2p)     0.00032
   180    H   16  pz     Ryd( 2p)     0.00020

   181    H   17  S      Val( 1S)     0.75870
   182    H   17  S      Ryd( 2S)     0.00193
   183    H   17  px     Ryd( 2p)     0.00014
   184    H   17  py     Ryd( 2p)     0.00026
   185    H   17  pz     Ryd( 2p)     0.00014

   186    H   18  S      Val( 1S)     0.75870
   187    H   18  S      Ryd( 2S)     0.00193
   188    H   18  px     Ryd( 2p)     0.00014
   189    H   18  py     Ryd( 2p)     0.00026
   190    H   18  pz     Ryd( 2p)     0.00014

   191    H   19  S      Val( 1S)     0.60243
   192    H   19  S      Ryd( 2S)     0.00217
   193    H   19  px     Ryd( 2p)     0.00054
   194    H   19  py     Ryd( 2p)     0.00049
   195    H   19  pz     Ryd( 2p)     0.00037

   196    H   20  S      Val( 1S)     0.60243
   197    H   20  S      Ryd( 2S)     0.00217
   198    H   20  px     Ryd( 2p)     0.00054
   199    H   20  py     Ryd( 2p)     0.00049
   200    H   20  pz     Ryd( 2p)     0.00037

   201    H   21  S      Val( 1S)     0.76854
   202    H   21  S      Ryd( 2S)     0.00110
   203    H   21  px     Ryd( 2p)     0.00014
   204    H   21  py     Ryd( 2p)     0.00032
   205    H   21  pz     Ryd( 2p)     0.00020

   206    H   22  S      Val( 1S)     0.76854
   207    H   22  S      Ryd( 2S)     0.00110
   208    H   22  px     Ryd( 2p)     0.00014
   209    H   22  py     Ryd( 2p)     0.00032
   210    H   22  pz     Ryd( 2p)     0.00020


 Summary of Natural Population Analysis:                  
                                                          
                                       Natural Population 
                Natural  -----------------------------------------------
    Atom  No    Charge         Core      Valence    Rydberg      Total
 -----------------------------------------------------------------------
      N    1   -0.81882      1.99969     5.80524    0.01390     7.81882
      C    2   -0.29691      1.99928     4.28016    0.01747     6.29691
      C    3   -0.02011      1.99903     4.00479    0.01629     6.02011
      C    4   -0.29461      1.99906     4.27685    0.01870     6.29461
      C    5   -0.29461      1.99906     4.27685    0.01870     6.29461
      C    6   -0.02011      1.99903     4.00479    0.01629     6.02011
      C    7   -0.29691      1.99928     4.28016    0.01747     6.29691
      N    8   -0.81882      1.99969     5.80524    0.01390     7.81882
      C    9   -0.29461      1.99906     4.27685    0.01870     6.29461
      C   10   -0.29461      1.99906     4.27685    0.01870     6.29461
      H   11    0.39399      0.00000     0.60243    0.00358     0.60601
      H   12    0.39399      0.00000     0.60243    0.00358     0.60601
      H   13    0.23882      0.00000     0.75870    0.00248     0.76118
      H   14    0.23882      0.00000     0.75870    0.00248     0.76118
      H   15    0.22971      0.00000     0.76854    0.00175     0.77029
      H   16    0.22971      0.00000     0.76854    0.00175     0.77029
      H   17    0.23882      0.00000     0.75870    0.00248     0.76118
      H   18    0.23882      0.00000     0.75870    0.00248     0.76118
      H   19    0.39399      0.00000     0.60243    0.00358     0.60601
      H   20    0.39399      0.00000     0.60243    0.00358     0.60601
      H   21    0.22971      0.00000     0.76854    0.00175     0.77029
      H   22    0.22971      0.00000     0.76854    0.00175     0.77029
 =======================================================================
   * Total *    0.00000     19.99225    53.80644    0.20132    74.00000

                                 Natural Population      
 --------------------------------------------------------
   Core                      19.99225 ( 99.9612% of  20)
   Valence                   53.80644 ( 99.6415% of  54)
   Natural Minimal Basis     73.79868 ( 99.7279% of  74)
   Natural Rydberg Basis      0.20132 (  0.2721% of  74)
 --------------------------------------------------------

    Atom  No          Natural Electron Configuration
 ----------------------------------------------------------------------------
      N    1      [core]2S( 1.46)2p( 4.35)3p( 0.01)
      C    2      [core]2S( 1.02)2p( 3.26)3p( 0.01)
      C    3      [core]2S( 0.90)2p( 3.10)3p( 0.01)
      C    4      [core]2S( 0.95)2p( 3.32)3p( 0.02)
      C    5      [core]2S( 0.95)2p( 3.32)3p( 0.02)
      C    6      [core]2S( 0.90)2p( 3.10)3p( 0.01)
      C    7      [core]2S( 1.02)2p( 3.26)3p( 0.01)
      N    8      [core]2S( 1.46)2p( 4.35)3p( 0.01)
      C    9      [core]2S( 0.95)2p( 3.32)3p( 0.02)
      C   10      [core]2S( 0.95)2p( 3.32)3p( 0.02)
      H   11            1S( 0.60)
      H   12            1S( 0.60)
      H   13            1S( 0.76)
      H   14            1S( 0.76)
      H   15            1S( 0.77)
      H   16            1S( 0.77)
      H   17            1S( 0.76)
      H   18            1S( 0.76)
      H   19            1S( 0.60)
      H   20            1S( 0.60)
      H   21            1S( 0.77)
      H   22            1S( 0.77)


 NBO analysis skipped by request.
 1\1\GINC-CN36\SP\RB3LYP TD-FC\6-31G(d,p)\C8H12N2\QDUEZ\11-Jul-2024\0\\
 # TD(NStates=10, Root=1) B3LYP/6-31G** SCRF=(Solvent=water) volume pop
 =NPA density=current Geom=AllCheck Guess=Read\\ISKQADXMHQSTHK-UHFFFAOY
 SA-N_conf_3\\0,1\N,0,-3.4605659643,0.909753392,0.7977582145\C,0,-2.881
 7564078,0.4355636763,-0.4759767672\C,0,-1.3912601166,0.1476154597,-0.4
 450724243\C,0,-0.9090748449,-1.1197168238,-0.0888329925\C,0,0.46099555
 14,-1.3702557551,-0.0102401122\C,0,1.39551842,-0.3619908675,-0.2852113
 872\C,0,2.8854011869,-0.6190517841,-0.1451489962\N,0,3.4495238894,-0.3
 538609256,1.1941480494\C,0,0.9133859783,0.9026821169,-0.6508488426\C,0
 ,-0.4566844479,1.1532210699,-0.7294416693\H,0,-2.9569432077,1.74653689
 26,1.090216717\H,0,-3.2609398229,0.2191742261,1.520685809\H,0,-3.09320
 05805,1.1943320083,-1.2376698435\H,0,-3.4245025527,-0.4702239905,-0.76
 85339638\H,0,-1.6145765306,-1.9209497922,0.1202110724\H,0,0.810718916,
 -2.3644532155,0.2593360209\H,0,3.4338278202,0.0007597801,-0.8632549973
 \H,0,3.1025259416,-1.663794713,-0.3941137093\H,0,2.9404228899,-0.91483
 55364,1.8764222943\H,0,3.244418713,0.6125257651,1.4459477997\H,0,1.619
 0303287,1.6967327706,-0.8852756425\H,0,-0.806265161,2.1402362384,-1.02
 44004642\\Version=EM64L-G16RevA.03\State=1-A\HF=-421.5981153\RMSD=1.48
 2e-09\Dipole=-0.0041881,0.2108416,0.7451322\Quadrupole=-5.197281,3.333
 0882,1.8641928,1.6455266,-0.5046219,-0.4408915\PG=C01 [X(C8H12N2)]\\@


 MYSTERY IS THE WISDOM OF BLOCKHEADS... HORACE WALPOLE 
 Job cpu time:       0 days  0 hours 52 minutes 44.0 seconds.
 Elapsed time:       0 days  0 hours 21 minutes 45.0 seconds.
 File lengths (MBytes):  RWF=    410 Int=      0 D2E=      0 Chk=     26 Scr=      1
 Normal termination of Gaussian 16 at Thu Jul 11 20:12:41 2024.
