 Entering Gaussian System, Link 0=g16
 Initial command:
 /opt/sw/arch/manual/gaussian/G16_A03/g16/l1.exe "/scratch/1032072.jesse.materianova.be/Gau-1697.inp" -scrdir="/scratch/1032072.jesse.materianova.be/"
 Entering Link 1 = /opt/sw/arch/manual/gaussian/G16_A03/g16/l1.exe PID=      1698.
  
 Copyright (c) 1988,1990,1992,1993,1995,1998,2003,2009,2016,
            Gaussian, Inc.  All Rights Reserved.
  
 This is part of the Gaussian(R) 16 program.  It is based on
 the Gaussian(R) 09 system (copyright 2009, Gaussian, Inc.),
 the Gaussian(R) 03 system (copyright 2003, Gaussian, Inc.),
 the Gaussian(R) 98 system (copyright 1998, Gaussian, Inc.),
 the Gaussian(R) 94 system (copyright 1995, Gaussian, Inc.),
 the Gaussian 92(TM) system (copyright 1992, Gaussian, Inc.),
 the Gaussian 90(TM) system (copyright 1990, Gaussian, Inc.),
 the Gaussian 88(TM) system (copyright 1988, Gaussian, Inc.),
 the Gaussian 86(TM) system (copyright 1986, Carnegie Mellon
 University), and the Gaussian 82(TM) system (copyright 1983,
 Carnegie Mellon University). Gaussian is a federally registered
 trademark of Gaussian, Inc.
  
 This software contains proprietary and confidential information,
 including trade secrets, belonging to Gaussian, Inc.
  
 This software is provided under written license and may be
 used, copied, transmitted, or stored only in accord with that
 written license.
  
 The following legend is applicable only to US Government
 contracts under FAR:
  
                    RESTRICTED RIGHTS LEGEND
  
 Use, reproduction and disclosure by the US Government is
 subject to restrictions as set forth in subparagraphs (a)
 and (c) of the Commercial Computer Software - Restricted
 Rights clause in FAR 52.227-19.
  
 Gaussian, Inc.
 340 Quinnipiac St., Bldg. 40, Wallingford CT 06492
  
  
 ---------------------------------------------------------------
 Warning -- This program may not be used in any manner that
 competes with the business of Gaussian, Inc. or will provide
 assistance to any competitor of Gaussian, Inc.  The licensee
 of this program is prohibited from giving any competitor of
 Gaussian, Inc. access to this program.  By using this program,
 the user acknowledges that Gaussian, Inc. is engaged in the
 business of creating and licensing software in the field of
 computational chemistry and represents and warrants to the
 licensee that it is not a competitor of Gaussian, Inc. and that
 it will not use this program in any manner prohibited above.
 ---------------------------------------------------------------
  

 Cite this work as:
 Gaussian 16, Revision A.03,
 M. J. Frisch, G. W. Trucks, H. B. Schlegel, G. E. Scuseria, 
 M. A. Robb, J. R. Cheeseman, G. Scalmani, V. Barone, 
 G. A. Petersson, H. Nakatsuji, X. Li, M. Caricato, A. V. Marenich, 
 J. Bloino, B. G. Janesko, R. Gomperts, B. Mennucci, H. P. Hratchian, 
 J. V. Ortiz, A. F. Izmaylov, J. L. Sonnenberg, D. Williams-Young, 
 F. Ding, F. Lipparini, F. Egidi, J. Goings, B. Peng, A. Petrone, 
 T. Henderson, D. Ranasinghe, V. G. Zakrzewski, J. Gao, N. Rega, 
 G. Zheng, W. Liang, M. Hada, M. Ehara, K. Toyota, R. Fukuda, 
 J. Hasegawa, M. Ishida, T. Nakajima, Y. Honda, O. Kitao, H. Nakai, 
 T. Vreven, K. Throssell, J. A. Montgomery, Jr., J. E. Peralta, 
 F. Ogliaro, M. J. Bearpark, J. J. Heyd, E. N. Brothers, K. N. Kudin, 
 V. N. Staroverov, T. A. Keith, R. Kobayashi, J. Normand, 
 K. Raghavachari, A. P. Rendell, J. C. Burant, S. S. Iyengar, 
 J. Tomasi, M. Cossi, J. M. Millam, M. Klene, C. Adamo, R. Cammi, 
 J. W. Ochterski, R. L. Martin, K. Morokuma, O. Farkas, 
 J. B. Foresman, and D. J. Fox, Gaussian, Inc., Wallingford CT, 2016.
 
 ******************************************
 Gaussian 16:  EM64L-G16RevA.03 25-Dec-2016
                11-Jul-2024 
 ******************************************
 %nprocshared=4
 Will use up to    4 processors via shared memory.
 %mem=8GB
 %Chk=NFCPRRWCTNLGSN-UHFFFAOYSA-N_conf_0_0.chk
 -------------------------------------------------------
 # opt=CalcFc B3LYP/6-31G** SCRF=(Solvent=water) scf=xqc
 -------------------------------------------------------
 1/10=4,18=20,19=15,26=3,38=1/1,3;
 2/9=110,12=2,17=6,18=5,40=1/2;
 3/5=1,6=6,7=101,11=2,25=1,30=1,70=2201,71=2,72=1,74=-5,140=1/1,2,3;
 4//1;
 5/5=2,8=3,13=1,38=5,53=1/2,8;
 8/6=4,10=90,11=11/1;
 11/6=1,8=1,9=11,15=111,16=1/1,2,10;
 10/6=1,13=1/2;
 6/7=2,8=2,9=2,10=2,28=1/1;
 7/10=1,18=20,25=1/1,2,3,16;
 1/10=4,18=20,19=15,26=3/3(2);
 2/9=110/2;
 99//99;
 2/9=110/2;
 3/5=1,6=6,7=101,11=2,25=1,30=1,70=2205,71=1,72=1,74=-5/1,2,3;
 4/5=5,16=3,69=1/1;
 5/5=2,8=3,13=1,38=5,53=1/2,8;
 7//1,2,3,16;
 1/18=20,19=15,26=3/3(-5);
 2/9=110/2;
 6/7=2,8=2,9=2,10=2,19=2,28=1/1;
 99/9=1/99;
 ----------------------------------
 NFCPRRWCTNLGSN-UHFFFAOYSA-N_conf_0
 ----------------------------------
 Symbolic Z-matrix:
 Charge =  0 Multiplicity = 1
 N                    -1.93083  -1.83019   1.81641 
 C                    -2.15165  -1.03768   0.6637 
 C                    -3.44563  -0.90185   0.15176 
 C                    -3.68795  -0.06549  -0.93787 
 C                    -2.64584   0.67236  -1.49379 
 C                    -1.36312   0.59606  -0.94592 
 C                    -1.10637  -0.22901   0.1549 
 N                     0.16184  -0.30883   0.7863 
 C                     1.4255    0.13026   0.35459 
 C                     2.31077   0.70653   1.27568 
 C                     3.57539   1.14918   0.87717 
 C                     3.97531   1.01296  -0.44963 
 C                     3.11323   0.43034  -1.37484 
 C                     1.84905  -0.00953  -0.9725 
 H                    -0.97426  -2.18261   1.81116 
 H                    -2.6008   -2.58929   1.89523 
 H                    -4.27072  -1.45585   0.5898 
 H                    -4.69192   0.01842  -1.34535 
 H                    -2.83476   1.33104  -2.33751 
 H                    -0.58275   1.22737  -1.35967 
 H                     0.02694  -0.26774   1.79415 
 H                     2.01827   0.82661   2.31551 
 H                     4.24585   1.60001   1.60395 
 H                     4.95869   1.35494  -0.76093 
 H                     3.42384   0.30999  -2.40917 
 H                     1.20192  -0.48802  -1.70313 
 

 GradGradGradGradGradGradGradGradGradGradGradGradGradGradGradGradGradGrad
 Berny optimization.
 Initialization pass.
                           ----------------------------
                           !    Initial Parameters    !
                           ! (Angstroms and Degrees)  !
 --------------------------                            --------------------------
 ! Name  Definition              Value          Derivative Info.                !
 --------------------------------------------------------------------------------
 ! R1    R(1,2)                  1.4162         calculate D2E/DX2 analytically  !
 ! R2    R(1,15)                 1.0194         calculate D2E/DX2 analytically  !
 ! R3    R(1,16)                 1.0155         calculate D2E/DX2 analytically  !
 ! R4    R(2,3)                  1.3982         calculate D2E/DX2 analytically  !
 ! R5    R(2,7)                  1.4161         calculate D2E/DX2 analytically  !
 ! R6    R(3,4)                  1.3948         calculate D2E/DX2 analytically  !
 ! R7    R(3,17)                 1.0861         calculate D2E/DX2 analytically  !
 ! R8    R(4,5)                  1.3926         calculate D2E/DX2 analytically  !
 ! R9    R(4,18)                 1.0868         calculate D2E/DX2 analytically  !
 ! R10   R(5,6)                  1.3969         calculate D2E/DX2 analytically  !
 ! R11   R(5,19)                 1.0869         calculate D2E/DX2 analytically  !
 ! R12   R(6,7)                  1.3995         calculate D2E/DX2 analytically  !
 ! R13   R(6,20)                 1.0857         calculate D2E/DX2 analytically  !
 ! R14   R(7,8)                  1.4189         calculate D2E/DX2 analytically  !
 ! R15   R(8,9)                  1.4057         calculate D2E/DX2 analytically  !
 ! R16   R(8,21)                 1.0177         calculate D2E/DX2 analytically  !
 ! R17   R(9,10)                 1.4015         calculate D2E/DX2 analytically  !
 ! R18   R(9,14)                 1.4            calculate D2E/DX2 analytically  !
 ! R19   R(10,11)                1.3979         calculate D2E/DX2 analytically  !
 ! R20   R(10,22)                1.0868         calculate D2E/DX2 analytically  !
 ! R21   R(11,12)                1.3924         calculate D2E/DX2 analytically  !
 ! R22   R(11,23)                1.0867         calculate D2E/DX2 analytically  !
 ! R23   R(12,13)                1.3923         calculate D2E/DX2 analytically  !
 ! R24   R(12,24)                1.0867         calculate D2E/DX2 analytically  !
 ! R25   R(13,14)                1.3977         calculate D2E/DX2 analytically  !
 ! R26   R(13,25)                1.0867         calculate D2E/DX2 analytically  !
 ! R27   R(14,26)                1.087          calculate D2E/DX2 analytically  !
 ! A1    A(2,1,15)             109.6079         calculate D2E/DX2 analytically  !
 ! A2    A(2,1,16)             112.2475         calculate D2E/DX2 analytically  !
 ! A3    A(15,1,16)            111.1637         calculate D2E/DX2 analytically  !
 ! A4    A(1,2,3)              119.7816         calculate D2E/DX2 analytically  !
 ! A5    A(1,2,7)              119.7962         calculate D2E/DX2 analytically  !
 ! A6    A(3,2,7)              119.7411         calculate D2E/DX2 analytically  !
 ! A7    A(2,3,4)              120.3358         calculate D2E/DX2 analytically  !
 ! A8    A(2,3,17)             120.3876         calculate D2E/DX2 analytically  !
 ! A9    A(4,3,17)             119.2721         calculate D2E/DX2 analytically  !
 ! A10   A(3,4,5)              119.9691         calculate D2E/DX2 analytically  !
 ! A11   A(3,4,18)             119.9805         calculate D2E/DX2 analytically  !
 ! A12   A(5,4,18)             120.0469         calculate D2E/DX2 analytically  !
 ! A13   A(4,5,6)              120.1077         calculate D2E/DX2 analytically  !
 ! A14   A(4,5,19)             120.0579         calculate D2E/DX2 analytically  !
 ! A15   A(6,5,19)             119.8112         calculate D2E/DX2 analytically  !
 ! A16   A(5,6,7)              120.609          calculate D2E/DX2 analytically  !
 ! A17   A(5,6,20)             118.6069         calculate D2E/DX2 analytically  !
 ! A18   A(7,6,20)             120.7123         calculate D2E/DX2 analytically  !
 ! A19   A(2,7,6)              118.9385         calculate D2E/DX2 analytically  !
 ! A20   A(2,7,8)              117.8858         calculate D2E/DX2 analytically  !
 ! A21   A(6,7,8)              123.1726         calculate D2E/DX2 analytically  !
 ! A22   A(7,8,9)              130.4833         calculate D2E/DX2 analytically  !
 ! A23   A(7,8,21)             108.6593         calculate D2E/DX2 analytically  !
 ! A24   A(9,8,21)             114.2484         calculate D2E/DX2 analytically  !
 ! A25   A(8,9,10)             119.6321         calculate D2E/DX2 analytically  !
 ! A26   A(8,9,14)             122.1323         calculate D2E/DX2 analytically  !
 ! A27   A(10,9,14)            118.2252         calculate D2E/DX2 analytically  !
 ! A28   A(9,10,11)            120.9501         calculate D2E/DX2 analytically  !
 ! A29   A(9,10,22)            120.2801         calculate D2E/DX2 analytically  !
 ! A30   A(11,10,22)           118.7666         calculate D2E/DX2 analytically  !
 ! A31   A(10,11,12)           120.0334         calculate D2E/DX2 analytically  !
 ! A32   A(10,11,23)           119.9243         calculate D2E/DX2 analytically  !
 ! A33   A(12,11,23)           120.0422         calculate D2E/DX2 analytically  !
 ! A34   A(11,12,13)           119.7536         calculate D2E/DX2 analytically  !
 ! A35   A(11,12,24)           120.1378         calculate D2E/DX2 analytically  !
 ! A36   A(13,12,24)           120.1077         calculate D2E/DX2 analytically  !
 ! A37   A(12,13,14)           120.0286         calculate D2E/DX2 analytically  !
 ! A38   A(12,13,25)           120.1234         calculate D2E/DX2 analytically  !
 ! A39   A(14,13,25)           119.8465         calculate D2E/DX2 analytically  !
 ! A40   A(9,14,13)            121.0018         calculate D2E/DX2 analytically  !
 ! A41   A(9,14,26)            120.0649         calculate D2E/DX2 analytically  !
 ! A42   A(13,14,26)           118.9162         calculate D2E/DX2 analytically  !
 ! D1    D(15,1,2,3)           153.772          calculate D2E/DX2 analytically  !
 ! D2    D(15,1,2,7)           -35.7078         calculate D2E/DX2 analytically  !
 ! D3    D(16,1,2,3)            29.7295         calculate D2E/DX2 analytically  !
 ! D4    D(16,1,2,7)          -159.7502         calculate D2E/DX2 analytically  !
 ! D5    D(1,2,3,4)            176.4364         calculate D2E/DX2 analytically  !
 ! D6    D(1,2,3,17)            -4.3477         calculate D2E/DX2 analytically  !
 ! D7    D(7,2,3,4)              5.911          calculate D2E/DX2 analytically  !
 ! D8    D(7,2,3,17)          -174.8732         calculate D2E/DX2 analytically  !
 ! D9    D(1,2,7,6)           -176.9302         calculate D2E/DX2 analytically  !
 ! D10   D(1,2,7,8)              3.6816         calculate D2E/DX2 analytically  !
 ! D11   D(3,2,7,6)             -6.4061         calculate D2E/DX2 analytically  !
 ! D12   D(3,2,7,8)            174.2057         calculate D2E/DX2 analytically  !
 ! D13   D(2,3,4,5)             -2.075          calculate D2E/DX2 analytically  !
 ! D14   D(2,3,4,18)           178.6117         calculate D2E/DX2 analytically  !
 ! D15   D(17,3,4,5)           178.7005         calculate D2E/DX2 analytically  !
 ! D16   D(17,3,4,18)           -0.6128         calculate D2E/DX2 analytically  !
 ! D17   D(3,4,5,6)             -1.2298         calculate D2E/DX2 analytically  !
 ! D18   D(3,4,5,19)          -179.4749         calculate D2E/DX2 analytically  !
 ! D19   D(18,4,5,6)           178.0831         calculate D2E/DX2 analytically  !
 ! D20   D(18,4,5,19)           -0.162          calculate D2E/DX2 analytically  !
 ! D21   D(4,5,6,7)              0.6472         calculate D2E/DX2 analytically  !
 ! D22   D(4,5,6,20)          -176.2918         calculate D2E/DX2 analytically  !
 ! D23   D(19,5,6,7)           178.8966         calculate D2E/DX2 analytically  !
 ! D24   D(19,5,6,20)            1.9576         calculate D2E/DX2 analytically  !
 ! D25   D(5,6,7,2)              3.1591         calculate D2E/DX2 analytically  !
 ! D26   D(5,6,7,8)           -177.487          calculate D2E/DX2 analytically  !
 ! D27   D(20,6,7,2)          -179.9667         calculate D2E/DX2 analytically  !
 ! D28   D(20,6,7,8)            -0.6128         calculate D2E/DX2 analytically  !
 ! D29   D(2,7,8,9)            164.7485         calculate D2E/DX2 analytically  !
 ! D30   D(2,7,8,21)           -46.1405         calculate D2E/DX2 analytically  !
 ! D31   D(6,7,8,9)            -14.6118         calculate D2E/DX2 analytically  !
 ! D32   D(6,7,8,21)           134.4992         calculate D2E/DX2 analytically  !
 ! D33   D(7,8,9,10)           140.875          calculate D2E/DX2 analytically  !
 ! D34   D(7,8,9,14)           -40.3187         calculate D2E/DX2 analytically  !
 ! D35   D(21,8,9,10)           -6.8856         calculate D2E/DX2 analytically  !
 ! D36   D(21,8,9,14)          171.9207         calculate D2E/DX2 analytically  !
 ! D37   D(8,9,10,11)          179.8211         calculate D2E/DX2 analytically  !
 ! D38   D(8,9,10,22)           -0.8455         calculate D2E/DX2 analytically  !
 ! D39   D(14,9,10,11)           0.9684         calculate D2E/DX2 analytically  !
 ! D40   D(14,9,10,22)        -179.6982         calculate D2E/DX2 analytically  !
 ! D41   D(8,9,14,13)         -179.7181         calculate D2E/DX2 analytically  !
 ! D42   D(8,9,14,26)           -1.2364         calculate D2E/DX2 analytically  !
 ! D43   D(10,9,14,13)          -0.8957         calculate D2E/DX2 analytically  !
 ! D44   D(10,9,14,26)         177.586          calculate D2E/DX2 analytically  !
 ! D45   D(9,10,11,12)          -0.4137         calculate D2E/DX2 analytically  !
 ! D46   D(9,10,11,23)         179.5649         calculate D2E/DX2 analytically  !
 ! D47   D(22,10,11,12)       -179.757          calculate D2E/DX2 analytically  !
 ! D48   D(22,10,11,23)          0.2216         calculate D2E/DX2 analytically  !
 ! D49   D(10,11,12,13)         -0.2382         calculate D2E/DX2 analytically  !
 ! D50   D(10,11,12,24)       -179.8955         calculate D2E/DX2 analytically  !
 ! D51   D(23,11,12,13)        179.7832         calculate D2E/DX2 analytically  !
 ! D52   D(23,11,12,24)          0.1259         calculate D2E/DX2 analytically  !
 ! D53   D(11,12,13,14)          0.3106         calculate D2E/DX2 analytically  !
 ! D54   D(11,12,13,25)       -179.2508         calculate D2E/DX2 analytically  !
 ! D55   D(24,12,13,14)        179.968          calculate D2E/DX2 analytically  !
 ! D56   D(24,12,13,25)          0.4067         calculate D2E/DX2 analytically  !
 ! D57   D(12,13,14,9)           0.2677         calculate D2E/DX2 analytically  !
 ! D58   D(12,13,14,26)       -178.2311         calculate D2E/DX2 analytically  !
 ! D59   D(25,13,14,9)         179.8303         calculate D2E/DX2 analytically  !
 ! D60   D(25,13,14,26)          1.3315         calculate D2E/DX2 analytically  !
 --------------------------------------------------------------------------------
 Trust Radius=3.00D-01 FncErr=1.00D-07 GrdErr=1.00D-06 EigMax=2.50D+02 EigMin=1.00D-04
 Number of steps in this run=    139 maximum allowed number of steps=    156.
 GradGradGradGradGradGradGradGradGradGradGradGradGradGradGradGradGradGrad

                          Input orientation:                          
 ---------------------------------------------------------------------
 Center     Atomic      Atomic             Coordinates (Angstroms)
 Number     Number       Type             X           Y           Z
 ---------------------------------------------------------------------
      1          7           0       -1.930828   -1.830188    1.816408
      2          6           0       -2.151646   -1.037678    0.663701
      3          6           0       -3.445629   -0.901850    0.151757
      4          6           0       -3.687948   -0.065494   -0.937874
      5          6           0       -2.645842    0.672363   -1.493790
      6          6           0       -1.363122    0.596065   -0.945920
      7          6           0       -1.106375   -0.229008    0.154901
      8          7           0        0.161836   -0.308834    0.786297
      9          6           0        1.425497    0.130264    0.354589
     10          6           0        2.310766    0.706529    1.275683
     11          6           0        3.575388    1.149177    0.877174
     12          6           0        3.975315    1.012964   -0.449633
     13          6           0        3.113234    0.430343   -1.374836
     14          6           0        1.849050   -0.009534   -0.972505
     15          1           0       -0.974262   -2.182607    1.811165
     16          1           0       -2.600804   -2.589288    1.895227
     17          1           0       -4.270722   -1.455849    0.589804
     18          1           0       -4.691917    0.018420   -1.345350
     19          1           0       -2.834759    1.331042   -2.337505
     20          1           0       -0.582749    1.227372   -1.359675
     21          1           0        0.026941   -0.267740    1.794145
     22          1           0        2.018271    0.826607    2.315511
     23          1           0        4.245848    1.600011    1.603955
     24          1           0        4.958690    1.354943   -0.760928
     25          1           0        3.423842    0.309994   -2.409171
     26          1           0        1.201925   -0.488023   -1.703128
 ---------------------------------------------------------------------
                    Distance matrix (angstroms):
                    1          2          3          4          5
     1  N    0.000000
     2  C    1.416179   0.000000
     3  C    2.434644   1.398188   0.000000
     4  C    3.713177   2.422893   1.394814   0.000000
     5  C    4.210868   2.797005   2.413634   1.392645   0.000000
     6  C    3.720141   2.425235   2.790247   2.417135   1.396909
     7  C    2.450327   1.416127   2.434099   2.808099   2.429118
     8  N    2.784760   2.428671   3.710541   4.225260   3.747613
     9  C    4.152734   3.775657   4.983399   5.277888   4.504018
    10  C    4.971764   4.830104   6.081627   6.440531   5.677950
    11  C    6.330655   6.134070   7.350348   7.584581   6.674768
    12  C    6.935487   6.556241   7.687561   7.754164   6.711631
    13  C    6.382523   5.833496   6.864686   6.833219   5.765387
    14  C    5.037886   4.442951   5.485784   5.537390   4.576110
    15  H    1.019434   2.003439   3.240621   4.404938   4.676298
    16  H    1.015536   2.031229   2.569214   3.946882   4.703810
    17  H    2.668293   2.161206   1.086084   2.146279   3.392769
    18  H    4.586684   3.406554   2.154405   1.086753   2.153160
    19  H    5.297684   3.883905   3.399323   2.153419   1.086924
    20  H    4.610150   3.418470   3.874802   3.389938   2.140648
    21  H    2.504915   2.572343   3.893364   4.615760   4.340286
    22  H    4.785713   4.857184   6.125651   6.628823   6.023995
    23  H    7.068431   6.983509   8.217481   8.495877   7.612618
    24  H    8.015808   7.636169   8.749782   8.764320   7.670196
    25  H    7.149013   6.507290   7.430784   7.272088   6.149008
    26  H    4.899253   4.141309   5.021117   4.967394   4.024380
                    6          7          8          9         10
     6  C    0.000000
     7  C    1.399454   0.000000
     8  N    2.478894   1.418940   0.000000
     9  C    3.112023   2.565019   1.405708   0.000000
    10  C    4.294785   3.715943   2.426594   1.401499   0.000000
    11  C    5.293249   4.933556   3.713002   2.435839   1.397861
    12  C    5.377640   5.266073   4.221053   2.815583   2.416887
    13  C    4.499911   4.536512   3.731974   2.435039   2.783072
    14  C    3.268870   3.170765   2.455536   1.400042   2.404221
    15  H    3.933669   2.564608   2.419112   3.637283   4.407410
    16  H    4.444147   3.291348   3.749984   5.097119   5.947249
    17  H    3.875943   3.421604   4.582775   5.917600   6.961487
    18  H    3.402072   3.894623   5.311303   6.350201   7.508720
    19  H    2.154626   3.410742   4.628922   5.180639   6.318352
    20  H    1.085690   2.165448   2.742176   2.859265   3.948268
    21  H    3.191613   1.993245   1.017666   2.046140   2.536505
    22  H    4.703605   3.942837   2.659712   2.163675   1.086836
    23  H    6.242621   5.838780   4.581637   3.416936   2.156528
    24  H    6.369884   6.335034   5.307717   3.902265   3.402900
    25  H    5.013778   5.233341   4.608107   3.415268   3.869668
    26  H    2.885841   2.974493   2.703911   2.160200   3.395557
                   11         12         13         14         15
    11  C    0.000000
    12  C    1.392448   0.000000
    13  C    2.408704   1.392347   0.000000
    14  C    2.782833   2.416588   1.397685   0.000000
    15  H    5.715981   6.310404   5.803942   4.521300   0.000000
    16  H    7.290946   7.856203   7.243046   5.888991   1.678718
    17  H    8.272254   8.670213   7.870219   6.479525   3.589784
    18  H    8.635193   8.769968   7.816069   6.551645   5.350613
    19  H    7.173368   7.074061   6.092341   5.059490   5.746185
    20  H    4.722256   4.652966   3.780976   2.755628   4.672843
    21  H    3.929372   4.718517   4.478278   3.322816   2.160883
    22  H    2.144173   3.392752   3.869707   3.396883   4.273756
    23  H    1.086728   2.152913   3.394721   3.869550   6.449859
    24  H    2.153890   1.086683   2.153479   3.402414   7.370878
    25  H    3.395181   2.153620   1.086651   2.155476   6.585410
    26  H    3.869329   3.393510   2.145758   1.086984   4.467400
                   16         17         18         19         20
    16  H    0.000000
    17  H    2.403630   0.000000
    18  H    4.655559   2.468946   0.000000
    19  H    5.774058   4.289276   2.481206   0.000000
    20  H    5.406831   4.959968   4.283343   2.457326   0.000000
    21  H    3.507827   4.618653   5.675028   5.274085   3.543115
    22  H    5.760280   6.909349   7.686462   6.742174   4.520277
    23  H    8.031918   9.104875   9.543766   8.108171   5.677791
    24  H    8.930737   9.742026   9.760228   7.951353   5.575152
    25  H    7.951732   8.445020   8.190377   6.341748   4.242145
    26  H    5.641296   6.011995   5.926370   4.472835   2.499120
                   21         22         23         24         25
    21  H    0.000000
    22  H    2.331268   0.000000
    23  H    4.617774   2.463039   0.000000
    24  H    5.786505   4.288319   2.482111   0.000000
    25  H    5.435125   4.956323   4.294766   2.482817   0.000000
    26  H    3.695949   4.306290   4.956022   4.289236   2.464193
                   26
    26  H    0.000000
 Stoichiometry    C12H12N2
 Framework group  C1[X(C12H12N2)]
 Deg. of freedom    72
 Full point group                 C1      NOp   1
 Largest Abelian subgroup         C1      NOp   1
 Largest concise Abelian subgroup C1      NOp   1
                         Standard orientation:                         
 ---------------------------------------------------------------------
 Center     Atomic      Atomic             Coordinates (Angstroms)
 Number     Number       Type             X           Y           Z
 ---------------------------------------------------------------------
      1          7           0       -2.262687    2.213184    0.453527
      2          6           0       -2.308933    0.817965    0.215225
      3          6           0       -3.543915    0.179076    0.068364
      4          6           0       -3.601735   -1.179975   -0.240089
      5          6           0       -2.425894   -1.897282   -0.445827
      6          6           0       -1.189132   -1.252385   -0.369123
      7          6           0       -1.114797    0.113288   -0.072672
      8          7           0        0.107072    0.833548   -0.031998
      9          6           0        1.435308    0.375609    0.013809
     10          6           0        2.423945    1.042380   -0.722543
     11          6           0        3.753895    0.612916   -0.694112
     12          6           0        4.114745   -0.486791    0.080061
     13          6           0        3.147393   -1.152407    0.828270
     14          6           0        1.818466   -0.720638    0.795825
     15          1           0       -1.403937    2.447061    0.950615
     16          1           0       -3.079812    2.544479    0.957376
     17          1           0       -4.468418    0.732281    0.205610
     18          1           0       -4.564534   -1.675798   -0.330684
     19          1           0       -2.469544   -2.954439   -0.694658
     20          1           0       -0.291722   -1.820719   -0.593567
     21          1           0       -0.015442    1.711081   -0.532568
     22          1           0        2.164445    1.900510   -1.336942
     23          1           0        4.505740    1.138062   -1.277147
     24          1           0        5.148441   -0.821069    0.104741
     25          1           0        3.424528   -2.003793    1.444020
     26          1           0        1.083481   -1.235325    1.409363
 ---------------------------------------------------------------------
 Rotational constants (GHZ):           1.6902743           0.3767332           0.3267527
 Standard basis: 6-31G(d,p) (6D, 7F)
 There are   270 symmetry adapted cartesian basis functions of A   symmetry.
 There are   270 symmetry adapted basis functions of A   symmetry.
   270 basis functions,   476 primitive gaussians,   270 cartesian basis functions
    49 alpha electrons       49 beta electrons
       nuclear repulsion energy       799.9465595656 Hartrees.
 NAtoms=   26 NActive=   26 NUniq=   26 SFac= 1.00D+00 NAtFMM=   60 NAOKFM=F Big=F
 Integral buffers will be    131072 words long.
 Raffenetti 2 integral format.
 Two-electron integral symmetry is turned on.
 Force inversion solution in PCM.
 ------------------------------------------------------------------------------
 Polarizable Continuum Model (PCM)
 =================================
 Model                : PCM.
 Atomic radii         : UFF (Universal Force Field).
 Polarization charges : Total charges.
 Charge compensation  : None.
 Solution method      : Matrix inversion.
 Cavity type          : Scaled VdW (van der Waals Surface) (Alpha=1.100).
 Cavity algorithm     : GePol (No added spheres)
                        Default sphere list used, NSphG=   26.
                        Lebedev-Laikov grids with approx.  5.0 points / Ang**2.
                        Smoothing algorithm: York/Karplus (Gamma=1.0000).
                        Polarization charges: spherical gaussians, with
                                              point-specific exponents (IZeta= 3).
                        Self-potential: point-specific (ISelfS= 7).
                        Self-field    : sphere-specific E.n sum rule (ISelfD= 2).
 1st derivatives      : Analytical E(r).r(x)/FMM algorithm (CHGder, D1EAlg=3).
                        Cavity 1st derivative terms included.
 2nd derivatives      : Analytical E(r).r(xy)/FMM algorithm (CHGder, D2EAlg=3).
                        Cavity 2nd derivative terms included.
 Solvent              : Water, Eps=  78.355300 Eps(inf)=   1.777849
 ------------------------------------------------------------------------------
 One-electron integrals computed using PRISM.
 NBasis=   270 RedAO= T EigKep=  4.02D-04  NBF=   270
 NBsUse=   270 1.00D-06 EigRej= -1.00D+00 NBFU=   270
 ExpMin= 1.61D-01 ExpMax= 4.17D+03 ExpMxC= 6.27D+02 IAcc=3 IRadAn=         5 AccDes= 0.00D+00
 Harris functional with IExCor=  402 and IRadAn=       5 diagonalized for initial guess.
 HarFok:  IExCor=  402 AccDes= 0.00D+00 IRadAn=         5 IDoV= 1 UseB2=F ITyADJ=14
 ICtDFT=  3500011 ScaDFX=  1.000000  1.000000  1.000000  1.000000
 FoFCou: FMM=F IPFlag=           0 FMFlag=      100000 FMFlg1=           0
         NFxFlg=           0 DoJE=T BraDBF=F KetDBF=T FulRan=T
         wScrn=  0.000000 ICntrl=       500 IOpCl=  0 I1Cent=   200000004 NGrid=           0
         NMat0=    1 NMatS0=      1 NMatT0=    0 NMatD0=    1 NMtDS0=    0 NMtDT0=    0
 Petite list used in FoFCou.
 Keep R1 ints in memory in canonical form, NReq=679202228.
 Requested convergence on RMS density matrix=1.00D-08 within  32 cycles.
 Requested convergence on MAX density matrix=1.00D-06.
 Requested convergence on             energy=1.00D-06.
 No special actions if energy rises.
 Inv3:  Mode=1 IEnd=    12096192.
 Iteration    1 A*A^-1 deviation from unit magnitude is 7.55D-15 for    663.
 Iteration    1 A*A^-1 deviation from orthogonality  is 3.89D-15 for    782    182.
 Iteration    1 A^-1*A deviation from unit magnitude is 7.55D-15 for     99.
 Iteration    1 A^-1*A deviation from orthogonality  is 2.87D-15 for   1533    259.
 Error on total polarization charges =  0.00999
 SCF Done:  E(RB3LYP) =  -574.035275700     A.U. after   12 cycles
            NFock= 12  Conv=0.81D-08     -V/T= 2.0099
 QCSCF skips out because SCF is already converged.
 DoSCS=F DFT=T ScalE2(SS,OS)=  1.000000  1.000000
 Range of M.O.s used for correlation:     1   270
 NBasis=   270 NAE=    49 NBE=    49 NFC=     0 NFV=     0
 NROrb=    270 NOA=    49 NOB=    49 NVA=   221 NVB=   221
 Symmetrizing basis deriv contribution to polar:
 IMax=3 JMax=2 DiffMx= 0.00D+00
 G2DrvN: will do    27 centers at a time, making    1 passes.
 Calling FoFCou, ICntrl=  3107 FMM=F I1Cent=   0 AccDes= 0.00D+00.
 NEqPCM:  Using equilibrium solvation (IEInf=0, Eps=  78.3553, EpsInf=   1.7778)
 G2PCM: DoFxE=T DoFxN=T DoGrad=T DoDP/DQ/DG/TGxP=FFFF NFrqRd=   0 IEInf=0 SqF1=F DoCFld=F IF1Alg=4.
 End of G2Drv F.D. properties file   721 does not exist.
 End of G2Drv F.D. properties file   722 does not exist.
 End of G2Drv F.D. properties file   788 does not exist.
          IDoAtm=11111111111111111111111111
 NEqPCM:  Using equilibrium solvation (IEInf=0, Eps=  78.3553, EpsInf=   1.7778)
          Differentiating once with respect to nuclear coordinates.
 Keep R1 ints in memory in canonical form, NReq=679615619.
          There are    81 degrees of freedom in the 1st order CPHF.  IDoFFX=6 NUNeed=     0.
     75 vectors produced by pass  0 Test12= 1.34D-14 1.23D-09 XBig12= 1.54D-01 1.42D-01.
 AX will form    75 AO Fock derivatives at one time.
     75 vectors produced by pass  1 Test12= 1.34D-14 1.23D-09 XBig12= 2.63D-02 4.27D-02.
     75 vectors produced by pass  2 Test12= 1.34D-14 1.23D-09 XBig12= 2.12D-04 2.10D-03.
     75 vectors produced by pass  3 Test12= 1.34D-14 1.23D-09 XBig12= 6.64D-07 8.07D-05.
     75 vectors produced by pass  4 Test12= 1.34D-14 1.23D-09 XBig12= 9.97D-10 2.59D-06.
     54 vectors produced by pass  5 Test12= 1.34D-14 1.23D-09 XBig12= 9.06D-13 1.03D-07.
     10 vectors produced by pass  6 Test12= 1.34D-14 1.23D-09 XBig12= 8.08D-16 2.53D-09.
 InvSVY:  IOpt=1 It=  1 EMax= 7.77D-16
 Solved reduced A of dimension   439 with    81 vectors.
 End of Minotr F.D. properties file   721 does not exist.
 End of Minotr F.D. properties file   722 does not exist.
 End of Minotr F.D. properties file   788 does not exist.

 **********************************************************************

            Population analysis using the SCF density.

 **********************************************************************

 Orbital symmetries:
       Occupied  (A) (A) (A) (A) (A) (A) (A) (A) (A) (A) (A) (A)
                 (A) (A) (A) (A) (A) (A) (A) (A) (A) (A) (A) (A)
                 (A) (A) (A) (A) (A) (A) (A) (A) (A) (A) (A) (A)
                 (A) (A) (A) (A) (A) (A) (A) (A) (A) (A) (A) (A)
                 (A)
       Virtual   (A) (A) (A) (A) (A) (A) (A) (A) (A) (A) (A) (A)
                 (A) (A) (A) (A) (A) (A) (A) (A) (A) (A) (A) (A)
                 (A) (A) (A) (A) (A) (A) (A) (A) (A) (A) (A) (A)
                 (A) (A) (A) (A) (A) (A) (A) (A) (A) (A) (A) (A)
                 (A) (A) (A) (A) (A) (A) (A) (A) (A) (A) (A) (A)
                 (A) (A) (A) (A) (A) (A) (A) (A) (A) (A) (A) (A)
                 (A) (A) (A) (A) (A) (A) (A) (A) (A) (A) (A) (A)
                 (A) (A) (A) (A) (A) (A) (A) (A) (A) (A) (A) (A)
                 (A) (A) (A) (A) (A) (A) (A) (A) (A) (A) (A) (A)
                 (A) (A) (A) (A) (A) (A) (A) (A) (A) (A) (A) (A)
                 (A) (A) (A) (A) (A) (A) (A) (A) (A) (A) (A) (A)
                 (A) (A) (A) (A) (A) (A) (A) (A) (A) (A) (A) (A)
                 (A) (A) (A) (A) (A) (A) (A) (A) (A) (A) (A) (A)
                 (A) (A) (A) (A) (A) (A) (A) (A) (A) (A) (A) (A)
                 (A) (A) (A) (A) (A) (A) (A) (A) (A) (A) (A) (A)
                 (A) (A) (A) (A) (A) (A) (A) (A) (A) (A) (A) (A)
                 (A) (A) (A) (A) (A) (A) (A) (A) (A) (A) (A) (A)
                 (A) (A) (A) (A) (A) (A) (A) (A) (A) (A) (A) (A)
                 (A) (A) (A) (A) (A)
 The electronic state is 1-A.
 Alpha  occ. eigenvalues --  -14.35828 -14.33816 -10.23460 -10.22777 -10.22543
 Alpha  occ. eigenvalues --  -10.19072 -10.19054 -10.18794 -10.18675 -10.18513
 Alpha  occ. eigenvalues --  -10.18296 -10.18205 -10.18197 -10.17970  -0.95058
 Alpha  occ. eigenvalues --   -0.90507  -0.84627  -0.82846  -0.75411  -0.74413
 Alpha  occ. eigenvalues --   -0.72946  -0.70802  -0.62521  -0.61523  -0.59454
 Alpha  occ. eigenvalues --   -0.57937  -0.53053  -0.52418  -0.50646  -0.48219
 Alpha  occ. eigenvalues --   -0.47956  -0.44827  -0.43645  -0.43239  -0.42439
 Alpha  occ. eigenvalues --   -0.42194  -0.41553  -0.39534  -0.37335  -0.36022
 Alpha  occ. eigenvalues --   -0.35570  -0.34575  -0.34128  -0.31865  -0.30845
 Alpha  occ. eigenvalues --   -0.25365  -0.25139  -0.21918  -0.18783
 Alpha virt. eigenvalues --   -0.00727  -0.00339   0.01107   0.02692   0.08456
 Alpha virt. eigenvalues --    0.09644   0.10507   0.12629   0.14367   0.15480
 Alpha virt. eigenvalues --    0.15643   0.16096   0.16828   0.17448   0.18129
 Alpha virt. eigenvalues --    0.19287   0.19795   0.20407   0.22915   0.25503
 Alpha virt. eigenvalues --    0.27004   0.30358   0.30599   0.32556   0.32699
 Alpha virt. eigenvalues --    0.33258   0.34620   0.36986   0.40109   0.46066
 Alpha virt. eigenvalues --    0.49412   0.51021   0.52345   0.52654   0.53925
 Alpha virt. eigenvalues --    0.54073   0.55470   0.56117   0.57022   0.57952
 Alpha virt. eigenvalues --    0.58425   0.59489   0.59728   0.60113   0.60343
 Alpha virt. eigenvalues --    0.61136   0.61608   0.61711   0.61737   0.62092
 Alpha virt. eigenvalues --    0.63137   0.64317   0.66496   0.67041   0.68174
 Alpha virt. eigenvalues --    0.69332   0.70029   0.75639   0.76933   0.78590
 Alpha virt. eigenvalues --    0.79561   0.81459   0.82119   0.82380   0.82814
 Alpha virt. eigenvalues --    0.83580   0.83952   0.84410   0.85327   0.85520
 Alpha virt. eigenvalues --    0.87874   0.89609   0.90280   0.91730   0.93362
 Alpha virt. eigenvalues --    0.95705   0.96674   0.98018   0.98912   1.00066
 Alpha virt. eigenvalues --    1.00413   1.02931   1.04770   1.06962   1.09762
 Alpha virt. eigenvalues --    1.11846   1.13317   1.14902   1.16258   1.18692
 Alpha virt. eigenvalues --    1.19246   1.21573   1.26514   1.27529   1.28331
 Alpha virt. eigenvalues --    1.30829   1.34055   1.35667   1.37252   1.38011
 Alpha virt. eigenvalues --    1.40456   1.41325   1.41936   1.42287   1.43081
 Alpha virt. eigenvalues --    1.43614   1.45685   1.52735   1.54436   1.64531
 Alpha virt. eigenvalues --    1.68055   1.70675   1.74447   1.75548   1.78797
 Alpha virt. eigenvalues --    1.79670   1.80007   1.82098   1.82890   1.86802
 Alpha virt. eigenvalues --    1.87449   1.89168   1.89730   1.91270   1.91984
 Alpha virt. eigenvalues --    1.92648   1.93103   1.96149   1.97398   1.97878
 Alpha virt. eigenvalues --    1.99015   2.00431   2.00930   2.01253   2.03928
 Alpha virt. eigenvalues --    2.05329   2.07303   2.09577   2.10815   2.16848
 Alpha virt. eigenvalues --    2.21124   2.22846   2.24691   2.27364   2.28443
 Alpha virt. eigenvalues --    2.29609   2.31707   2.32685   2.34864   2.35484
 Alpha virt. eigenvalues --    2.37897   2.38509   2.38931   2.39845   2.40588
 Alpha virt. eigenvalues --    2.41404   2.42636   2.43837   2.44958   2.45463
 Alpha virt. eigenvalues --    2.45723   2.47156   2.49318   2.49984   2.51204
 Alpha virt. eigenvalues --    2.52000   2.54028   2.55227   2.57066   2.59082
 Alpha virt. eigenvalues --    2.59672   2.60340   2.62135   2.64844   2.65985
 Alpha virt. eigenvalues --    2.67556   2.71283   2.72151   2.73945   2.76003
 Alpha virt. eigenvalues --    2.76410   2.78391   2.81978   2.84483   2.91673
 Alpha virt. eigenvalues --    2.93418   2.99110   3.04939   3.08463   3.10165
 Alpha virt. eigenvalues --    3.15229   3.19361   3.20854   3.24070   3.24652
 Alpha virt. eigenvalues --    3.25157   3.28440   3.32006   3.35431   3.36463
 Alpha virt. eigenvalues --    3.43147   3.45317   3.50012   3.50076   3.54536
 Alpha virt. eigenvalues --    3.85801   3.90167   4.05772   4.13375   4.13894
 Alpha virt. eigenvalues --    4.16216   4.16700   4.18523   4.20741   4.29672
 Alpha virt. eigenvalues --    4.44072   4.44844   4.45525   4.48708   4.81675
 Alpha virt. eigenvalues --    4.86444
          Condensed to atoms (all electrons):
               1          2          3          4          5          6
     1  N    6.869130   0.292143  -0.075079   0.004873   0.000199   0.005771
     2  C    0.292143   4.724715   0.526606  -0.025623  -0.039087  -0.043862
     3  C   -0.075079   0.526606   4.941389   0.531753  -0.038719  -0.047727
     4  C    0.004873  -0.025623   0.531753   4.833512   0.546641  -0.038575
     5  C    0.000199  -0.039087  -0.038719   0.546641   4.861012   0.521068
     6  C    0.005771  -0.043862  -0.047727  -0.038575   0.521068   4.934681
     7  C   -0.071029   0.508362  -0.035200  -0.038590  -0.024915   0.533122
     8  N   -0.018989  -0.058135   0.005619   0.000151   0.005908  -0.070253
     9  C    0.000262   0.004194  -0.000066  -0.000000   0.000045  -0.003121
    10  C   -0.000013  -0.000231   0.000001  -0.000000  -0.000008   0.000397
    11  C   -0.000000   0.000001  -0.000000   0.000000  -0.000000   0.000002
    12  C    0.000000   0.000000  -0.000000   0.000000  -0.000000   0.000001
    13  C   -0.000000   0.000004   0.000000  -0.000000  -0.000002  -0.000193
    14  C   -0.000005   0.000032  -0.000001  -0.000003   0.000021  -0.003650
    15  H    0.323553  -0.029572   0.006643  -0.000199  -0.000001  -0.000010
    16  H    0.342866  -0.027176  -0.010115  -0.000037  -0.000003  -0.000093
    17  H   -0.007639  -0.039798   0.365695  -0.036527   0.004696   0.000586
    18  H   -0.000114   0.003906  -0.037822   0.368566  -0.040553   0.004696
    19  H    0.000005   0.000964   0.004660  -0.040868   0.368348  -0.036256
    20  H   -0.000091   0.004505   0.000605   0.004617  -0.037877   0.361026
    21  H    0.014457  -0.014604  -0.000414   0.000041  -0.000060   0.004554
    22  H   -0.000006  -0.000007  -0.000000   0.000000  -0.000000   0.000002
    23  H   -0.000000  -0.000000   0.000000  -0.000000  -0.000000  -0.000000
    24  H    0.000000   0.000000  -0.000000  -0.000000  -0.000000   0.000000
    25  H   -0.000000  -0.000000  -0.000000  -0.000000   0.000000   0.000002
    26  H   -0.000002  -0.000139  -0.000006  -0.000006   0.000043   0.002731
               7          8          9         10         11         12
     1  N   -0.071029  -0.018989   0.000262  -0.000013  -0.000000   0.000000
     2  C    0.508362  -0.058135   0.004194  -0.000231   0.000001   0.000000
     3  C   -0.035200   0.005619  -0.000066   0.000001  -0.000000  -0.000000
     4  C   -0.038590   0.000151  -0.000000  -0.000000   0.000000   0.000000
     5  C   -0.024915   0.005908   0.000045  -0.000008  -0.000000  -0.000000
     6  C    0.533122  -0.070253  -0.003121   0.000397   0.000002   0.000001
     7  C    4.735589   0.236805  -0.027557   0.004353  -0.000106   0.000014
     8  N    0.236805   7.125258   0.265966  -0.063478   0.005290   0.000358
     9  C   -0.027557   0.265966   4.572120   0.525726  -0.017164  -0.035487
    10  C    0.004353  -0.063478   0.525726   4.966490   0.528131  -0.046706
    11  C   -0.000106   0.005290  -0.017164   0.528131   4.818629   0.546436
    12  C    0.000014   0.000358  -0.035487  -0.046706   0.546436   4.847118
    13  C    0.000136   0.004636  -0.018214  -0.042558  -0.031646   0.544785
    14  C   -0.006100  -0.061855   0.531170  -0.058587  -0.042530  -0.046167
    15  H   -0.018825   0.022351   0.000167  -0.000055  -0.000002   0.000000
    16  H    0.006179   0.000267  -0.000003  -0.000000   0.000000   0.000000
    17  H    0.004307  -0.000093   0.000001  -0.000000   0.000000   0.000000
    18  H    0.000940   0.000004  -0.000000   0.000000  -0.000000   0.000000
    19  H    0.003512  -0.000124   0.000001   0.000000   0.000000  -0.000000
    20  H   -0.037313  -0.010193   0.005727   0.000012  -0.000032  -0.000026
    21  H   -0.034034   0.340310  -0.034532  -0.005924   0.000098  -0.000004
    22  H    0.000037  -0.009178  -0.042770   0.364920  -0.037606   0.004894
    23  H    0.000001  -0.000107   0.003489  -0.035877   0.370000  -0.040279
    24  H   -0.000000   0.000003   0.000686   0.004945  -0.041427   0.371635
    25  H   -0.000003  -0.000111   0.003503   0.000849   0.004550  -0.040337
    26  H    0.004075  -0.008120  -0.042441   0.005635   0.000345   0.004880
              13         14         15         16         17         18
     1  N   -0.000000  -0.000005   0.323553   0.342866  -0.007639  -0.000114
     2  C    0.000004   0.000032  -0.029572  -0.027176  -0.039798   0.003906
     3  C    0.000000  -0.000001   0.006643  -0.010115   0.365695  -0.037822
     4  C   -0.000000  -0.000003  -0.000199  -0.000037  -0.036527   0.368566
     5  C   -0.000002   0.000021  -0.000001  -0.000003   0.004696  -0.040553
     6  C   -0.000193  -0.003650  -0.000010  -0.000093   0.000586   0.004696
     7  C    0.000136  -0.006100  -0.018825   0.006179   0.004307   0.000940
     8  N    0.004636  -0.061855   0.022351   0.000267  -0.000093   0.000004
     9  C   -0.018214   0.531170   0.000167  -0.000003   0.000001  -0.000000
    10  C   -0.042558  -0.058587  -0.000055  -0.000000  -0.000000   0.000000
    11  C   -0.031646  -0.042530  -0.000002   0.000000   0.000000  -0.000000
    12  C    0.544785  -0.046167   0.000000   0.000000   0.000000   0.000000
    13  C    4.822335   0.533410   0.000000  -0.000000  -0.000000   0.000000
    14  C    0.533410   4.928636  -0.000070   0.000000  -0.000000   0.000000
    15  H    0.000000  -0.000070   0.453875  -0.024482  -0.000066   0.000003
    16  H   -0.000000   0.000000  -0.024482   0.428801   0.004638  -0.000009
    17  H   -0.000000  -0.000000  -0.000066   0.004638   0.613052  -0.006050
    18  H    0.000000   0.000000   0.000003  -0.000009  -0.006050   0.620857
    19  H   -0.000000   0.000005   0.000000  -0.000000  -0.000200  -0.005879
    20  H    0.000335   0.005505   0.000000   0.000004   0.000014  -0.000194
    21  H   -0.000095   0.005317  -0.005309  -0.000285  -0.000002   0.000000
    22  H    0.000347   0.005712  -0.000002  -0.000000  -0.000000  -0.000000
    23  H    0.004590   0.000752   0.000000   0.000000  -0.000000   0.000000
    24  H   -0.041450   0.004968  -0.000000  -0.000000   0.000000  -0.000000
    25  H    0.370047  -0.036283  -0.000000   0.000000  -0.000000   0.000000
    26  H   -0.037548   0.365344   0.000007  -0.000000  -0.000000   0.000000
              19         20         21         22         23         24
     1  N    0.000005  -0.000091   0.014457  -0.000006  -0.000000   0.000000
     2  C    0.000964   0.004505  -0.014604  -0.000007  -0.000000   0.000000
     3  C    0.004660   0.000605  -0.000414  -0.000000   0.000000  -0.000000
     4  C   -0.040868   0.004617   0.000041   0.000000  -0.000000  -0.000000
     5  C    0.368348  -0.037877  -0.000060  -0.000000  -0.000000  -0.000000
     6  C   -0.036256   0.361026   0.004554   0.000002  -0.000000   0.000000
     7  C    0.003512  -0.037313  -0.034034   0.000037   0.000001  -0.000000
     8  N   -0.000124  -0.010193   0.340310  -0.009178  -0.000107   0.000003
     9  C    0.000001   0.005727  -0.034532  -0.042770   0.003489   0.000686
    10  C    0.000000   0.000012  -0.005924   0.364920  -0.035877   0.004945
    11  C    0.000000  -0.000032   0.000098  -0.037606   0.370000  -0.041427
    12  C   -0.000000  -0.000026  -0.000004   0.004894  -0.040279   0.371635
    13  C   -0.000000   0.000335  -0.000095   0.000347   0.004590  -0.041450
    14  C    0.000005   0.005505   0.005317   0.005712   0.000752   0.004968
    15  H    0.000000   0.000000  -0.005309  -0.000002   0.000000  -0.000000
    16  H   -0.000000   0.000004  -0.000285  -0.000000   0.000000  -0.000000
    17  H   -0.000200   0.000014  -0.000002  -0.000000  -0.000000   0.000000
    18  H   -0.005879  -0.000194   0.000000  -0.000000   0.000000  -0.000000
    19  H    0.621250  -0.005881   0.000003   0.000000  -0.000000   0.000000
    20  H   -0.005881   0.608663  -0.000066  -0.000003  -0.000000   0.000000
    21  H    0.000003  -0.000066   0.444918   0.006308  -0.000013  -0.000000
    22  H    0.000000  -0.000003   0.006308   0.613833  -0.006234  -0.000178
    23  H   -0.000000  -0.000000  -0.000013  -0.006234   0.607333  -0.005927
    24  H    0.000000   0.000000  -0.000000  -0.000178  -0.005927   0.619644
    25  H    0.000000  -0.000002   0.000003   0.000014  -0.000194  -0.005864
    26  H   -0.000001  -0.000304  -0.000025  -0.000165   0.000014  -0.000176
              25         26
     1  N   -0.000000  -0.000002
     2  C   -0.000000  -0.000139
     3  C   -0.000000  -0.000006
     4  C   -0.000000  -0.000006
     5  C    0.000000   0.000043
     6  C    0.000002   0.002731
     7  C   -0.000003   0.004075
     8  N   -0.000111  -0.008120
     9  C    0.003503  -0.042441
    10  C    0.000849   0.005635
    11  C    0.004550   0.000345
    12  C   -0.040337   0.004880
    13  C    0.370047  -0.037548
    14  C   -0.036283   0.365344
    15  H   -0.000000   0.000007
    16  H    0.000000  -0.000000
    17  H   -0.000000  -0.000000
    18  H    0.000000   0.000000
    19  H    0.000000  -0.000001
    20  H   -0.000002  -0.000304
    21  H    0.000003  -0.000025
    22  H    0.000014  -0.000165
    23  H   -0.000194   0.000014
    24  H   -0.005864  -0.000176
    25  H    0.607476  -0.006128
    26  H   -0.006128   0.610335
 Mulliken charges:
               1
     1  N   -0.680289
     2  C    0.212802
     3  C   -0.137823
     4  C   -0.109727
     5  C   -0.126754
     6  C   -0.124897
     7  C    0.256239
     8  N   -0.712290
     9  C    0.308300
    10  C   -0.148020
    11  C   -0.102970
    12  C   -0.111114
    13  C   -0.108919
    14  C   -0.125621
    15  H    0.271993
    16  H    0.279450
    17  H    0.097388
    18  H    0.091648
    19  H    0.090463
    20  H    0.100970
    21  H    0.279361
    22  H    0.100083
    23  H    0.102453
    24  H    0.093142
    25  H    0.102478
    26  H    0.101653
 Sum of Mulliken charges =  -0.00000
 Mulliken charges with hydrogens summed into heavy atoms:
               1
     1  N   -0.128846
     2  C    0.212802
     3  C   -0.040435
     4  C   -0.018079
     5  C   -0.036291
     6  C   -0.023927
     7  C    0.256239
     8  N   -0.432929
     9  C    0.308300
    10  C   -0.047937
    11  C   -0.000517
    12  C   -0.017972
    13  C   -0.006441
    14  C   -0.023967
 APT charges:
               1
     1  N   -1.105156
     2  C   -0.192025
     3  C   -0.421759
     4  C   -0.445340
     5  C   -0.506470
     6  C   -0.546915
     7  C   -0.317254
     8  N   -0.882080
     9  C   -0.397504
    10  C   -0.576797
    11  C   -0.408497
    12  C   -0.471780
    13  C   -0.444819
    14  C   -0.562394
    15  H    0.230523
    16  H    0.947427
    17  H    0.783012
    18  H    0.866104
    19  H    0.607605
    20  H    0.265395
    21  H    0.557237
    22  H    0.409292
    23  H    0.816221
    24  H    0.915922
    25  H    0.645810
    26  H    0.234243
 Sum of APT charges =  -0.00000
 APT charges with hydrogens summed into heavy atoms:
               1
     1  N    0.072794
     2  C   -0.192025
     3  C    0.361253
     4  C    0.420764
     5  C    0.101134
     6  C   -0.281520
     7  C   -0.317254
     8  N   -0.324843
     9  C   -0.397504
    10  C   -0.167505
    11  C    0.407724
    12  C    0.444142
    13  C    0.200991
    14  C   -0.328151
 Electronic spatial extent (au):  <R**2>=           3326.3506
 Charge=             -0.0000 electrons
 Dipole moment (field-independent basis, Debye):
    X=             -0.3004    Y=              1.5999    Z=              0.8623  Tot=              1.8422
 Quadrupole moment (field-independent basis, Debye-Ang):
   XX=            -73.1943   YY=            -73.5044   ZZ=            -82.5393
   XY=             -3.2766   XZ=             -5.0899   YZ=              0.8004
 Traceless Quadrupole moment (field-independent basis, Debye-Ang):
   XX=              3.2184   YY=              2.9083   ZZ=             -6.1266
   XY=             -3.2766   XZ=             -5.0899   YZ=              0.8004
 Octapole moment (field-independent basis, Debye-Ang**2):
  XXX=            -15.6590  YYY=             11.2592  ZZZ=              4.5641  XYY=             -7.9272
  XXY=              9.1304  XXZ=              5.8972  XZZ=              1.4915  YZZ=              8.4600
  YYZ=              7.9439  XYZ=            -23.7926
 Hexadecapole moment (field-independent basis, Debye-Ang**3):
 XXXX=          -3214.3911 YYYY=           -724.0775 ZZZZ=           -225.2643 XXXY=            -70.6291
 XXXZ=            -71.0133 YYYX=            -16.4318 YYYZ=             29.7012 ZZZX=            -14.0885
 ZZZY=             -1.5637 XXYY=           -665.9332 XXZZ=           -651.7278 YYZZ=           -147.5965
 XXYZ=              4.7666 YYXZ=            -22.0917 ZZXY=            -18.0110
 N-N= 7.999465595656D+02 E-N=-2.930998938967D+03  KE= 5.684279099938D+02
  Exact polarizability:   0.000   0.000   0.000   0.000   0.000   0.000
 Approx polarizability: 308.663  -5.517 240.289 -13.306 -16.005 116.244
 D2PCM: PCM CHGder 2nd derivatives, FixD1E=F FixD2E=F DoIter=F DoCFld=F I1PDM=0
 Calling FoFJK, ICntrl=    100147 FMM=F ISym2X=0 I1Cent= 0 IOpClX= 0 NMat=1 NMatS=1 NMatT=0.
 ***** Axes restored to original set *****
 -------------------------------------------------------------------
 Center     Atomic                   Forces (Hartrees/Bohr)
 Number     Number              X              Y              Z
 -------------------------------------------------------------------
      1        7           0.008500828    0.003985939   -0.009518054
      2        6          -0.005638901    0.000687772    0.017323415
      3        6          -0.000383284    0.002103004   -0.008044262
      4        6          -0.002329609    0.000453025   -0.000390381
      5        6           0.000315101    0.001388172   -0.002057253
      6        6          -0.003632959    0.003423288   -0.000940642
      7        6           0.009593550    0.000293676   -0.014443752
      8        7          -0.007578739   -0.004839666    0.014904492
      9        6          -0.009250320    0.003188625   -0.001769473
     10        6           0.006349599    0.004537705    0.006237275
     11        6          -0.004724087   -0.003830972    0.001410094
     12        6           0.007948162    0.002924467   -0.002849116
     13        6          -0.004790579   -0.001532672    0.002951162
     14        6           0.000932209   -0.003494919   -0.011425082
     15        1          -0.004193103   -0.004205905    0.002933598
     16        1           0.002600975    0.000437625    0.000849307
     17        1           0.001758705   -0.002286229    0.001290075
     18        1           0.000243959   -0.000537287    0.000536655
     19        1           0.000940976   -0.000486695    0.000349781
     20        1           0.001713180   -0.002243077    0.001820152
     21        1           0.007227055    0.000035784   -0.001434338
     22        1          -0.002171945   -0.000403298   -0.000269488
     23        1          -0.001160566   -0.000492955    0.000388035
     24        1          -0.000429218    0.000155953    0.000118776
     25        1          -0.001046268   -0.000389195    0.000398693
     26        1          -0.000794719    0.001127837    0.001630329
 -------------------------------------------------------------------
 Cartesian Forces:  Max     0.017323415 RMS     0.004881924
 FormGI is forming the generalized inverse of G from B-inverse, IUseBI=4.

 GradGradGradGradGradGradGradGradGradGradGradGradGradGradGradGradGradGrad
 Berny optimization.
 Internal  Forces:  Max     0.015412351 RMS     0.002794398
 Search for a local minimum.
 Step number   1 out of a maximum of  139
 All quantities printed in internal units (Hartrees-Bohrs-Radians)
 Mixed Optimization -- RFO/linear search
 Second derivative matrix not updated -- analytic derivatives used.
 ITU=  0
     Eigenvalues ---    0.00186   0.00321   0.00869   0.01104   0.01648
     Eigenvalues ---    0.01673   0.01715   0.01751   0.01826   0.01964
     Eigenvalues ---    0.02084   0.02242   0.02262   0.02298   0.02459
     Eigenvalues ---    0.02460   0.02490   0.02678   0.02747   0.02812
     Eigenvalues ---    0.02910   0.02964   0.03568   0.10878   0.10941
     Eigenvalues ---    0.11369   0.11458   0.11786   0.12292   0.12307
     Eigenvalues ---    0.12331   0.12717   0.13395   0.14060   0.16155
     Eigenvalues ---    0.17981   0.18304   0.18853   0.19093   0.19244
     Eigenvalues ---    0.19477   0.20466   0.21354   0.22039   0.25394
     Eigenvalues ---    0.31111   0.32823   0.34845   0.35505   0.35579
     Eigenvalues ---    0.35634   0.35890   0.35922   0.35987   0.36033
     Eigenvalues ---    0.36077   0.36564   0.37484   0.38413   0.41300
     Eigenvalues ---    0.43220   0.43947   0.44247   0.44724   0.45600
     Eigenvalues ---    0.45645   0.46876   0.46940   0.47416   0.47720
     Eigenvalues ---    0.51124   0.51559
 RFO step:  Lambda=-5.97937567D-03 EMin= 1.86364491D-03
 Linear search not attempted -- first point.
 Iteration  1 RMS(Cart)=  0.06716312 RMS(Int)=  0.00133285
 Iteration  2 RMS(Cart)=  0.00321536 RMS(Int)=  0.00033317
 Iteration  3 RMS(Cart)=  0.00000384 RMS(Int)=  0.00033316
 Iteration  4 RMS(Cart)=  0.00000000 RMS(Int)=  0.00033316
 Variable       Old X    -DE/DX   Delta X   Delta X   Delta X     New X
                                 (Linear)    (Quad)   (Total)
    R1        2.67619  -0.00371   0.00000  -0.02700  -0.02700   2.64919
    R2        1.92645  -0.00250   0.00000  -0.00763  -0.00763   1.91882
    R3        1.91908  -0.00198   0.00000  -0.00440  -0.00440   1.91469
    R4        2.64219   0.00236   0.00000   0.00348   0.00349   2.64569
    R5        2.67609  -0.00136   0.00000   0.00438   0.00438   2.68047
    R6        2.63582   0.00188   0.00000   0.00222   0.00224   2.63805
    R7        2.05240   0.00035   0.00000   0.00185   0.00185   2.05425
    R8        2.63172   0.00239   0.00000   0.00412   0.00412   2.63584
    R9        2.05366  -0.00047   0.00000  -0.00156  -0.00156   2.05210
   R10        2.63977   0.00027   0.00000   0.00047   0.00045   2.64023
   R11        2.05399  -0.00073   0.00000  -0.00240  -0.00240   2.05159
   R12        2.64459   0.00034   0.00000  -0.00135  -0.00137   2.64321
   R13        2.05166  -0.00077   0.00000  -0.00268  -0.00268   2.04898
   R14        2.68141  -0.00373   0.00000  -0.00867  -0.00867   2.67274
   R15        2.65640  -0.00668   0.00000  -0.01104  -0.01104   2.64536
   R16        1.92311  -0.00238   0.00000  -0.00727  -0.00727   1.91584
   R17        2.64845   0.00351   0.00000   0.00991   0.00991   2.65836
   R18        2.64570   0.00470   0.00000   0.01366   0.01368   2.65938
   R19        2.64157  -0.00308   0.00000  -0.00820  -0.00821   2.63336
   R20        2.05382   0.00028   0.00000   0.00045   0.00045   2.05428
   R21        2.63135   0.00464   0.00000   0.00854   0.00852   2.63986
   R22        2.05362  -0.00066   0.00000  -0.00073  -0.00073   2.05289
   R23        2.63116   0.00462   0.00000   0.00923   0.00922   2.64038
   R24        2.05353  -0.00037   0.00000  -0.00245  -0.00245   2.05109
   R25        2.64124  -0.00243   0.00000  -0.00692  -0.00690   2.63434
   R26        2.05347  -0.00064   0.00000  -0.00043  -0.00043   2.05304
   R27        2.05410  -0.00112   0.00000  -0.00495  -0.00495   2.04915
    A1        1.91302   0.00741   0.00000   0.05051   0.04993   1.96295
    A2        1.95909   0.00076   0.00000   0.01940   0.01882   1.97791
    A3        1.94017  -0.00468   0.00000  -0.01635  -0.01730   1.92287
    A4        2.09058   0.00755   0.00000   0.03653   0.03561   2.12620
    A5        2.09084  -0.00392   0.00000  -0.01334  -0.01445   2.07638
    A6        2.08988  -0.00326   0.00000  -0.01070  -0.01197   2.07791
    A7        2.10026   0.00219   0.00000   0.01056   0.01044   2.11070
    A8        2.10116  -0.00406   0.00000  -0.02621  -0.02614   2.07502
    A9        2.08169   0.00187   0.00000   0.01560   0.01564   2.09733
   A10        2.09386  -0.00067   0.00000  -0.00047  -0.00062   2.09324
   A11        2.09405  -0.00032   0.00000  -0.00625  -0.00624   2.08782
   A12        2.09521   0.00099   0.00000   0.00689   0.00691   2.10212
   A13        2.09627  -0.00155   0.00000  -0.00546  -0.00561   2.09066
   A14        2.09541   0.00157   0.00000   0.00874   0.00879   2.10420
   A15        2.09110  -0.00001   0.00000  -0.00295  -0.00291   2.08819
   A16        2.10502   0.00080   0.00000   0.00438   0.00405   2.10907
   A17        2.07008   0.00285   0.00000   0.02171   0.02162   2.09170
   A18        2.10683  -0.00360   0.00000  -0.02448  -0.02458   2.08224
   A19        2.07587   0.00264   0.00000   0.00851   0.00821   2.08408
   A20        2.05750  -0.00562   0.00000  -0.02402  -0.02410   2.03339
   A21        2.14977   0.00299   0.00000   0.01582   0.01572   2.16549
   A22        2.27736  -0.01541   0.00000  -0.06763  -0.06742   2.20995
   A23        1.89646   0.01356   0.00000   0.07551   0.07567   1.97214
   A24        1.99401   0.00031   0.00000  -0.00118  -0.00087   1.99314
   A25        2.08797  -0.00074   0.00000  -0.00597  -0.00621   2.08176
   A26        2.13161  -0.00220   0.00000  -0.00150  -0.00174   2.12987
   A27        2.06342   0.00293   0.00000   0.00679   0.00663   2.07004
   A28        2.11098  -0.00213   0.00000  -0.00594  -0.00593   2.10505
   A29        2.09928  -0.00114   0.00000  -0.01530  -0.01532   2.08396
   A30        2.07287   0.00327   0.00000   0.02133   0.02131   2.09418
   A31        2.09498   0.00212   0.00000   0.01046   0.01044   2.10542
   A32        2.09307  -0.00223   0.00000  -0.01214  -0.01215   2.08092
   A33        2.09513   0.00011   0.00000   0.00168   0.00168   2.09681
   A34        2.09009  -0.00236   0.00000  -0.01408  -0.01409   2.07600
   A35        2.09680   0.00110   0.00000   0.00693   0.00693   2.10373
   A36        2.09627   0.00125   0.00000   0.00717   0.00717   2.10344
   A37        2.09489   0.00255   0.00000   0.01599   0.01601   2.11091
   A38        2.09655  -0.00025   0.00000  -0.00201  -0.00202   2.09453
   A39        2.09172  -0.00230   0.00000  -0.01400  -0.01402   2.07770
   A40        2.11188  -0.00312   0.00000  -0.01312  -0.01307   2.09881
   A41        2.09553  -0.00003   0.00000  -0.00461  -0.00465   2.09088
   A42        2.07548   0.00315   0.00000   0.01791   0.01787   2.09335
    D1        2.68383  -0.00223   0.00000  -0.11083  -0.11079   2.57304
    D2       -0.62322   0.00003   0.00000  -0.02563  -0.02498  -0.64820
    D3        0.51888  -0.00216   0.00000  -0.14053  -0.14118   0.37770
    D4       -2.78817   0.00010   0.00000  -0.05533  -0.05537  -2.84354
    D5        3.07940   0.00075   0.00000   0.01915   0.02014   3.09954
    D6       -0.07588   0.00050   0.00000   0.01538   0.01623  -0.05965
    D7        0.10317  -0.00145   0.00000  -0.06575  -0.06550   0.03766
    D8       -3.05211  -0.00170   0.00000  -0.06952  -0.06942  -3.12153
    D9       -3.08801  -0.00155   0.00000  -0.01239  -0.01121  -3.09923
   D10        0.06426  -0.00201   0.00000  -0.04493  -0.04365   0.02060
   D11       -0.11181   0.00174   0.00000   0.07728   0.07676  -0.03505
   D12        3.04046   0.00129   0.00000   0.04474   0.04432   3.08478
   D13       -0.03622   0.00034   0.00000   0.02377   0.02416  -0.01205
   D14        3.11736   0.00004   0.00000   0.00714   0.00723   3.12459
   D15        3.11891   0.00064   0.00000   0.02783   0.02845  -3.13582
   D16       -0.01070   0.00034   0.00000   0.01120   0.01152   0.00083
   D17       -0.02146   0.00023   0.00000   0.00525   0.00514  -0.01632
   D18       -3.13243  -0.00023   0.00000  -0.00740  -0.00773  -3.14016
   D19        3.10814   0.00052   0.00000   0.02180   0.02212   3.13026
   D20       -0.00283   0.00006   0.00000   0.00915   0.00924   0.00642
   D21        0.01130   0.00014   0.00000   0.00737   0.00725   0.01855
   D22       -3.07687  -0.00071   0.00000  -0.02607  -0.02646  -3.10333
   D23        3.12234   0.00063   0.00000   0.02020   0.02022  -3.14063
   D24        0.03417  -0.00022   0.00000  -0.01324  -0.01349   0.02067
   D25        0.05514  -0.00092   0.00000  -0.04778  -0.04780   0.00734
   D26       -3.09773  -0.00050   0.00000  -0.01368  -0.01301  -3.11074
   D27       -3.14101   0.00015   0.00000  -0.01219  -0.01285   3.12932
   D28       -0.01070   0.00057   0.00000   0.02191   0.02193   0.01124
   D29        2.87540   0.00069   0.00000  -0.02837  -0.02815   2.84726
   D30       -0.80530  -0.00049   0.00000  -0.00407  -0.00420  -0.80950
   D31       -0.25502   0.00023   0.00000  -0.06233  -0.06220  -0.31722
   D32        2.34745  -0.00096   0.00000  -0.03803  -0.03825   2.30920
   D33        2.45873   0.00195   0.00000   0.06429   0.06433   2.52306
   D34       -0.70369   0.00100   0.00000   0.02514   0.02535  -0.67835
   D35       -0.12018   0.00039   0.00000   0.02225   0.02204  -0.09814
   D36        3.00058  -0.00055   0.00000  -0.01690  -0.01694   2.98364
   D37        3.13847  -0.00144   0.00000  -0.04955  -0.04949   3.08898
   D38       -0.01476  -0.00093   0.00000  -0.03972  -0.03979  -0.05455
   D39        0.01690  -0.00047   0.00000  -0.01183  -0.01176   0.00515
   D40       -3.13633   0.00003   0.00000  -0.00200  -0.00206  -3.13838
   D41       -3.13667   0.00102   0.00000   0.03916   0.03927  -3.09741
   D42       -0.02158   0.00127   0.00000   0.04734   0.04738   0.02580
   D43       -0.01563   0.00004   0.00000   0.00040   0.00039  -0.01524
   D44        3.09946   0.00029   0.00000   0.00858   0.00851   3.10797
   D45       -0.00722   0.00066   0.00000   0.01577   0.01577   0.00854
   D46        3.13400   0.00030   0.00000   0.00726   0.00727   3.14127
   D47       -3.13735   0.00019   0.00000   0.00632   0.00625  -3.13110
   D48        0.00387  -0.00017   0.00000  -0.00218  -0.00224   0.00163
   D49       -0.00416  -0.00035   0.00000  -0.00779  -0.00787  -0.01203
   D50       -3.13977  -0.00040   0.00000  -0.01013  -0.01020   3.13322
   D51        3.13781   0.00001   0.00000   0.00073   0.00070   3.13851
   D52        0.00220  -0.00004   0.00000  -0.00161  -0.00163   0.00057
   D53        0.00542  -0.00008   0.00000  -0.00354  -0.00359   0.00183
   D54       -3.12852   0.00002   0.00000   0.00003   0.00002  -3.12849
   D55        3.14103  -0.00003   0.00000  -0.00121  -0.00127   3.13976
   D56        0.00710   0.00008   0.00000   0.00237   0.00235   0.00944
   D57        0.00467   0.00021   0.00000   0.00721   0.00724   0.01191
   D58       -3.11072   0.00001   0.00000  -0.00055  -0.00055  -3.11127
   D59        3.13863   0.00012   0.00000   0.00370   0.00371  -3.14085
   D60        0.02324  -0.00008   0.00000  -0.00406  -0.00408   0.01916
         Item               Value     Threshold  Converged?
 Maximum Force            0.015412     0.000450     NO 
 RMS     Force            0.002794     0.000300     NO 
 Maximum Displacement     0.228999     0.001800     NO 
 RMS     Displacement     0.068898     0.001200     NO 
 Predicted change in Energy=-3.303293D-03
 GradGradGradGradGradGradGradGradGradGradGradGradGradGradGradGradGradGrad

                          Input orientation:                          
 ---------------------------------------------------------------------
 Center     Atomic      Atomic             Coordinates (Angstroms)
 Number     Number       Type             X           Y           Z
 ---------------------------------------------------------------------
      1          7           0       -1.895423   -1.820481    1.804782
      2          6           0       -2.139069   -1.017094    0.682058
      3          6           0       -3.407462   -0.933613    0.095276
      4          6           0       -3.641096   -0.089529   -0.991805
      5          6           0       -2.605715    0.696058   -1.498145
      6          6           0       -1.343174    0.648818   -0.901671
      7          6           0       -1.095256   -0.194435    0.186401
      8          7           0        0.143980   -0.270346    0.863840
      9          6           0        1.384334    0.170556    0.387660
     10          6           0        2.309352    0.726789    1.289814
     11          6           0        3.575344    1.117064    0.857566
     12          6           0        3.946097    0.972739   -0.481538
     13          6           0        3.032017    0.416668   -1.380143
     14          6           0        1.767044    0.011352   -0.957195
     15          1           0       -0.955765   -2.205249    1.810089
     16          1           0       -2.576818   -2.560833    1.923832
     17          1           0       -4.210233   -1.551515    0.489563
     18          1           0       -4.629294   -0.053264   -1.440561
     19          1           0       -2.776398    1.357030   -2.342316
     20          1           0       -0.547312    1.285362   -1.271890
     21          1           0        0.047319   -0.228822    1.872186
     22          1           0        2.028383    0.852857    2.332358
     23          1           0        4.271895    1.544363    1.573370
     24          1           0        4.929813    1.284402   -0.818040
     25          1           0        3.306693    0.285199   -2.423015
     26          1           0        1.080744   -0.444077   -1.662474
 ---------------------------------------------------------------------
                    Distance matrix (angstroms):
                    1          2          3          4          5
     1  N    0.000000
     2  C    1.401893   0.000000
     3  C    2.448511   1.400037   0.000000
     4  C    3.723502   2.432752   1.395997   0.000000
     5  C    4.212696   2.811749   2.416116   1.394826   0.000000
     6  C    3.705038   2.432470   2.785548   2.415311   1.397148
     7  C    2.429701   1.418445   2.429193   2.807218   2.431493
     8  N    2.729003   2.408939   3.693690   4.219349   3.751497
     9  C    4.090143   3.729819   4.926052   5.217808   4.444424
    10  C    4.943067   4.816528   6.071722   6.424950   5.650800
    11  C    6.281375   6.102454   7.317509   7.546724   6.628130
    12  C    6.866781   6.507121   7.618511   7.678169   6.635984
    13  C    6.279192   5.748780   6.742923   6.703542   5.645885
    14  C    4.939412   4.359193   5.364341   5.409191   4.458976
    15  H    1.015397   2.020983   3.250916   4.420168   4.699397
    16  H    1.013209   2.028979   2.584847   3.967490   4.724204
    17  H    2.675909   2.147645   1.087063   2.157724   3.402506
    18  H    4.596668   3.411114   2.150973   1.085924   2.158627
    19  H    5.298218   3.897370   3.403989   2.159656   1.085653
    20  H    4.574885   3.413635   3.869554   3.397097   2.153020
    21  H    2.512403   2.611143   3.948373   4.671858   4.387838
    22  H    4.777167   4.856733   6.143648   6.639363   6.014333
    23  H    7.029334   6.961031   8.203514   8.477332   7.579931
    24  H    7.943761   7.583948   8.675476   8.682071   7.588997
    25  H    7.026390   6.402637   7.273731   7.103559   5.998396
    26  H    4.772203   4.023975   4.844927   4.782392   3.862239
                    6          7          8          9         10
     6  C    0.000000
     7  C    1.398728   0.000000
     8  N    2.484656   1.414352   0.000000
     9  C    3.054572   2.514377   1.399865   0.000000
    10  C    4.260238   3.695610   2.421687   1.406746   0.000000
    11  C    5.244615   4.897448   3.701243   2.432532   1.393517
    12  C    5.315808   5.217631   4.220354   2.821636   2.424275
    13  C    4.407394   4.456669   3.721318   2.429106   2.783359
    14  C    3.175358   3.089162   2.455577   1.407283   2.419710
    15  H    3.955935   2.588280   2.418404   3.625440   4.419108
    16  H    4.450529   3.288393   3.711153   5.050845   5.923267
    17  H    3.872599   3.411253   4.554190   5.854493   6.952413
    18  H    3.403220   3.893116   5.304859   6.289373   7.497215
    19  H    2.152012   3.409941   4.632105   5.115876   6.281276
    20  H    1.084272   2.148641   2.731200   2.779957   3.877481
    21  H    3.224594   2.036795   1.013820   2.037383   2.523716
    22  H    4.676321   3.931803   2.639906   2.159209   1.087076
    23  H    6.201357   5.809769   4.564678   3.410463   2.144856
    24  H    6.305658   6.284690   5.305673   3.907018   3.408929
    25  H    4.905911   5.139675   4.595084   3.407125   3.869727
    26  H    2.765613   2.866293   2.699995   2.161711   3.405350
                   11         12         13         14         15
    11  C    0.000000
    12  C    1.396956   0.000000
    13  C    2.406886   1.397228   0.000000
    14  C    2.790323   2.428742   1.394032   0.000000
    15  H    5.698772   6.275301   5.740595   4.470444   0.000000
    16  H    7.246581   7.798740   7.158267   5.812537   1.663487
    17  H    8.238443   8.593055   7.734322   6.345352   3.572494
    18  H    8.600415   8.689633   7.675948   6.414901   5.356545
    19  H    7.116281   6.985851   5.962194   4.936828   5.766022
    20  H    4.643189   4.573086   3.684827   2.660522   4.674376
    21  H    3.909964   4.710014   4.461247   3.319719   2.217272
    22  H    2.153579   3.407346   3.870427   3.405523   4.304639
    23  H    1.086344   2.157671   3.395914   3.876617   6.437706
    24  H    2.161075   1.085388   2.161146   3.412203   7.329717
    25  H    3.395053   2.156591   1.086422   2.143395   6.503079
    26  H    3.874376   3.407672   2.151293   1.084363   4.394063
                   16         17         18         19         20
    16  H    0.000000
    17  H    2.396642   0.000000
    18  H    4.671156   2.479062   0.000000
    19  H    5.795645   4.305236   2.497061   0.000000
    20  H    5.396735   4.956569   4.299179   2.473817   0.000000
    21  H    3.510988   4.667752   5.733744   5.315105   3.539994
    22  H    5.747003   6.935216   7.705883   6.722551   4.451053
    23  H    7.992516   9.094261   9.532437   8.065118   5.602441
    24  H    8.868664   9.658814   9.672301   7.855851   5.495897
    25  H    7.849246   8.268059   8.003727   6.177324   4.144728
    26  H    5.542563   5.818257   5.727697   4.310884   2.407090
                   21         22         23         24         25
    21  H    0.000000
    22  H    2.303563   0.000000
    23  H    4.591352   2.467304   0.000000
    24  H    5.776324   4.304595   2.493848   0.000000
    25  H    5.416317   4.956802   4.299791   2.491761   0.000000
    26  H    3.688919   4.305664   4.960648   4.303027   2.462745
                   26
    26  H    0.000000
 Stoichiometry    C12H12N2
 Framework group  C1[X(C12H12N2)]
 Deg. of freedom    72
 Full point group                 C1      NOp   1
 Largest Abelian subgroup         C1      NOp   1
 Largest concise Abelian subgroup C1      NOp   1
                         Standard orientation:                         
 ---------------------------------------------------------------------
 Center     Atomic      Atomic             Coordinates (Angstroms)
 Number     Number       Type             X           Y           Z
 ---------------------------------------------------------------------
      1          7           0       -2.218628    2.208255    0.465986
      2          6           0       -2.288994    0.834722    0.194401
      3          6           0       -3.512541    0.157948    0.123585
      4          6           0       -3.564146   -1.199708   -0.197220
      5          6           0       -2.386231   -1.896526   -0.466484
      6          6           0       -1.160515   -1.226813   -0.432910
      7          6           0       -1.094779    0.132649   -0.110446
      8          7           0        0.102426    0.885455   -0.091120
      9          6           0        1.406152    0.379377   -0.029443
     10          6           0        2.434377    1.040505   -0.725573
     11          6           0        3.752433    0.597691   -0.633193
     12          6           0        4.075987   -0.516988    0.144167
     13          6           0        3.058495   -1.174015    0.840783
     14          6           0        1.738133   -0.733158    0.765856
     15          1           0       -1.384295    2.458396    0.987857
     16          1           0       -3.043246    2.567802    0.932164
     17          1           0       -4.427717    0.703469    0.339376
     18          1           0       -4.523576   -1.707257   -0.230677
     19          1           0       -2.414626   -2.952182   -0.718328
     20          1           0       -0.247926   -1.759091   -0.676852
     21          1           0        0.022481    1.769267   -0.581339
     22          1           0        2.192935    1.903222   -1.341331
     23          1           0        4.528724    1.124873   -1.180546
     24          1           0        5.101972   -0.865185    0.208819
     25          1           0        3.292624   -2.035306    1.460197
     26          1           0        0.965830   -1.238071    1.335464
 ---------------------------------------------------------------------
 Rotational constants (GHZ):           1.6779967           0.3855116           0.3327765
 Standard basis: 6-31G(d,p) (6D, 7F)
 There are   270 symmetry adapted cartesian basis functions of A   symmetry.
 There are   270 symmetry adapted basis functions of A   symmetry.
   270 basis functions,   476 primitive gaussians,   270 cartesian basis functions
    49 alpha electrons       49 beta electrons
       nuclear repulsion energy       803.0362597567 Hartrees.
 NAtoms=   26 NActive=   26 NUniq=   26 SFac= 1.00D+00 NAtFMM=   60 NAOKFM=F Big=F
 Integral buffers will be    131072 words long.
 Raffenetti 2 integral format.
 Two-electron integral symmetry is turned on.
 ------------------------------------------------------------------------------
 Polarizable Continuum Model (PCM)
 =================================
 Model                : PCM.
 Atomic radii         : UFF (Universal Force Field).
 Polarization charges : Total charges.
 Charge compensation  : None.
 Solution method      : Matrix inversion.
 Cavity type          : Scaled VdW (van der Waals Surface) (Alpha=1.100).
 Cavity algorithm     : GePol (No added spheres)
                        Default sphere list used, NSphG=   26.
                        Lebedev-Laikov grids with approx.  5.0 points / Ang**2.
                        Smoothing algorithm: York/Karplus (Gamma=1.0000).
                        Polarization charges: spherical gaussians, with
                                              point-specific exponents (IZeta= 3).
                        Self-potential: point-specific (ISelfS= 7).
                        Self-field    : sphere-specific E.n sum rule (ISelfD= 2).
 1st derivatives      : Analytical E(r).r(x)/FMM algorithm (CHGder, D1EAlg=3).
                        Cavity 1st derivative terms included.
 Solvent              : Water, Eps=  78.355300 Eps(inf)=   1.777849
 ------------------------------------------------------------------------------
 One-electron integrals computed using PRISM.
 NBasis=   270 RedAO= T EigKep=  3.70D-04  NBF=   270
 NBsUse=   270 1.00D-06 EigRej= -1.00D+00 NBFU=   270
 Initial guess from the checkpoint file:  "NFCPRRWCTNLGSN-UHFFFAOYSA-N_conf_0_0.chk"
 B after Tr=    -0.000000    0.000000   -0.000000
         Rot=    0.999996   -0.001589    0.001920    0.001660 Ang=  -0.34 deg.
 ExpMin= 1.61D-01 ExpMax= 4.17D+03 ExpMxC= 6.27D+02 IAcc=2 IRadAn=         4 AccDes= 0.00D+00
 Harris functional with IExCor=  402 and IRadAn=       4 diagonalized for initial guess.
 HarFok:  IExCor=  402 AccDes= 0.00D+00 IRadAn=         4 IDoV= 1 UseB2=F ITyADJ=14
 ICtDFT=  3500011 ScaDFX=  1.000000  1.000000  1.000000  1.000000
 FoFCou: FMM=F IPFlag=           0 FMFlag=      100000 FMFlg1=           0
         NFxFlg=           0 DoJE=T BraDBF=F KetDBF=T FulRan=T
         wScrn=  0.000000 ICntrl=       500 IOpCl=  0 I1Cent=   200000004 NGrid=           0
         NMat0=    1 NMatS0=      1 NMatT0=    0 NMatD0=    1 NMtDS0=    0 NMtDT0=    0
 Petite list used in FoFCou.
 Keep R1 ints in memory in canonical form, NReq=679202228.
 Requested convergence on RMS density matrix=1.00D-08 within  32 cycles.
 Requested convergence on MAX density matrix=1.00D-06.
 Requested convergence on             energy=1.00D-06.
 No special actions if energy rises.
 Inv3:  Mode=1 IEnd=    12060075.
 Iteration    1 A*A^-1 deviation from unit magnitude is 7.33D-15 for    802.
 Iteration    1 A*A^-1 deviation from orthogonality  is 3.44D-15 for   1050    494.
 Iteration    1 A^-1*A deviation from unit magnitude is 7.33D-15 for    802.
[...]
 There are       410 points.  Will hold       410 in memory.
 LenV=  1073556314 MDV=  1073741824.
 Box volume = 8657.977 fraction occupied=0.188
 Integrated density= 6.2453418482917904D+01 error=-3.5546581517082096D+01
 Molar volume = 1626.010 bohr**3/mol (145.103 cm**3/mol)
 Recommended a0 for SCRF calculation =  4.75 angstrom (  8.97 bohr)
 ******************************Gaussian NBO Version 3.1******************************
             N A T U R A L   A T O M I C   O R B I T A L   A N D
          N A T U R A L   B O N D   O R B I T A L   A N A L Y S I S
 ******************************Gaussian NBO Version 3.1******************************
       /RESON  / : Allow strongly delocalized NBO set

 Analyzing the CI density

 Job title: NFCPRRWCTNLGSN-UHFFFAOYSA-N_conf_0                              

 Storage needed:    221024 in NPA (1073738236 available)
 GSVD:  LWork=       43140 too small for GESVD, short by       15300 words or       15300 for optimal perf.


 NATURAL POPULATIONS:  Natural atomic orbital occupancies 
                                                          
   NAO  Atom  No  lang   Type(AO)    Occupancy
 --------------------------------------------
     1    N    1  S      Cor( 1S)     1.99950
     2    N    1  S      Val( 2S)     1.37798
     3    N    1  S      Ryd( 3S)     0.00016
     4    N    1  S      Ryd( 4S)     0.00001
     5    N    1  px     Val( 2p)     1.43019
     6    N    1  px     Ryd( 3p)     0.00185
     7    N    1  py     Val( 2p)     1.36964
     8    N    1  py     Ryd( 3p)     0.00275
     9    N    1  pz     Val( 2p)     1.62154
    10    N    1  pz     Ryd( 3p)     0.00302
    11    N    1  dxy    Ryd( 3d)     0.00025
    12    N    1  dxz    Ryd( 3d)     0.00102
    13    N    1  dyz    Ryd( 3d)     0.00097
    14    N    1  dx2y2  Ryd( 3d)     0.00072
    15    N    1  dz2    Ryd( 3d)     0.00053

    16    C    2  S      Cor( 1S)     1.99895
    17    C    2  S      Val( 2S)     0.84766
    18    C    2  S      Ryd( 3S)     0.00115
    19    C    2  S      Ryd( 4S)     0.00009
    20    C    2  px     Val( 2p)     1.09193
    21    C    2  px     Ryd( 3p)     0.00424
    22    C    2  py     Val( 2p)     0.89730
    23    C    2  py     Ryd( 3p)     0.00591
    24    C    2  pz     Val( 2p)     0.94841
    25    C    2  pz     Ryd( 3p)     0.00106
    26    C    2  dxy    Ryd( 3d)     0.00091
    27    C    2  dxz    Ryd( 3d)     0.00110
    28    C    2  dyz    Ryd( 3d)     0.00123
    29    C    2  dx2y2  Ryd( 3d)     0.00115
    30    C    2  dz2    Ryd( 3d)     0.00060

    31    C    3  S      Cor( 1S)     1.99905
    32    C    3  S      Val( 2S)     0.94827
    33    C    3  S      Ryd( 3S)     0.00070
    34    C    3  S      Ryd( 4S)     0.00004
    35    C    3  px     Val( 2p)     1.13842
    36    C    3  px     Ryd( 3p)     0.00429
    37    C    3  py     Val( 2p)     1.10907
    38    C    3  py     Ryd( 3p)     0.00458
    39    C    3  pz     Val( 2p)     1.14377
    40    C    3  pz     Ryd( 3p)     0.00400
    41    C    3  dxy    Ryd( 3d)     0.00067
    42    C    3  dxz    Ryd( 3d)     0.00038
    43    C    3  dyz    Ryd( 3d)     0.00049
    44    C    3  dx2y2  Ryd( 3d)     0.00052
    45    C    3  dz2    Ryd( 3d)     0.00039

    46    C    4  S      Cor( 1S)     1.99912
    47    C    4  S      Val( 2S)     0.95843
    48    C    4  S      Ryd( 3S)     0.00053
    49    C    4  S      Ryd( 4S)     0.00003
    50    C    4  px     Val( 2p)     1.17108
    51    C    4  px     Ryd( 3p)     0.00488
    52    C    4  py     Val( 2p)     1.08497
    53    C    4  py     Ryd( 3p)     0.00483
    54    C    4  pz     Val( 2p)     1.04093
    55    C    4  pz     Ryd( 3p)     0.00399
    56    C    4  dxy    Ryd( 3d)     0.00068
    57    C    4  dxz    Ryd( 3d)     0.00036
    58    C    4  dyz    Ryd( 3d)     0.00055
    59    C    4  dx2y2  Ryd( 3d)     0.00065
    60    C    4  dz2    Ryd( 3d)     0.00043

    61    C    5  S      Cor( 1S)     1.99911
    62    C    5  S      Val( 2S)     0.96225
    63    C    5  S      Ryd( 3S)     0.00055
    64    C    5  S      Ryd( 4S)     0.00003
    65    C    5  px     Val( 2p)     1.05943
    66    C    5  px     Ryd( 3p)     0.00467
    67    C    5  py     Val( 2p)     1.18620
    68    C    5  py     Ryd( 3p)     0.00479
    69    C    5  pz     Val( 2p)     1.00726
    70    C    5  pz     Ryd( 3p)     0.00144
    71    C    5  dxy    Ryd( 3d)     0.00063
    72    C    5  dxz    Ryd( 3d)     0.00082
    73    C    5  dyz    Ryd( 3d)     0.00036
    74    C    5  dx2y2  Ryd( 3d)     0.00071
    75    C    5  dz2    Ryd( 3d)     0.00037

    76    C    6  S      Cor( 1S)     1.99907
    77    C    6  S      Val( 2S)     0.94667
    78    C    6  S      Ryd( 3S)     0.00076
    79    C    6  S      Ryd( 4S)     0.00004
    80    C    6  px     Val( 2p)     1.16981
    81    C    6  px     Ryd( 3p)     0.00391
    82    C    6  py     Val( 2p)     1.08318
    83    C    6  py     Ryd( 3p)     0.00491
    84    C    6  pz     Val( 2p)     1.13876
    85    C    6  pz     Ryd( 3p)     0.00599
    86    C    6  dxy    Ryd( 3d)     0.00049
    87    C    6  dxz    Ryd( 3d)     0.00042
    88    C    6  dyz    Ryd( 3d)     0.00054
    89    C    6  dx2y2  Ryd( 3d)     0.00067
    90    C    6  dz2    Ryd( 3d)     0.00038

    91    C    7  S      Cor( 1S)     1.99888
    92    C    7  S      Val( 2S)     0.82852
    93    C    7  S      Ryd( 3S)     0.00102
    94    C    7  S      Ryd( 4S)     0.00009
    95    C    7  px     Val( 2p)     0.90646
    96    C    7  px     Ryd( 3p)     0.00522
    97    C    7  py     Val( 2p)     1.06434
    98    C    7  py     Ryd( 3p)     0.00499
    99    C    7  pz     Val( 2p)     1.11231
   100    C    7  pz     Ryd( 3p)     0.00393
   101    C    7  dxy    Ryd( 3d)     0.00109
   102    C    7  dxz    Ryd( 3d)     0.00082
   103    C    7  dyz    Ryd( 3d)     0.00093
   104    C    7  dx2y2  Ryd( 3d)     0.00075
   105    C    7  dz2    Ryd( 3d)     0.00049

   106    N    8  S      Cor( 1S)     1.99937
   107    N    8  S      Val( 2S)     1.24621
   108    N    8  S      Ryd( 3S)     0.00057
   109    N    8  S      Ryd( 4S)     0.00002
   110    N    8  px     Val( 2p)     1.29275
   111    N    8  px     Ryd( 3p)     0.00140
   112    N    8  py     Val( 2p)     1.42053
   113    N    8  py     Ryd( 3p)     0.00256
   114    N    8  pz     Val( 2p)     1.49662
   115    N    8  pz     Ryd( 3p)     0.00300
   116    N    8  dxy    Ryd( 3d)     0.00057
   117    N    8  dxz    Ryd( 3d)     0.00102
   118    N    8  dyz    Ryd( 3d)     0.00056
   119    N    8  dx2y2  Ryd( 3d)     0.00071
   120    N    8  dz2    Ryd( 3d)     0.00042

   121    C    9  S      Cor( 1S)     1.99897
   122    C    9  S      Val( 2S)     0.83246
   123    C    9  S      Ryd( 3S)     0.00119
   124    C    9  S      Ryd( 4S)     0.00010
   125    C    9  px     Val( 2p)     0.89650
   126    C    9  px     Ryd( 3p)     0.00555
   127    C    9  py     Val( 2p)     1.08022
   128    C    9  py     Ryd( 3p)     0.00536
   129    C    9  pz     Val( 2p)     1.07911
   130    C    9  pz     Ryd( 3p)     0.00378
   131    C    9  dxy    Ryd( 3d)     0.00086
   132    C    9  dxz    Ryd( 3d)     0.00106
   133    C    9  dyz    Ryd( 3d)     0.00051
   134    C    9  dx2y2  Ryd( 3d)     0.00093
   135    C    9  dz2    Ryd( 3d)     0.00074

   136    C   10  S      Cor( 1S)     1.99907
   137    C   10  S      Val( 2S)     0.96062
   138    C   10  S      Ryd( 3S)     0.00062
   139    C   10  S      Ryd( 4S)     0.00004
   140    C   10  px     Val( 2p)     1.07257
   141    C   10  px     Ryd( 3p)     0.00398
   142    C   10  py     Val( 2p)     1.12750
   143    C   10  py     Ryd( 3p)     0.00336
   144    C   10  pz     Val( 2p)     1.05846
   145    C   10  pz     Ryd( 3p)     0.00206
   146    C   10  dxy    Ryd( 3d)     0.00071
   147    C   10  dxz    Ryd( 3d)     0.00076
   148    C   10  dyz    Ryd( 3d)     0.00048
   149    C   10  dx2y2  Ryd( 3d)     0.00049
   150    C   10  dz2    Ryd( 3d)     0.00035

   151    C   11  S      Cor( 1S)     1.99913
   152    C   11  S      Val( 2S)     0.95860
   153    C   11  S      Ryd( 3S)     0.00063
   154    C   11  S      Ryd( 4S)     0.00003
   155    C   11  px     Val( 2p)     1.12918
   156    C   11  px     Ryd( 3p)     0.00492
   157    C   11  py     Val( 2p)     1.09673
   158    C   11  py     Ryd( 3p)     0.00420
   159    C   11  pz     Val( 2p)     1.08857
   160    C   11  pz     Ryd( 3p)     0.00350
   161    C   11  dxy    Ryd( 3d)     0.00058
   162    C   11  dxz    Ryd( 3d)     0.00055
   163    C   11  dyz    Ryd( 3d)     0.00045
   164    C   11  dx2y2  Ryd( 3d)     0.00058
   165    C   11  dz2    Ryd( 3d)     0.00044

   166    C   12  S      Cor( 1S)     1.99910
   167    C   12  S      Val( 2S)     0.96206
   168    C   12  S      Ryd( 3S)     0.00052
   169    C   12  S      Ryd( 4S)     0.00003
   170    C   12  px     Val( 2p)     1.18496
   171    C   12  px     Ryd( 3p)     0.00469
   172    C   12  py     Val( 2p)     1.06879
   173    C   12  py     Ryd( 3p)     0.00440
   174    C   12  pz     Val( 2p)     1.04857
   175    C   12  pz     Ryd( 3p)     0.00401
   176    C   12  dxy    Ryd( 3d)     0.00057
   177    C   12  dxz    Ryd( 3d)     0.00043
   178    C   12  dyz    Ryd( 3d)     0.00040
   179    C   12  dx2y2  Ryd( 3d)     0.00064
   180    C   12  dz2    Ryd( 3d)     0.00052

   181    C   13  S      Cor( 1S)     1.99912
   182    C   13  S      Val( 2S)     0.96310
   183    C   13  S      Ryd( 3S)     0.00062
   184    C   13  S      Ryd( 4S)     0.00003
   185    C   13  px     Val( 2p)     1.06766
   186    C   13  px     Ryd( 3p)     0.00462
   187    C   13  py     Val( 2p)     1.12676
   188    C   13  py     Ryd( 3p)     0.00372
   189    C   13  pz     Val( 2p)     1.05801
   190    C   13  pz     Ryd( 3p)     0.00235
   191    C   13  dxy    Ryd( 3d)     0.00068
   192    C   13  dxz    Ryd( 3d)     0.00072
   193    C   13  dyz    Ryd( 3d)     0.00051
   194    C   13  dx2y2  Ryd( 3d)     0.00057
   195    C   13  dz2    Ryd( 3d)     0.00037

   196    C   14  S      Cor( 1S)     1.99906
   197    C   14  S      Val( 2S)     0.95271
   198    C   14  S      Ryd( 3S)     0.00071
   199    C   14  S      Ryd( 4S)     0.00004
   200    C   14  px     Val( 2p)     1.14684
   201    C   14  px     Ryd( 3p)     0.00396
   202    C   14  py     Val( 2p)     1.09231
   203    C   14  py     Ryd( 3p)     0.00502
   204    C   14  pz     Val( 2p)     1.11480
   205    C   14  pz     Ryd( 3p)     0.00460
   206    C   14  dxy    Ryd( 3d)     0.00051
   207    C   14  dxz    Ryd( 3d)     0.00053
   208    C   14  dyz    Ryd( 3d)     0.00047
   209    C   14  dx2y2  Ryd( 3d)     0.00056
   210    C   14  dz2    Ryd( 3d)     0.00041

   211    H   15  S      Val( 1S)     0.57372
   212    H   15  S      Ryd( 2S)     0.00231
   213    H   15  px     Ryd( 2p)     0.00046
   214    H   15  py     Ryd( 2p)     0.00030
   215    H   15  pz     Ryd( 2p)     0.00055

   216    H   16  S      Val( 1S)     0.57024
   217    H   16  S      Ryd( 2S)     0.00103
   218    H   16  px     Ryd( 2p)     0.00046
   219    H   16  py     Ryd( 2p)     0.00029
   220    H   16  pz     Ryd( 2p)     0.00047

   221    H   17  S      Val( 1S)     0.75882
   222    H   17  S      Ryd( 2S)     0.00094
   223    H   17  px     Ryd( 2p)     0.00030
   224    H   17  py     Ryd( 2p)     0.00014
   225    H   17  pz     Ryd( 2p)     0.00019

   226    H   18  S      Val( 1S)     0.75816
   227    H   18  S      Ryd( 2S)     0.00097
   228    H   18  px     Ryd( 2p)     0.00034
   229    H   18  py     Ryd( 2p)     0.00014
   230    H   18  pz     Ryd( 2p)     0.00015

   231    H   19  S      Val( 1S)     0.75499
   232    H   19  S      Ryd( 2S)     0.00080
   233    H   19  px     Ryd( 2p)     0.00007
   234    H   19  py     Ryd( 2p)     0.00041
   235    H   19  pz     Ryd( 2p)     0.00014

   236    H   20  S      Val( 1S)     0.75159
   237    H   20  S      Ryd( 2S)     0.00125
   238    H   20  px     Ryd( 2p)     0.00029
   239    H   20  py     Ryd( 2p)     0.00016
   240    H   20  pz     Ryd( 2p)     0.00023

   241    H   21  S      Val( 1S)     0.55783
   242    H   21  S      Ryd( 2S)     0.00374
   243    H   21  px     Ryd( 2p)     0.00015
   244    H   21  py     Ryd( 2p)     0.00053
   245    H   21  pz     Ryd( 2p)     0.00048

   246    H   22  S      Val( 1S)     0.75526
   247    H   22  S      Ryd( 2S)     0.00114
   248    H   22  px     Ryd( 2p)     0.00007
   249    H   22  py     Ryd( 2p)     0.00031
   250    H   22  pz     Ryd( 2p)     0.00022

   251    H   23  S      Val( 1S)     0.75600
   252    H   23  S      Ryd( 2S)     0.00079
   253    H   23  px     Ryd( 2p)     0.00025
   254    H   23  py     Ryd( 2p)     0.00018
   255    H   23  pz     Ryd( 2p)     0.00019

   256    H   24  S      Val( 1S)     0.75787
   257    H   24  S      Ryd( 2S)     0.00095
   258    H   24  px     Ryd( 2p)     0.00038
   259    H   24  py     Ryd( 2p)     0.00012
   260    H   24  pz     Ryd( 2p)     0.00012

   261    H   25  S      Val( 1S)     0.75410
   262    H   25  S      Ryd( 2S)     0.00085
   263    H   25  px     Ryd( 2p)     0.00008
   264    H   25  py     Ryd( 2p)     0.00031
   265    H   25  pz     Ryd( 2p)     0.00021

   266    H   26  S      Val( 1S)     0.75007
   267    H   26  S      Ryd( 2S)     0.00135
   268    H   26  px     Ryd( 2p)     0.00024
   269    H   26  py     Ryd( 2p)     0.00019
   270    H   26  pz     Ryd( 2p)     0.00022

 WARNING:  1 low occupancy (<1.9990e) core orbital  found on  C    2
           1 low occupancy (<1.9990e) core orbital  found on  C    7
           1 low occupancy (<1.9990e) core orbital  found on  C    9


 Summary of Natural Population Analysis:                  
                                                          
                                       Natural Population 
                Natural  -----------------------------------------------
    Atom  No    Charge         Core      Valence    Rydberg      Total
 -----------------------------------------------------------------------
      N    1   -0.81013      1.99950     5.79935    0.01128     7.81013
      C    2    0.19832      1.99895     3.78530    0.01744     5.80168
      C    3   -0.35464      1.99905     4.33953    0.01605     6.35464
      C    4   -0.27147      1.99912     4.25542    0.01693     6.27147
      C    5   -0.22865      1.99911     4.21515    0.01439     6.22865
      C    6   -0.35560      1.99907     4.33842    0.01811     6.35560
      C    7    0.07017      1.99888     3.91163    0.01932     5.92983
      N    8   -0.46631      1.99937     5.45611    0.01083     7.46631
      C    9    0.09264      1.99897     3.88829    0.02009     5.90736
      C   10   -0.23106      1.99907     4.21915    0.01285     6.23106
      C   11   -0.28809      1.99913     4.27307    0.01589     6.28809
      C   12   -0.27970      1.99910     4.26438    0.01621     6.27970
      C   13   -0.22884      1.99912     4.21553    0.01419     6.22884
      C   14   -0.32254      1.99906     4.30666    0.01682     6.32254
      H   15    0.42266      0.00000     0.57372    0.00362     0.57734
      H   16    0.42750      0.00000     0.57024    0.00225     0.57250
      H   17    0.23960      0.00000     0.75882    0.00158     0.76040
      H   18    0.24024      0.00000     0.75816    0.00160     0.75976
      H   19    0.24360      0.00000     0.75499    0.00141     0.75640
      H   20    0.24649      0.00000     0.75159    0.00192     0.75351
      H   21    0.43727      0.00000     0.55783    0.00490     0.56273
      H   22    0.24300      0.00000     0.75526    0.00174     0.75700
      H   23    0.24259      0.00000     0.75600    0.00142     0.75741
      H   24    0.24056      0.00000     0.75787    0.00157     0.75944
      H   25    0.24444      0.00000     0.75410    0.00146     0.75556
      H   26    0.24793      0.00000     0.75007    0.00200     0.75207
 =======================================================================
   * Total *    0.00000     27.98750    69.76663    0.24587    98.00000

                                 Natural Population      
 --------------------------------------------------------
   Core                      27.98750 ( 99.9554% of  28)
   Valence                   69.76663 ( 99.6666% of  70)
   Natural Minimal Basis     97.75413 ( 99.7491% of  98)
   Natural Rydberg Basis      0.24587 (  0.2509% of  98)
 --------------------------------------------------------

    Atom  No          Natural Electron Configuration
 ----------------------------------------------------------------------------
      N    1      [core]2S( 1.38)2p( 4.42)3p( 0.01)
      C    2      [core]2S( 0.85)2p( 2.94)3p( 0.01)
      C    3      [core]2S( 0.95)2p( 3.39)3p( 0.01)
      C    4      [core]2S( 0.96)2p( 3.30)3p( 0.01)
      C    5      [core]2S( 0.96)2p( 3.25)3p( 0.01)
      C    6      [core]2S( 0.95)2p( 3.39)3p( 0.01)
      C    7      [core]2S( 0.83)2p( 3.08)3p( 0.01)
      N    8      [core]2S( 1.25)2p( 4.21)3p( 0.01)
      C    9      [core]2S( 0.83)2p( 3.06)3p( 0.01)
      C   10      [core]2S( 0.96)2p( 3.26)3p( 0.01)
      C   11      [core]2S( 0.96)2p( 3.31)3p( 0.01)
      C   12      [core]2S( 0.96)2p( 3.30)3p( 0.01)
      C   13      [core]2S( 0.96)2p( 3.25)3p( 0.01)
      C   14      [core]2S( 0.95)2p( 3.35)3p( 0.01)
      H   15            1S( 0.57)
      H   16            1S( 0.57)
      H   17            1S( 0.76)
      H   18            1S( 0.76)
      H   19            1S( 0.75)
      H   20            1S( 0.75)
      H   21            1S( 0.56)
      H   22            1S( 0.76)
      H   23            1S( 0.76)
      H   24            1S( 0.76)
      H   25            1S( 0.75)
      H   26            1S( 0.75)


 NBO analysis skipped by request.
 1\1\GINC-CN11\SP\RB3LYP TD-FC\6-31G(d,p)\C12H12N2\QDUEZ\11-Jul-2024\0\
 \# TD(NStates=10, Root=1) B3LYP/6-31G** SCRF=(Solvent=water) volume po
 p=NPA density=current Geom=AllCheck Guess=Read\\NFCPRRWCTNLGSN-UHFFFAO
 YSA-N_conf_0\\0,1\N,0,-1.8670486683,-1.7970422494,1.8079799666\C,0,-2.
 1315642461,-1.0036040314,0.6824506644\C,0,-3.3924643866,-0.9759828034,
 0.0738346636\C,0,-3.647113794,-0.1388668727,-1.0139053348\C,0,-2.63753
 48918,0.6877506286,-1.5073863999\C,0,-1.3805994018,0.6872554822,-0.897
 8753564\C,0,-1.1096006478,-0.1524241409,0.1883242861\N,0,0.1247881322,
 -0.1801446832,0.8731825723\C,0,1.3747692431,0.2174511003,0.3917231567\
 C,0,2.3266354831,0.7215948934,1.2985939565\C,0,3.6074231773,1.06083207
 89,0.8686256506\C,0,3.9695021248,0.9202608004,-0.4736674625\C,0,3.0284
 012101,0.4194625979,-1.3768037136\C,0,1.7472714684,0.0638136598,-0.957
 558015\H,0,-0.9334776987,-2.1959781986,1.8013201139\H,0,-2.5578801904,
 -2.5221712554,1.9608447164\H,0,-4.1728560109,-1.6303153432,0.454306071
 \H,0,-4.6296218212,-0.1438784196,-1.4763351579\H,0,-2.8246649276,1.344
 2022773,-2.3515756491\H,0,-0.6033657814,1.3510276565,-1.2601558984\H,0
 ,0.0343309556,-0.1639477224,1.8821348858\H,0,2.0525126041,0.8457469068
 ,2.3432450094\H,0,4.32322616,1.4462802304,1.589299566\H,0,4.9650546509
 ,1.1934942315,-0.80859507\H,0,3.2936220708,0.2922090062,-2.4227489211\
 H,0,1.0402551862,-0.3470258301,-1.6692583007\\Version=EM64L-G16RevA.03
 \State=1-A\HF=-574.0387015\RMSD=5.227e-09\Dipole=-0.3279385,-1.1477958
 ,1.2112143\Quadrupole=-3.9253497,0.9352593,2.9900904,4.929019,-0.91351
 57,-4.5815884\PG=C01 [X(C12H12N2)]\\@


 GOOD SENSE ABOUT TRIVIALITIES IS BETTER THAN NONSENSE
 ABOUT THINGS THAT MATTER

                                       -- MAX BEERBOHM
 Job cpu time:       0 days  1 hours 20 minutes 22.6 seconds.
 Elapsed time:       0 days  0 hours 29 minutes 44.8 seconds.
 File lengths (MBytes):  RWF=    623 Int=      0 D2E=      0 Chk=     39 Scr=      1
 Normal termination of Gaussian 16 at Thu Jul 11 21:34:43 2024.
