 Entering Gaussian System, Link 0=g16
 Initial command:
 /opt/sw/arch/manual/gaussian/G16_A03/g16/l1.exe "/scratch/1032073.jesse.materianova.be/Gau-1940.inp" -scrdir="/scratch/1032073.jesse.materianova.be/"
 Entering Link 1 = /opt/sw/arch/manual/gaussian/G16_A03/g16/l1.exe PID=      1941.
  
 Copyright (c) 1988,1990,1992,1993,1995,1998,2003,2009,2016,
            Gaussian, Inc.  All Rights Reserved.
  
 This is part of the Gaussian(R) 16 program.  It is based on
 the Gaussian(R) 09 system (copyright 2009, Gaussian, Inc.),
 the Gaussian(R) 03 system (copyright 2003, Gaussian, Inc.),
 the Gaussian(R) 98 system (copyright 1998, Gaussian, Inc.),
 the Gaussian(R) 94 system (copyright 1995, Gaussian, Inc.),
 the Gaussian 92(TM) system (copyright 1992, Gaussian, Inc.),
 the Gaussian 90(TM) system (copyright 1990, Gaussian, Inc.),
 the Gaussian 88(TM) system (copyright 1988, Gaussian, Inc.),
 the Gaussian 86(TM) system (copyright 1986, Carnegie Mellon
 University), and the Gaussian 82(TM) system (copyright 1983,
 Carnegie Mellon University). Gaussian is a federally registered
 trademark of Gaussian, Inc.
  
 This software contains proprietary and confidential information,
 including trade secrets, belonging to Gaussian, Inc.
  
 This software is provided under written license and may be
 used, copied, transmitted, or stored only in accord with that
 written license.
  
 The following legend is applicable only to US Government
 contracts under FAR:
  
                    RESTRICTED RIGHTS LEGEND
  
 Use, reproduction and disclosure by the US Government is
 subject to restrictions as set forth in subparagraphs (a)
 and (c) of the Commercial Computer Software - Restricted
 Rights clause in FAR 52.227-19.
  
 Gaussian, Inc.
 340 Quinnipiac St., Bldg. 40, Wallingford CT 06492
  
  
 ---------------------------------------------------------------
 Warning -- This program may not be used in any manner that
 competes with the business of Gaussian, Inc. or will provide
 assistance to any competitor of Gaussian, Inc.  The licensee
 of this program is prohibited from giving any competitor of
 Gaussian, Inc. access to this program.  By using this program,
 the user acknowledges that Gaussian, Inc. is engaged in the
 business of creating and licensing software in the field of
 computational chemistry and represents and warrants to the
 licensee that it is not a competitor of Gaussian, Inc. and that
 it will not use this program in any manner prohibited above.
 ---------------------------------------------------------------
  

 Cite this work as:
 Gaussian 16, Revision A.03,
 M. J. Frisch, G. W. Trucks, H. B. Schlegel, G. E. Scuseria, 
 M. A. Robb, J. R. Cheeseman, G. Scalmani, V. Barone, 
 G. A. Petersson, H. Nakatsuji, X. Li, M. Caricato, A. V. Marenich, 
 J. Bloino, B. G. Janesko, R. Gomperts, B. Mennucci, H. P. Hratchian, 
 J. V. Ortiz, A. F. Izmaylov, J. L. Sonnenberg, D. Williams-Young, 
 F. Ding, F. Lipparini, F. Egidi, J. Goings, B. Peng, A. Petrone, 
 T. Henderson, D. Ranasinghe, V. G. Zakrzewski, J. Gao, N. Rega, 
 G. Zheng, W. Liang, M. Hada, M. Ehara, K. Toyota, R. Fukuda, 
 J. Hasegawa, M. Ishida, T. Nakajima, Y. Honda, O. Kitao, H. Nakai, 
 T. Vreven, K. Throssell, J. A. Montgomery, Jr., J. E. Peralta, 
 F. Ogliaro, M. J. Bearpark, J. J. Heyd, E. N. Brothers, K. N. Kudin, 
 V. N. Staroverov, T. A. Keith, R. Kobayashi, J. Normand, 
 K. Raghavachari, A. P. Rendell, J. C. Burant, S. S. Iyengar, 
 J. Tomasi, M. Cossi, J. M. Millam, M. Klene, C. Adamo, R. Cammi, 
 J. W. Ochterski, R. L. Martin, K. Morokuma, O. Farkas, 
 J. B. Foresman, and D. J. Fox, Gaussian, Inc., Wallingford CT, 2016.
 
 ******************************************
 Gaussian 16:  EM64L-G16RevA.03 25-Dec-2016
                11-Jul-2024 
 ******************************************
 %nprocshared=4
 Will use up to    4 processors via shared memory.
 %mem=8GB
 %Chk=NFCPRRWCTNLGSN-UHFFFAOYSA-N_conf_1_0.chk
 -------------------------------------------------------
 # opt=CalcFc B3LYP/6-31G** SCRF=(Solvent=water) scf=xqc
 -------------------------------------------------------
 1/10=4,18=20,19=15,26=3,38=1/1,3;
 2/9=110,12=2,17=6,18=5,40=1/2;
 3/5=1,6=6,7=101,11=2,25=1,30=1,70=2201,71=2,72=1,74=-5,140=1/1,2,3;
 4//1;
 5/5=2,8=3,13=1,38=5,53=1/2,8;
 8/6=4,10=90,11=11/1;
 11/6=1,8=1,9=11,15=111,16=1/1,2,10;
 10/6=1,13=1/2;
 6/7=2,8=2,9=2,10=2,28=1/1;
 7/10=1,18=20,25=1/1,2,3,16;
 1/10=4,18=20,19=15,26=3/3(2);
 2/9=110/2;
 99//99;
 2/9=110/2;
 3/5=1,6=6,7=101,11=2,25=1,30=1,70=2205,71=1,72=1,74=-5/1,2,3;
 4/5=5,16=3,69=1/1;
 5/5=2,8=3,13=1,38=5,53=1/2,8;
 7//1,2,3,16;
 1/18=20,19=15,26=3/3(-5);
 2/9=110/2;
 6/7=2,8=2,9=2,10=2,19=2,28=1/1;
 99/9=1/99;
 ----------------------------------
 NFCPRRWCTNLGSN-UHFFFAOYSA-N_conf_1
 ----------------------------------
 Symbolic Z-matrix:
 Charge =  0 Multiplicity = 1
 N                     2.25188  -2.21864   0.15319 
 C                     2.26753  -0.87673  -0.26872 
 C                     3.48872  -0.20532  -0.38447 
 C                     3.52354   1.15603  -0.69055 
 C                     2.33554   1.86196  -0.86318 
 C                     1.1098    1.2114   -0.71369 
 C                     1.06074  -0.14863  -0.37484 
 N                    -0.17602  -0.85851  -0.32334 
 C                    -1.40643  -0.36313   0.17252 
 C                    -2.61205  -0.85103  -0.35005 
 C                    -3.84029  -0.42486   0.16346 
 C                    -3.87766   0.47437   1.22634 
 C                    -2.68811   0.93598   1.78395 
 C                    -1.4619    0.50852   1.26798 
 H                     1.32925  -2.63602   0.06182 
 H                     3.01079  -2.78479  -0.2054 
 H                     4.42163  -0.73915  -0.22675 
 H                     4.47864   1.6655   -0.78701 
 H                     2.36111   2.91979  -1.11103 
 H                     0.1917    1.77229  -0.86683 
 H                    -0.30866  -1.30347  -1.22891 
 H                    -2.60775  -1.56693  -1.16734 
 H                    -4.76652  -0.80255  -0.26136 
 H                    -4.83166   0.80279   1.63005 
 H                    -2.71001   1.61882   2.62901 
 H                    -0.54379   0.8523    1.7385 
 

 GradGradGradGradGradGradGradGradGradGradGradGradGradGradGradGradGradGrad
 Berny optimization.
 Initialization pass.
                           ----------------------------
                           !    Initial Parameters    !
                           ! (Angstroms and Degrees)  !
 --------------------------                            --------------------------
 ! Name  Definition              Value          Derivative Info.                !
 --------------------------------------------------------------------------------
 ! R1    R(1,2)                  1.4068         calculate D2E/DX2 analytically  !
 ! R2    R(1,15)                 1.0168         calculate D2E/DX2 analytically  !
 ! R3    R(1,16)                 1.0125         calculate D2E/DX2 analytically  !
 ! R4    R(2,3)                  1.3984         calculate D2E/DX2 analytically  !
 ! R5    R(2,7)                  1.4134         calculate D2E/DX2 analytically  !
 ! R6    R(3,4)                  1.3958         calculate D2E/DX2 analytically  !
 ! R7    R(3,17)                 1.0864         calculate D2E/DX2 analytically  !
 ! R8    R(4,5)                  1.3927         calculate D2E/DX2 analytically  !
 ! R9    R(4,18)                 1.0868         calculate D2E/DX2 analytically  !
 ! R10   R(5,6)                  1.3957         calculate D2E/DX2 analytically  !
 ! R11   R(5,19)                 1.0868         calculate D2E/DX2 analytically  !
 ! R12   R(6,7)                  1.4025         calculate D2E/DX2 analytically  !
 ! R13   R(6,20)                 1.0867         calculate D2E/DX2 analytically  !
 ! R14   R(7,8)                  1.4269         calculate D2E/DX2 analytically  !
 ! R15   R(8,9)                  1.416          calculate D2E/DX2 analytically  !
 ! R16   R(8,21)                 1.0177         calculate D2E/DX2 analytically  !
 ! R17   R(9,10)                 1.4017         calculate D2E/DX2 analytically  !
 ! R18   R(9,14)                 1.401          calculate D2E/DX2 analytically  !
 ! R19   R(10,11)                1.3978         calculate D2E/DX2 analytically  !
 ! R20   R(10,22)                1.0865         calculate D2E/DX2 analytically  !
 ! R21   R(11,12)                1.3927         calculate D2E/DX2 analytically  !
 ! R22   R(11,23)                1.0867         calculate D2E/DX2 analytically  !
 ! R23   R(12,13)                1.3925         calculate D2E/DX2 analytically  !
 ! R24   R(12,24)                1.0867         calculate D2E/DX2 analytically  !
 ! R25   R(13,14)                1.3973         calculate D2E/DX2 analytically  !
 ! R26   R(13,25)                1.0867         calculate D2E/DX2 analytically  !
 ! R27   R(14,26)                1.0874         calculate D2E/DX2 analytically  !
 ! A1    A(2,1,15)             112.0072         calculate D2E/DX2 analytically  !
 ! A2    A(2,1,16)             114.7615         calculate D2E/DX2 analytically  !
 ! A3    A(15,1,16)            114.7596         calculate D2E/DX2 analytically  !
 ! A4    A(1,2,3)              119.508          calculate D2E/DX2 analytically  !
 ! A5    A(1,2,7)              120.292          calculate D2E/DX2 analytically  !
 ! A6    A(3,2,7)              119.4765         calculate D2E/DX2 analytically  !
 ! A7    A(2,3,4)              120.5464         calculate D2E/DX2 analytically  !
 ! A8    A(2,3,17)             120.1307         calculate D2E/DX2 analytically  !
 ! A9    A(4,3,17)             119.3203         calculate D2E/DX2 analytically  !
 ! A10   A(3,4,5)              120.0195         calculate D2E/DX2 analytically  !
 ! A11   A(3,4,18)             119.9089         calculate D2E/DX2 analytically  !
 ! A12   A(5,4,18)             120.0701         calculate D2E/DX2 analytically  !
 ! A13   A(4,5,6)              119.9744         calculate D2E/DX2 analytically  !
 ! A14   A(4,5,19)             120.1058         calculate D2E/DX2 analytically  !
 ! A15   A(6,5,19)             119.9196         calculate D2E/DX2 analytically  !
 ! A16   A(5,6,7)              120.5712         calculate D2E/DX2 analytically  !
 ! A17   A(5,6,20)             119.096          calculate D2E/DX2 analytically  !
 ! A18   A(7,6,20)             120.3325         calculate D2E/DX2 analytically  !
 ! A19   A(2,7,6)              119.1978         calculate D2E/DX2 analytically  !
 ! A20   A(2,7,8)              118.7531         calculate D2E/DX2 analytically  !
 ! A21   A(6,7,8)              121.4308         calculate D2E/DX2 analytically  !
 ! A22   A(7,8,9)              126.2778         calculate D2E/DX2 analytically  !
 ! A23   A(7,8,21)             107.3598         calculate D2E/DX2 analytically  !
 ! A24   A(9,8,21)             110.5671         calculate D2E/DX2 analytically  !
 ! A25   A(8,9,10)             119.6735         calculate D2E/DX2 analytically  !
 ! A26   A(8,9,14)             121.7255         calculate D2E/DX2 analytically  !
 ! A27   A(10,9,14)            118.295          calculate D2E/DX2 analytically  !
 ! A28   A(9,10,11)            120.8443         calculate D2E/DX2 analytically  !
 ! A29   A(9,10,22)            120.4242         calculate D2E/DX2 analytically  !
 ! A30   A(11,10,22)           118.731          calculate D2E/DX2 analytically  !
 ! A31   A(10,11,12)           120.0516         calculate D2E/DX2 analytically  !
 ! A32   A(10,11,23)           119.956          calculate D2E/DX2 analytically  !
 ! A33   A(12,11,23)           119.99           calculate D2E/DX2 analytically  !
 ! A34   A(11,12,13)           119.7829         calculate D2E/DX2 analytically  !
 ! A35   A(11,12,24)           120.145          calculate D2E/DX2 analytically  !
 ! A36   A(13,12,24)           120.0649         calculate D2E/DX2 analytically  !
 ! A37   A(12,13,14)           120.0243         calculate D2E/DX2 analytically  !
 ! A38   A(12,13,25)           120.165          calculate D2E/DX2 analytically  !
 ! A39   A(14,13,25)           119.8059         calculate D2E/DX2 analytically  !
 ! A40   A(9,14,13)            120.9165         calculate D2E/DX2 analytically  !
 ! A41   A(9,14,26)            120.1041         calculate D2E/DX2 analytically  !
 ! A42   A(13,14,26)           118.9744         calculate D2E/DX2 analytically  !
 ! D1    D(15,1,2,3)          -171.2683         calculate D2E/DX2 analytically  !
 ! D2    D(15,1,2,7)            18.5262         calculate D2E/DX2 analytically  !
 ! D3    D(16,1,2,3)           -38.1202         calculate D2E/DX2 analytically  !
 ! D4    D(16,1,2,7)           151.6743         calculate D2E/DX2 analytically  !
 ! D5    D(1,2,3,4)           -174.5315         calculate D2E/DX2 analytically  !
 ! D6    D(1,2,3,17)             4.8731         calculate D2E/DX2 analytically  !
 ! D7    D(7,2,3,4)             -4.2454         calculate D2E/DX2 analytically  !
 ! D8    D(7,2,3,17)           175.1592         calculate D2E/DX2 analytically  !
 ! D9    D(1,2,7,6)            175.9017         calculate D2E/DX2 analytically  !
 ! D10   D(1,2,7,8)            -12.9805         calculate D2E/DX2 analytically  !
 ! D11   D(3,2,7,6)              5.6931         calculate D2E/DX2 analytically  !
 ! D12   D(3,2,7,8)            176.8109         calculate D2E/DX2 analytically  !
 ! D13   D(2,3,4,5)              0.9896         calculate D2E/DX2 analytically  !
 ! D14   D(2,3,4,18)          -179.4389         calculate D2E/DX2 analytically  !
 ! D15   D(17,3,4,5)          -178.4198         calculate D2E/DX2 analytically  !
 ! D16   D(17,3,4,18)            1.1517         calculate D2E/DX2 analytically  !
 ! D17   D(3,4,5,6)              0.7937         calculate D2E/DX2 analytically  !
 ! D18   D(3,4,5,19)          -179.4057         calculate D2E/DX2 analytically  !
 ! D19   D(18,4,5,6)          -178.7771         calculate D2E/DX2 analytically  !
 ! D20   D(18,4,5,19)            1.0235         calculate D2E/DX2 analytically  !
 ! D21   D(4,5,6,7)              0.7355         calculate D2E/DX2 analytically  !
 ! D22   D(4,5,6,20)          -179.0557         calculate D2E/DX2 analytically  !
 ! D23   D(19,5,6,7)          -179.0655         calculate D2E/DX2 analytically  !
 ! D24   D(19,5,6,20)            1.1433         calculate D2E/DX2 analytically  !
 ! D25   D(5,6,7,2)             -3.9769         calculate D2E/DX2 analytically  !
 ! D26   D(5,6,7,8)           -174.8487         calculate D2E/DX2 analytically  !
 ! D27   D(20,6,7,2)           175.8117         calculate D2E/DX2 analytically  !
 ! D28   D(20,6,7,8)             4.9399         calculate D2E/DX2 analytically  !
 ! D29   D(2,7,8,9)            149.8549         calculate D2E/DX2 analytically  !
 ! D30   D(2,7,8,21)           -76.8291         calculate D2E/DX2 analytically  !
 ! D31   D(6,7,8,9)            -39.2338         calculate D2E/DX2 analytically  !
 ! D32   D(6,7,8,21)            94.0822         calculate D2E/DX2 analytically  !
 ! D33   D(7,8,9,10)           150.9447         calculate D2E/DX2 analytically  !
 ! D34   D(7,8,9,14)           -35.5175         calculate D2E/DX2 analytically  !
 ! D35   D(21,8,9,10)           18.8225         calculate D2E/DX2 analytically  !
 ! D36   D(21,8,9,14)         -167.6398         calculate D2E/DX2 analytically  !
 ! D37   D(8,9,10,11)          177.0374         calculate D2E/DX2 analytically  !
 ! D38   D(8,9,10,22)           -3.2129         calculate D2E/DX2 analytically  !
 ! D39   D(14,9,10,11)           3.2791         calculate D2E/DX2 analytically  !
 ! D40   D(14,9,10,22)        -176.9713         calculate D2E/DX2 analytically  !
 ! D41   D(8,9,14,13)         -176.8768         calculate D2E/DX2 analytically  !
 ! D42   D(8,9,14,26)            2.2976         calculate D2E/DX2 analytically  !
 ! D43   D(10,9,14,13)          -3.2532         calculate D2E/DX2 analytically  !
 ! D44   D(10,9,14,26)         175.9212         calculate D2E/DX2 analytically  !
 ! D45   D(9,10,11,12)          -1.3607         calculate D2E/DX2 analytically  !
 ! D46   D(9,10,11,23)         179.1898         calculate D2E/DX2 analytically  !
 ! D47   D(22,10,11,12)        178.8855         calculate D2E/DX2 analytically  !
 ! D48   D(22,10,11,23)         -0.564          calculate D2E/DX2 analytically  !
 ! D49   D(10,11,12,13)         -0.6659         calculate D2E/DX2 analytically  !
 ! D50   D(10,11,12,24)       -179.6877         calculate D2E/DX2 analytically  !
 ! D51   D(23,11,12,13)        178.7835         calculate D2E/DX2 analytically  !
 ! D52   D(23,11,12,24)         -0.2383         calculate D2E/DX2 analytically  !
 ! D53   D(11,12,13,14)          0.6937         calculate D2E/DX2 analytically  !
 ! D54   D(11,12,13,25)       -178.5074         calculate D2E/DX2 analytically  !
 ! D55   D(24,12,13,14)        179.7164         calculate D2E/DX2 analytically  !
 ! D56   D(24,12,13,25)          0.5152         calculate D2E/DX2 analytically  !
 ! D57   D(12,13,14,9)           1.3059         calculate D2E/DX2 analytically  !
 ! D58   D(12,13,14,26)       -177.8777         calculate D2E/DX2 analytically  !
 ! D59   D(25,13,14,9)        -179.4901         calculate D2E/DX2 analytically  !
 ! D60   D(25,13,14,26)          1.3264         calculate D2E/DX2 analytically  !
 --------------------------------------------------------------------------------
 Trust Radius=3.00D-01 FncErr=1.00D-07 GrdErr=1.00D-06 EigMax=2.50D+02 EigMin=1.00D-04
 Number of steps in this run=    139 maximum allowed number of steps=    156.
 GradGradGradGradGradGradGradGradGradGradGradGradGradGradGradGradGradGrad

                          Input orientation:                          
 ---------------------------------------------------------------------
 Center     Atomic      Atomic             Coordinates (Angstroms)
 Number     Number       Type             X           Y           Z
 ---------------------------------------------------------------------
      1          7           0        2.251876   -2.218639    0.153190
      2          6           0        2.267530   -0.876733   -0.268717
      3          6           0        3.488717   -0.205315   -0.384467
      4          6           0        3.523543    1.156028   -0.690546
      5          6           0        2.335541    1.861961   -0.863177
      6          6           0        1.109797    1.211397   -0.713685
      7          6           0        1.060741   -0.148631   -0.374839
      8          7           0       -0.176017   -0.858511   -0.323339
      9          6           0       -1.406429   -0.363131    0.172518
     10          6           0       -2.612049   -0.851033   -0.350045
     11          6           0       -3.840294   -0.424858    0.163460
     12          6           0       -3.877660    0.474369    1.226338
     13          6           0       -2.688110    0.935984    1.783947
     14          6           0       -1.461905    0.508517    1.267984
     15          1           0        1.329250   -2.636016    0.061824
     16          1           0        3.010789   -2.784789   -0.205405
     17          1           0        4.421627   -0.739150   -0.226749
     18          1           0        4.478644    1.665501   -0.787006
     19          1           0        2.361105    2.919793   -1.111030
     20          1           0        0.191700    1.772295   -0.866827
     21          1           0       -0.308662   -1.303468   -1.228912
     22          1           0       -2.607755   -1.566935   -1.167343
     23          1           0       -4.766523   -0.802546   -0.261359
     24          1           0       -4.831658    0.802793    1.630051
     25          1           0       -2.710010    1.618816    2.629010
     26          1           0       -0.543790    0.852300    1.738500
 ---------------------------------------------------------------------
                    Distance matrix (angstroms):
                    1          2          3          4          5
     1  N    0.000000
     2  C    1.406756   0.000000
     3  C    2.423288   1.398391   0.000000
     4  C    3.703702   2.426443   1.395763   0.000000
     5  C    4.206102   2.803293   2.415080   1.392656   0.000000
     6  C    3.717656   2.428709   2.788318   2.414491   1.395718
     7  C    2.445925   1.413412   2.428657   2.804853   2.430241
     8  N    2.823419   2.444226   3.722994   4.228470   3.741700
     9  C    4.102009   3.735833   4.929259   5.230425   4.475046
    10  C    5.077535   4.880325   6.134940   6.464497   5.665888
    11  C    6.350771   6.139746   7.352743   7.579882   6.665167
    12  C    6.780498   6.467150   7.571009   7.675735   6.700399
    13  C    6.083952   5.661956   6.645132   6.690005   5.753414
    14  C    4.740497   4.264863   5.267714   5.395350   4.560072
    15  H    1.016755   2.021065   3.281887   4.445287   4.701068
    16  H    1.012455   2.048687   2.629480   4.003538   4.741404
    17  H    2.653500   2.158894   1.086359   2.147875   3.394492
    18  H    4.574823   3.408900   2.154517   1.086778   2.153437
    19  H    5.292794   3.889968   3.400838   2.153818   1.086781
    20  H    4.605683   3.418209   3.874782   3.392939   2.145718
    21  H    3.050262   2.782237   4.042167   4.585275   4.140713
    22  H    5.077848   5.005229   6.295544   6.725673   6.023788
    23  H    7.171826   7.034448   8.277731   8.529091   7.609276
    24  H    7.841341   7.538210   8.619932   8.678671   7.662034
    25  H    6.743594   6.276981   7.129707   7.077486   6.141016
    26  H    4.445180   3.862900   4.678318   4.747179   4.009824
                    6          7          8          9         10
     6  C    0.000000
     7  C    1.402462   0.000000
     8  N    2.467835   1.426938   0.000000
     9  C    3.097723   2.536245   1.416047   0.000000
    10  C    4.270596   3.739434   2.436189   1.401656   0.000000
    11  C    5.286787   4.938240   3.721821   2.434664   1.397819
    12  C    5.402002   5.228738   4.228501   2.814058   2.417322
    13  C    4.553913   4.459891   3.737844   2.434565   2.784445
    14  C    3.321853   3.081307   2.460606   1.401033   2.406081
    15  H    3.930923   2.539656   2.360869   3.558398   4.346221
    16  H    4.454393   3.283401   3.725613   5.051640   5.947827
    17  H    3.874269   3.415582   4.600208   5.853806   7.035647
    18  H    3.400105   3.891403   5.315214   6.298422   7.536697
    19  H    2.154593   3.412939   4.618769   5.159399   6.287327
    20  H    1.086721   2.165004   2.711408   2.862568   3.874263
    21  H    2.932922   1.984528   1.017665   2.013289   2.506531
    22  H    4.663167   4.012171   2.669748   2.165077   1.086513
    23  H    6.228299   5.864937   4.591265   3.416367   2.156843
    24  H    6.400075   6.296441   5.315135   3.900766   3.403320
    25  H    5.092203   5.134739   4.612443   3.414936   3.870984
    26  H    2.979348   2.835945   2.704314   2.161879   3.397214
                   11         12         13         14         15
    11  C    0.000000
    12  C    1.392737   0.000000
    13  C    2.409439   1.392496   0.000000
    14  C    2.783505   2.416355   1.397328   0.000000
    15  H    5.623498   6.175961   5.644827   4.374180   0.000000
    16  H    7.255527   7.753885   7.090777   5.746453   1.709128
    17  H    8.277100   8.512477   7.576103   6.197326   3.639254
    18  H    8.630047   8.677567   7.648815   6.391535   5.398355
    19  H    7.160193   7.096871   6.149062   5.107775   5.771250
    20  H    4.705948   4.756641   4.002415   2.981436   4.646463
    21  H    3.896547   4.682596   4.444574   3.293592   2.474760
    22  H    2.143485   3.392535   3.870552   3.398720   4.260727
    23  H    1.086747   2.152634   3.394932   3.870178   6.373736
    24  H    2.154257   1.086720   2.153189   3.401901   7.227831
    25  H    3.396039   2.154217   1.086678   2.154744   6.403878
    26  H    3.870249   3.394088   2.146434   1.087432   4.299752
                   16         17         18         19         20
    16  H    0.000000
    17  H    2.485067   0.000000
    18  H    4.722069   2.469713   0.000000
    19  H    5.812443   4.291336   2.482380   0.000000
    20  H    5.399237   4.960780   4.289017   2.466314   0.000000
    21  H    3.776325   4.868102   5.650518   4.997748   3.137162
    22  H    5.828939   7.140179   7.798099   6.695033   4.367804
    23  H    8.026145   9.188434   9.583354   8.085841   5.619641
    24  H    8.817235   9.562876   9.657545   7.983174   5.692843
    25  H    7.755848   8.035895   7.959152   6.434023   4.545806
    26  H    5.444466   5.572278   5.680169   4.564292   2.859207
                   21         22         23         24         25
    21  H    0.000000
    22  H    2.314959   0.000000
    23  H    4.589075   2.462799   0.000000
    24  H    5.750435   4.287980   2.481691   0.000000
    25  H    5.402756   4.956991   4.294935   2.482983   0.000000
    26  H    3.675344   4.307735   4.956756   4.289526   2.464359
                   26
    26  H    0.000000
 Stoichiometry    C12H12N2
 Framework group  C1[X(C12H12N2)]
 Deg. of freedom    72
 Full point group                 C1      NOp   1
 Largest Abelian subgroup         C1      NOp   1
 Largest concise Abelian subgroup C1      NOp   1
                         Standard orientation:                         
 ---------------------------------------------------------------------
 Center     Atomic      Atomic             Coordinates (Angstroms)
 Number     Number       Type             X           Y           Z
 ---------------------------------------------------------------------
      1          7           0       -2.159348    2.159531    0.703665
      2          6           0       -2.263515    0.848019    0.205621
      3          6           0       -3.483784    0.171261    0.297492
      4          6           0       -3.583045   -1.167451   -0.084804
      5          6           0       -2.456840   -1.846516   -0.543086
      6          6           0       -1.225243   -1.192720   -0.604321
      7          6           0       -1.105348    0.142704   -0.193018
      8          7           0        0.117084    0.862226   -0.348265
      9          6           0        1.422016    0.350003   -0.148346
     10          6           0        2.496059    0.885237   -0.872637
     11          6           0        3.802611    0.440886   -0.650440
     12          6           0        4.055064   -0.525463    0.320205
     13          6           0        3.003973   -1.036572    1.077186
     14          6           0        1.698917   -0.590747    0.852258
     15          1           0       -1.274182    2.592843    0.453640
     16          1           0       -2.974538    2.738945    0.546157
     17          1           0       -4.363670    0.682593    0.677644
     18          1           0       -4.538614   -1.680746   -0.017702
     19          1           0       -2.534556   -2.886089   -0.850235
     20          1           0       -0.358969   -1.731529   -0.978775
     21          1           0        0.062395    1.367021   -1.230214
     22          1           0        2.325902    1.652987   -1.622382
     23          1           0        4.622980    0.856460   -1.229502
     24          1           0        5.070886   -0.868329    0.497713
     25          1           0        3.197108   -1.772934    1.852647
     26          1           0        0.895907   -0.975385    1.476546
 ---------------------------------------------------------------------
 Rotational constants (GHZ):           1.6652515           0.3780194           0.3373732
 Standard basis: 6-31G(d,p) (6D, 7F)
 There are   270 symmetry adapted cartesian basis functions of A   symmetry.
 There are   270 symmetry adapted basis functions of A   symmetry.
   270 basis functions,   476 primitive gaussians,   270 cartesian basis functions
    49 alpha electrons       49 beta electrons
       nuclear repulsion energy       801.2830053342 Hartrees.
 NAtoms=   26 NActive=   26 NUniq=   26 SFac= 1.00D+00 NAtFMM=   60 NAOKFM=F Big=F
 Integral buffers will be    131072 words long.
 Raffenetti 2 integral format.
 Two-electron integral symmetry is turned on.
 Force inversion solution in PCM.
 ------------------------------------------------------------------------------
 Polarizable Continuum Model (PCM)
 =================================
 Model                : PCM.
 Atomic radii         : UFF (Universal Force Field).
 Polarization charges : Total charges.
 Charge compensation  : None.
 Solution method      : Matrix inversion.
 Cavity type          : Scaled VdW (van der Waals Surface) (Alpha=1.100).
 Cavity algorithm     : GePol (No added spheres)
                        Default sphere list used, NSphG=   26.
                        Lebedev-Laikov grids with approx.  5.0 points / Ang**2.
                        Smoothing algorithm: York/Karplus (Gamma=1.0000).
                        Polarization charges: spherical gaussians, with
                                              point-specific exponents (IZeta= 3).
                        Self-potential: point-specific (ISelfS= 7).
                        Self-field    : sphere-specific E.n sum rule (ISelfD= 2).
 1st derivatives      : Analytical E(r).r(x)/FMM algorithm (CHGder, D1EAlg=3).
                        Cavity 1st derivative terms included.
 2nd derivatives      : Analytical E(r).r(xy)/FMM algorithm (CHGder, D2EAlg=3).
                        Cavity 2nd derivative terms included.
 Solvent              : Water, Eps=  78.355300 Eps(inf)=   1.777849
 ------------------------------------------------------------------------------
 One-electron integrals computed using PRISM.
 NBasis=   270 RedAO= T EigKep=  4.09D-04  NBF=   270
 NBsUse=   270 1.00D-06 EigRej= -1.00D+00 NBFU=   270
 ExpMin= 1.61D-01 ExpMax= 4.17D+03 ExpMxC= 6.27D+02 IAcc=3 IRadAn=         5 AccDes= 0.00D+00
 Harris functional with IExCor=  402 and IRadAn=       5 diagonalized for initial guess.
 HarFok:  IExCor=  402 AccDes= 0.00D+00 IRadAn=         5 IDoV= 1 UseB2=F ITyADJ=14
 ICtDFT=  3500011 ScaDFX=  1.000000  1.000000  1.000000  1.000000
 FoFCou: FMM=F IPFlag=           0 FMFlag=      100000 FMFlg1=           0
         NFxFlg=           0 DoJE=T BraDBF=F KetDBF=T FulRan=T
         wScrn=  0.000000 ICntrl=       500 IOpCl=  0 I1Cent=   200000004 NGrid=           0
         NMat0=    1 NMatS0=      1 NMatT0=    0 NMatD0=    1 NMtDS0=    0 NMtDT0=    0
 Petite list used in FoFCou.
 Keep R1 ints in memory in canonical form, NReq=679202228.
 Requested convergence on RMS density matrix=1.00D-08 within  32 cycles.
 Requested convergence on MAX density matrix=1.00D-06.
 Requested convergence on             energy=1.00D-06.
 No special actions if energy rises.
 Inv3:  Mode=1 IEnd=    12632112.
 Iteration    1 A*A^-1 deviation from unit magnitude is 1.12D-14 for    233.
 Iteration    1 A*A^-1 deviation from orthogonality  is 4.54D-15 for   1993   1798.
 Iteration    1 A^-1*A deviation from unit magnitude is 1.12D-14 for    233.
 Iteration    1 A^-1*A deviation from orthogonality  is 1.96D-11 for   1341   1325.
 Error on total polarization charges =  0.00994
 SCF Done:  E(RB3LYP) =  -574.032027656     A.U. after   12 cycles
            NFock= 12  Conv=0.81D-08     -V/T= 2.0098
 QCSCF skips out because SCF is already converged.
 DoSCS=F DFT=T ScalE2(SS,OS)=  1.000000  1.000000
 Range of M.O.s used for correlation:     1   270
 NBasis=   270 NAE=    49 NBE=    49 NFC=     0 NFV=     0
 NROrb=    270 NOA=    49 NOB=    49 NVA=   221 NVB=   221
 Symmetrizing basis deriv contribution to polar:
 IMax=3 JMax=2 DiffMx= 0.00D+00
 G2DrvN: will do    27 centers at a time, making    1 passes.
 Calling FoFCou, ICntrl=  3107 FMM=F I1Cent=   0 AccDes= 0.00D+00.
 NEqPCM:  Using equilibrium solvation (IEInf=0, Eps=  78.3553, EpsInf=   1.7778)
 G2PCM: DoFxE=T DoFxN=T DoGrad=T DoDP/DQ/DG/TGxP=FFFF NFrqRd=   0 IEInf=0 SqF1=F DoCFld=F IF1Alg=4.
 End of G2Drv F.D. properties file   721 does not exist.
 End of G2Drv F.D. properties file   722 does not exist.
 End of G2Drv F.D. properties file   788 does not exist.
          IDoAtm=11111111111111111111111111
 NEqPCM:  Using equilibrium solvation (IEInf=0, Eps=  78.3553, EpsInf=   1.7778)
          Differentiating once with respect to nuclear coordinates.
 Keep R1 ints in memory in canonical form, NReq=679995247.
          There are    81 degrees of freedom in the 1st order CPHF.  IDoFFX=6 NUNeed=     0.
     75 vectors produced by pass  0 Test12= 1.34D-14 1.23D-09 XBig12= 1.53D-01 1.48D-01.
 AX will form    75 AO Fock derivatives at one time.
     75 vectors produced by pass  1 Test12= 1.34D-14 1.23D-09 XBig12= 2.63D-02 4.37D-02.
     75 vectors produced by pass  2 Test12= 1.34D-14 1.23D-09 XBig12= 2.36D-04 2.55D-03.
     75 vectors produced by pass  3 Test12= 1.34D-14 1.23D-09 XBig12= 8.62D-07 1.10D-04.
     75 vectors produced by pass  4 Test12= 1.34D-14 1.23D-09 XBig12= 1.32D-09 2.59D-06.
     54 vectors produced by pass  5 Test12= 1.34D-14 1.23D-09 XBig12= 1.23D-12 7.69D-08.
     10 vectors produced by pass  6 Test12= 1.34D-14 1.23D-09 XBig12= 9.65D-16 2.59D-09.
 InvSVY:  IOpt=1 It=  1 EMax= 7.77D-16
 Solved reduced A of dimension   439 with    81 vectors.
 End of Minotr F.D. properties file   721 does not exist.
 End of Minotr F.D. properties file   722 does not exist.
 End of Minotr F.D. properties file   788 does not exist.

 **********************************************************************

            Population analysis using the SCF density.

 **********************************************************************

 Orbital symmetries:
       Occupied  (A) (A) (A) (A) (A) (A) (A) (A) (A) (A) (A) (A)
                 (A) (A) (A) (A) (A) (A) (A) (A) (A) (A) (A) (A)
                 (A) (A) (A) (A) (A) (A) (A) (A) (A) (A) (A) (A)
                 (A) (A) (A) (A) (A) (A) (A) (A) (A) (A) (A) (A)
                 (A)
       Virtual   (A) (A) (A) (A) (A) (A) (A) (A) (A) (A) (A) (A)
                 (A) (A) (A) (A) (A) (A) (A) (A) (A) (A) (A) (A)
                 (A) (A) (A) (A) (A) (A) (A) (A) (A) (A) (A) (A)
                 (A) (A) (A) (A) (A) (A) (A) (A) (A) (A) (A) (A)
                 (A) (A) (A) (A) (A) (A) (A) (A) (A) (A) (A) (A)
                 (A) (A) (A) (A) (A) (A) (A) (A) (A) (A) (A) (A)
                 (A) (A) (A) (A) (A) (A) (A) (A) (A) (A) (A) (A)
                 (A) (A) (A) (A) (A) (A) (A) (A) (A) (A) (A) (A)
                 (A) (A) (A) (A) (A) (A) (A) (A) (A) (A) (A) (A)
                 (A) (A) (A) (A) (A) (A) (A) (A) (A) (A) (A) (A)
                 (A) (A) (A) (A) (A) (A) (A) (A) (A) (A) (A) (A)
                 (A) (A) (A) (A) (A) (A) (A) (A) (A) (A) (A) (A)
                 (A) (A) (A) (A) (A) (A) (A) (A) (A) (A) (A) (A)
                 (A) (A) (A) (A) (A) (A) (A) (A) (A) (A) (A) (A)
                 (A) (A) (A) (A) (A) (A) (A) (A) (A) (A) (A) (A)
                 (A) (A) (A) (A) (A) (A) (A) (A) (A) (A) (A) (A)
                 (A) (A) (A) (A) (A) (A) (A) (A) (A) (A) (A) (A)
                 (A) (A) (A) (A) (A) (A) (A) (A) (A) (A) (A) (A)
                 (A) (A) (A) (A) (A)
 The electronic state is 1-A.
 Alpha  occ. eigenvalues --  -14.35149 -14.33377 -10.23172 -10.22742 -10.22093
 Alpha  occ. eigenvalues --  -10.18951 -10.18899 -10.18774 -10.18643 -10.18617
 Alpha  occ. eigenvalues --  -10.18436 -10.18265 -10.18006 -10.17933  -0.94574
 Alpha  occ. eigenvalues --   -0.90252  -0.84433  -0.82766  -0.75122  -0.74205
 Alpha  occ. eigenvalues --   -0.72890  -0.70695  -0.62123  -0.61211  -0.59540
 Alpha  occ. eigenvalues --   -0.57792  -0.52698  -0.51914  -0.50757  -0.48690
 Alpha  occ. eigenvalues --   -0.47802  -0.44750  -0.43438  -0.43006  -0.42911
 Alpha  occ. eigenvalues --   -0.42055  -0.41388  -0.38241  -0.37593  -0.36112
 Alpha  occ. eigenvalues --   -0.35626  -0.34723  -0.33912  -0.30860  -0.30644
 Alpha  occ. eigenvalues --   -0.25274  -0.24940  -0.21358  -0.19391
 Alpha virt. eigenvalues --   -0.00780  -0.00062   0.01297   0.01730   0.09031
 Alpha virt. eigenvalues --    0.09836   0.10537   0.11517   0.14716   0.15229
 Alpha virt. eigenvalues --    0.15788   0.16249   0.17360   0.17593   0.18437
 Alpha virt. eigenvalues --    0.19239   0.19599   0.20049   0.22753   0.26454
 Alpha virt. eigenvalues --    0.27025   0.30626   0.30705   0.32609   0.32974
 Alpha virt. eigenvalues --    0.33617   0.34585   0.36742   0.39600   0.45916
 Alpha virt. eigenvalues --    0.49863   0.51524   0.52468   0.52751   0.53591
 Alpha virt. eigenvalues --    0.54531   0.55570   0.55867   0.57290   0.57812
 Alpha virt. eigenvalues --    0.58995   0.59219   0.59735   0.60159   0.60464
 Alpha virt. eigenvalues --    0.61057   0.61399   0.61571   0.61644   0.61837
 Alpha virt. eigenvalues --    0.62677   0.63968   0.66117   0.66509   0.68763
 Alpha virt. eigenvalues --    0.69381   0.69574   0.74057   0.76571   0.78695
 Alpha virt. eigenvalues --    0.80788   0.81833   0.82009   0.82454   0.82596
 Alpha virt. eigenvalues --    0.83002   0.84051   0.84503   0.85991   0.86427
 Alpha virt. eigenvalues --    0.87899   0.90118   0.90259   0.91781   0.92282
 Alpha virt. eigenvalues --    0.94555   0.95481   0.97934   0.98279   1.00929
 Alpha virt. eigenvalues --    1.01761   1.04187   1.05688   1.08138   1.08473
 Alpha virt. eigenvalues --    1.10886   1.13923   1.14359   1.15993   1.17650
 Alpha virt. eigenvalues --    1.18492   1.20373   1.27391   1.27558   1.28685
 Alpha virt. eigenvalues --    1.31998   1.33898   1.35200   1.37210   1.38678
 Alpha virt. eigenvalues --    1.40250   1.41175   1.41934   1.42350   1.42713
 Alpha virt. eigenvalues --    1.44205   1.46046   1.51170   1.53480   1.60347
 Alpha virt. eigenvalues --    1.70672   1.74230   1.75350   1.75792   1.78148
 Alpha virt. eigenvalues --    1.79130   1.80337   1.81711   1.84643   1.86509
 Alpha virt. eigenvalues --    1.87354   1.88107   1.89652   1.90330   1.92102
 Alpha virt. eigenvalues --    1.92530   1.94094   1.96759   1.97437   1.97754
 Alpha virt. eigenvalues --    1.99912   2.00722   2.00822   2.01809   2.04277
 Alpha virt. eigenvalues --    2.05942   2.06714   2.10382   2.12812   2.14176
 Alpha virt. eigenvalues --    2.18927   2.23193   2.25470   2.27061   2.28317
 Alpha virt. eigenvalues --    2.29150   2.30863   2.31856   2.32896   2.35369
 Alpha virt. eigenvalues --    2.37593   2.38646   2.39002   2.39535   2.41265
 Alpha virt. eigenvalues --    2.42105   2.42981   2.44125   2.44628   2.45559
 Alpha virt. eigenvalues --    2.46883   2.48408   2.49253   2.50354   2.51370
 Alpha virt. eigenvalues --    2.52824   2.54080   2.55899   2.57151   2.57995
 Alpha virt. eigenvalues --    2.58679   2.60043   2.63178   2.65052   2.66145
 Alpha virt. eigenvalues --    2.68867   2.70432   2.71736   2.74252   2.74409
 Alpha virt. eigenvalues --    2.78271   2.79313   2.83587   2.87935   2.91046
 Alpha virt. eigenvalues --    2.93772   3.00062   3.03870   3.05826   3.10062
 Alpha virt. eigenvalues --    3.14469   3.19384   3.19838   3.24166   3.24501
 Alpha virt. eigenvalues --    3.25289   3.30165   3.33030   3.33694   3.37733
 Alpha virt. eigenvalues --    3.42309   3.44589   3.48944   3.51853   3.52577
 Alpha virt. eigenvalues --    3.85392   3.90035   4.03234   4.13540   4.13908
 Alpha virt. eigenvalues --    4.16132   4.16937   4.18949   4.19707   4.31890
 Alpha virt. eigenvalues --    4.43771   4.44857   4.45378   4.48275   4.81714
 Alpha virt. eigenvalues --    4.85366
          Condensed to atoms (all electrons):
               1          2          3          4          5          6
     1  N    6.856536   0.296355  -0.077120   0.005068   0.000159   0.005764
     2  C    0.296355   4.694025   0.519466  -0.020983  -0.039816  -0.039139
     3  C   -0.077120   0.519466   4.947567   0.531259  -0.037465  -0.049544
     4  C    0.005068  -0.020983   0.531259   4.826327   0.538395  -0.031830
     5  C    0.000159  -0.039816  -0.037465   0.538395   4.886276   0.500634
     6  C    0.005764  -0.039139  -0.049544  -0.031830   0.500634   4.958193
     7  C   -0.074480   0.507951  -0.034178  -0.040495  -0.020781   0.509137
     8  N   -0.016484  -0.058669   0.005418  -0.000031   0.007214  -0.084902
     9  C    0.000460   0.003548  -0.000088   0.000010  -0.000113  -0.001914
    10  C   -0.000001  -0.000311   0.000002   0.000000  -0.000010   0.000818
    11  C   -0.000000   0.000002  -0.000000  -0.000000  -0.000000  -0.000004
    12  C    0.000000   0.000000  -0.000000   0.000000   0.000000   0.000007
    13  C   -0.000000  -0.000001   0.000000  -0.000000   0.000003  -0.000057
    14  C   -0.000026   0.000732  -0.000011   0.000006  -0.000179  -0.004843
    15  H    0.336188  -0.028060   0.006409  -0.000160  -0.000045   0.000522
    16  H    0.343255  -0.022335  -0.008875  -0.000137   0.000012  -0.000156
    17  H   -0.007225  -0.039908   0.366123  -0.037686   0.004834   0.000445
    18  H   -0.000111   0.003934  -0.037651   0.369248  -0.040812   0.004758
    19  H    0.000005   0.000954   0.004550  -0.040721   0.367394  -0.035266
    20  H   -0.000096   0.004605   0.000520   0.004835  -0.040338   0.367178
    21  H    0.002016  -0.004863  -0.000148   0.000002   0.000093  -0.000659
    22  H    0.000001  -0.000001  -0.000000   0.000000  -0.000000  -0.000011
    23  H   -0.000000  -0.000000   0.000000   0.000000  -0.000000  -0.000000
    24  H    0.000000   0.000000  -0.000000  -0.000000   0.000000   0.000000
    25  H   -0.000000  -0.000000   0.000000  -0.000000  -0.000000  -0.000003
    26  H   -0.000011  -0.000134  -0.000025  -0.000012  -0.000053   0.003258
               7          8          9         10         11         12
     1  N   -0.074480  -0.016484   0.000460  -0.000001  -0.000000   0.000000
     2  C    0.507951  -0.058669   0.003548  -0.000311   0.000002   0.000000
     3  C   -0.034178   0.005418  -0.000088   0.000002  -0.000000  -0.000000
     4  C   -0.040495  -0.000031   0.000010   0.000000  -0.000000   0.000000
     5  C   -0.020781   0.007214  -0.000113  -0.000010  -0.000000   0.000000
     6  C    0.509137  -0.084902  -0.001914   0.000818  -0.000004   0.000007
     7  C    4.812523   0.243628  -0.026574   0.004030  -0.000124   0.000012
     8  N    0.243628   7.097319   0.266068  -0.061309   0.004531   0.000369
     9  C   -0.026574   0.266068   4.591426   0.517107  -0.016392  -0.036039
    10  C    0.004030  -0.061309   0.517107   4.979178   0.533133  -0.046729
    11  C   -0.000124   0.004531  -0.016392   0.533133   4.812368   0.546782
    12  C    0.000012   0.000369  -0.036039  -0.046729   0.546782   4.849742
    13  C   -0.000090   0.004872  -0.018336  -0.042668  -0.031615   0.544978
    14  C   -0.004106  -0.067401   0.527911  -0.056521  -0.042636  -0.045535
    15  H   -0.017897   0.025764  -0.000272  -0.000020  -0.000001   0.000000
    16  H    0.005386   0.000218  -0.000007   0.000000   0.000000  -0.000000
    17  H    0.004650  -0.000099   0.000001  -0.000000   0.000000   0.000000
    18  H    0.000832   0.000003  -0.000000   0.000000  -0.000000  -0.000000
    19  H    0.003330  -0.000137   0.000002   0.000000   0.000000  -0.000000
    20  H   -0.039026  -0.011185   0.006115   0.000045  -0.000025  -0.000018
    21  H   -0.046008   0.347966  -0.028969  -0.007973   0.000036   0.000006
    22  H    0.000058  -0.008639  -0.044533   0.365133  -0.037431   0.004896
    23  H    0.000001  -0.000096   0.003495  -0.036890   0.370517  -0.040341
    24  H   -0.000000   0.000003   0.000686   0.004975  -0.041619   0.371409
    25  H    0.000003  -0.000112   0.003653   0.000861   0.004575  -0.040764
    26  H    0.007609  -0.009853  -0.041565   0.005817   0.000330   0.004916
              13         14         15         16         17         18
     1  N   -0.000000  -0.000026   0.336188   0.343255  -0.007225  -0.000111
     2  C   -0.000001   0.000732  -0.028060  -0.022335  -0.039908   0.003934
     3  C    0.000000  -0.000011   0.006409  -0.008875   0.366123  -0.037651
     4  C   -0.000000   0.000006  -0.000160  -0.000137  -0.037686   0.369248
     5  C    0.000003  -0.000179  -0.000045   0.000012   0.004834  -0.040812
     6  C   -0.000057  -0.004843   0.000522  -0.000156   0.000445   0.004758
     7  C   -0.000090  -0.004106  -0.017897   0.005386   0.004650   0.000832
     8  N    0.004872  -0.067401   0.025764   0.000218  -0.000099   0.000003
     9  C   -0.018336   0.527911  -0.000272  -0.000007   0.000001  -0.000000
    10  C   -0.042668  -0.056521  -0.000020   0.000000  -0.000000   0.000000
    11  C   -0.031615  -0.042636  -0.000001   0.000000   0.000000  -0.000000
    12  C    0.544978  -0.045535   0.000000  -0.000000   0.000000  -0.000000
    13  C    4.824100   0.532418   0.000000   0.000000  -0.000000   0.000000
    14  C    0.532418   4.935633  -0.000108   0.000000  -0.000000   0.000000
    15  H    0.000000  -0.000108   0.430481  -0.026737  -0.000099   0.000003
    16  H    0.000000   0.000000  -0.026737   0.426248   0.003793  -0.000005
    17  H   -0.000000  -0.000000  -0.000099   0.003793   0.615245  -0.006090
    18  H    0.000000   0.000000   0.000003  -0.000005  -0.006090   0.616074
    19  H   -0.000000   0.000002   0.000000  -0.000000  -0.000199  -0.005819
    20  H   -0.000019   0.004035  -0.000000   0.000003   0.000013  -0.000188
    21  H   -0.000129   0.006242  -0.000211   0.000082   0.000002  -0.000000
    22  H    0.000371   0.005676   0.000014   0.000000  -0.000000  -0.000000
    23  H    0.004651   0.000742   0.000000   0.000000  -0.000000   0.000000
    24  H   -0.041781   0.004984  -0.000000  -0.000000   0.000000  -0.000000
    25  H    0.369724  -0.036896   0.000000   0.000000  -0.000000   0.000000
    26  H   -0.038894   0.364867   0.000003   0.000000  -0.000000   0.000000
              19         20         21         22         23         24
     1  N    0.000005  -0.000096   0.002016   0.000001  -0.000000   0.000000
     2  C    0.000954   0.004605  -0.004863  -0.000001  -0.000000   0.000000
     3  C    0.004550   0.000520  -0.000148  -0.000000   0.000000  -0.000000
     4  C   -0.040721   0.004835   0.000002   0.000000   0.000000  -0.000000
     5  C    0.367394  -0.040338   0.000093  -0.000000  -0.000000   0.000000
     6  C   -0.035266   0.367178  -0.000659  -0.000011  -0.000000   0.000000
     7  C    0.003330  -0.039026  -0.046008   0.000058   0.000001  -0.000000
     8  N   -0.000137  -0.011185   0.347966  -0.008639  -0.000096   0.000003
     9  C    0.000002   0.006115  -0.028969  -0.044533   0.003495   0.000686
    10  C    0.000000   0.000045  -0.007973   0.365133  -0.036890   0.004975
    11  C    0.000000  -0.000025   0.000036  -0.037431   0.370517  -0.041619
    12  C   -0.000000  -0.000018   0.000006   0.004896  -0.040341   0.371409
    13  C   -0.000000  -0.000019  -0.000129   0.000371   0.004651  -0.041781
    14  C    0.000002   0.004035   0.006242   0.005676   0.000742   0.004984
    15  H    0.000000  -0.000000  -0.000211   0.000014   0.000000  -0.000000
    16  H   -0.000000   0.000003   0.000082   0.000000   0.000000  -0.000000
    17  H   -0.000199   0.000013   0.000002  -0.000000  -0.000000   0.000000
    18  H   -0.005819  -0.000188  -0.000000  -0.000000   0.000000  -0.000000
    19  H    0.620966  -0.005765   0.000003   0.000000  -0.000000   0.000000
    20  H   -0.005765   0.608806  -0.000038   0.000004  -0.000000   0.000000
    21  H    0.000003  -0.000038   0.441565   0.006834  -0.000012  -0.000000
    22  H    0.000000   0.000004   0.006834   0.616976  -0.006247  -0.000180
    23  H   -0.000000  -0.000000  -0.000012  -0.006247   0.609557  -0.005969
    24  H    0.000000   0.000000  -0.000000  -0.000180  -0.005969   0.622791
    25  H    0.000000  -0.000002   0.000003   0.000015  -0.000194  -0.005931
    26  H   -0.000003  -0.000132   0.000077  -0.000162   0.000014  -0.000177
              25         26
     1  N   -0.000000  -0.000011
     2  C   -0.000000  -0.000134
     3  C    0.000000  -0.000025
     4  C   -0.000000  -0.000012
     5  C   -0.000000  -0.000053
     6  C   -0.000003   0.003258
     7  C    0.000003   0.007609
     8  N   -0.000112  -0.009853
     9  C    0.003653  -0.041565
    10  C    0.000861   0.005817
    11  C    0.004575   0.000330
    12  C   -0.040764   0.004916
    13  C    0.369724  -0.038894
    14  C   -0.036896   0.364867
    15  H    0.000000   0.000003
    16  H    0.000000   0.000000
    17  H   -0.000000  -0.000000
    18  H    0.000000   0.000000
    19  H    0.000000  -0.000003
    20  H   -0.000002  -0.000132
    21  H    0.000003   0.000077
    22  H    0.000015  -0.000162
    23  H   -0.000194   0.000014
    24  H   -0.005931  -0.000177
    25  H    0.610785  -0.006137
    26  H   -0.006137   0.612951
 Mulliken charges:
               1
     1  N   -0.670252
     2  C    0.222650
     3  C   -0.136207
     4  C   -0.103095
     5  C   -0.125402
     6  C   -0.102386
     7  C    0.204609
     8  N   -0.684454
     9  C    0.294319
    10  C   -0.158667
    11  C   -0.102429
    12  C   -0.113690
    13  C   -0.107525
    14  C   -0.124985
    15  H    0.274225
    16  H    0.279254
    17  H    0.096200
    18  H    0.095826
    19  H    0.090704
    20  H    0.100676
    21  H    0.284086
    22  H    0.097228
    23  H    0.100771
    24  H    0.090808
    25  H    0.100419
    26  H    0.097316
 Sum of Mulliken charges =  -0.00000
 Mulliken charges with hydrogens summed into heavy atoms:
               1
     1  N   -0.116773
     2  C    0.222650
     3  C   -0.040007
     4  C   -0.007268
     5  C   -0.034698
     6  C   -0.001710
     7  C    0.204609
     8  N   -0.400369
     9  C    0.294319
    10  C   -0.061439
    11  C   -0.001658
    12  C   -0.022882
    13  C   -0.007106
    14  C   -0.027670
 APT charges:
               1
     1  N   -1.125331
     2  C   -0.174634
     3  C   -0.443605
     4  C   -0.435575
     5  C   -0.493225
     6  C   -0.541774
     7  C   -0.352658
     8  N   -0.852422
     9  C   -0.395235
    10  C   -0.589534
    11  C   -0.401387
    12  C   -0.478082
    13  C   -0.454415
    14  C   -0.559729
    15  H    0.234505
    16  H    0.978294
    17  H    0.761588
    18  H    0.863914
    19  H    0.613261
    20  H    0.275270
    21  H    0.571678
    22  H    0.436504
    23  H    0.832569
    24  H    0.902352
    25  H    0.614762
    26  H    0.212910
 Sum of APT charges =  -0.00000
 APT charges with hydrogens summed into heavy atoms:
               1
     1  N    0.087468
     2  C   -0.174634
     3  C    0.317983
     4  C    0.428339
     5  C    0.120036
     6  C   -0.266505
     7  C   -0.352658
     8  N   -0.280744
     9  C   -0.395235
    10  C   -0.153030
    11  C    0.431182
    12  C    0.424270
    13  C    0.160346
    14  C   -0.346819
 Electronic spatial extent (au):  <R**2>=           3278.5383
 Charge=             -0.0000 electrons
 Dipole moment (field-independent basis, Debye):
    X=             -0.8909    Y=              1.8167    Z=             -1.9290  Tot=              2.7956
 Quadrupole moment (field-independent basis, Debye-Ang):
   XX=            -73.1675   YY=            -72.1684   ZZ=            -82.7924
   XY=             -4.2914   XZ=             -0.6891   YZ=             -5.1825
 Traceless Quadrupole moment (field-independent basis, Debye-Ang):
   XX=              2.8753   YY=              3.8744   ZZ=             -6.7497
   XY=             -4.2914   XZ=             -0.6891   YZ=             -5.1825
 Octapole moment (field-independent basis, Debye-Ang**2):
  XXX=            -19.3610  YYY=             25.3299  ZZZ=             -4.2105  XYY=            -22.0538
  XXY=             12.1526  XXZ=              0.7388  XZZ=             10.4055  YZZ=              1.2804
  YYZ=             -6.8173  XYZ=            -11.1695
 Hexadecapole moment (field-independent basis, Debye-Ang**3):
 XXXX=          -3156.8218 YYYY=           -624.2619 ZZZZ=           -293.1504 XXXY=            -62.8417
 XXXZ=            -56.3414 YYYX=            -51.0020 YYYZ=              1.0361 ZZZX=              0.3020
 ZZZY=            -22.5813 XXYY=           -630.5661 XXZZ=           -655.5448 YYZZ=           -163.1624
 XXYZ=            -28.6391 YYXZ=              7.5914 ZZXY=             -2.2553
 N-N= 8.012830053342D+02 E-N=-2.933853618293D+03  KE= 5.684379588092D+02
  Exact polarizability:   0.000   0.000   0.000   0.000   0.000   0.000
 Approx polarizability: 288.638  -5.486 223.477 -19.234 -13.879 137.015
 D2PCM: PCM CHGder 2nd derivatives, FixD1E=F FixD2E=F DoIter=F DoCFld=F I1PDM=0
 Calling FoFJK, ICntrl=    100147 FMM=F ISym2X=0 I1Cent= 0 IOpClX= 0 NMat=1 NMatS=1 NMatT=0.
 ***** Axes restored to original set *****
 -------------------------------------------------------------------
 Center     Atomic                   Forces (Hartrees/Bohr)
 Number     Number              X              Y              Z
 -------------------------------------------------------------------
      1        7          -0.007211804    0.008268763   -0.004711236
      2        6          -0.001118215   -0.012104225    0.019624402
      3        6           0.004866124    0.009629207   -0.005353570
      4        6           0.001484342   -0.003926714    0.000249883
      5        6          -0.002370196    0.005710453    0.000327181
      6        6           0.005267712    0.000365126    0.001590926
      7        6          -0.001206564    0.014602877   -0.007515396
      8        7          -0.008085745   -0.008721414   -0.008940634
      9        6           0.011294949   -0.002866461    0.003673514
     10        6          -0.007828727   -0.000456938   -0.004863718
     11        6           0.005479986   -0.001800684   -0.000592010
     12        6          -0.007948077    0.002903525    0.003575863
     13        6           0.004185454   -0.003010216   -0.002589526
     14        6           0.002216426    0.007232772    0.007272129
     15        1           0.005928713   -0.002690875   -0.000626222
     16        1          -0.003131113   -0.001213878   -0.000356175
     17        1          -0.001164799   -0.002276416   -0.000386140
     18        1          -0.000084254   -0.000786707    0.000032734
     19        1          -0.000476056   -0.000532789   -0.000077093
     20        1          -0.000796508   -0.002708037    0.001323262
     21        1          -0.003710669   -0.004946918    0.003568125
     22        1           0.002259356    0.000239899   -0.001152162
     23        1           0.001168988   -0.000441480   -0.000549015
     24        1           0.000224650    0.000079012   -0.000455500
     25        1           0.000824967   -0.000317808   -0.000429631
     26        1          -0.000068943   -0.000230075   -0.002639991
 -------------------------------------------------------------------
 Cartesian Forces:  Max     0.019624402 RMS     0.005107407
 FormGI is forming the generalized inverse of G from B-inverse, IUseBI=4.

 GradGradGradGradGradGradGradGradGradGradGradGradGradGradGradGradGradGrad
 Berny optimization.
 Internal  Forces:  Max     0.016887424 RMS     0.002965931
 Search for a local minimum.
 Step number   1 out of a maximum of  139
 All quantities printed in internal units (Hartrees-Bohrs-Radians)
 Mixed Optimization -- RFO/linear search
 Second derivative matrix not updated -- analytic derivatives used.
 ITU=  0
     Eigenvalues ---    0.00060   0.00581   0.00634   0.01411   0.01523
     Eigenvalues ---    0.01657   0.01680   0.01733   0.01757   0.01807
     Eigenvalues ---    0.01959   0.02079   0.02230   0.02245   0.02348
     Eigenvalues ---    0.02398   0.02480   0.02686   0.02774   0.02819
     Eigenvalues ---    0.02831   0.02973   0.03008   0.10877   0.10921
     Eigenvalues ---    0.11366   0.11443   0.11746   0.12266   0.12320
     Eigenvalues ---    0.12335   0.12641   0.12904   0.12932   0.15726
     Eigenvalues ---    0.18337   0.18431   0.18983   0.19084   0.19246
     Eigenvalues ---    0.19527   0.21015   0.21222   0.21645   0.23393
     Eigenvalues ---    0.31086   0.32423   0.34545   0.35478   0.35573
     Eigenvalues ---    0.35604   0.35846   0.35933   0.35961   0.36026
     Eigenvalues ---    0.36048   0.36338   0.37216   0.38522   0.41271
     Eigenvalues ---    0.43174   0.44097   0.44386   0.45211   0.45343
     Eigenvalues ---    0.46581   0.46667   0.46887   0.47592   0.47651
     Eigenvalues ---    0.51185   0.51376
 RFO step:  Lambda=-7.20820651D-03 EMin= 6.01639625D-04
 Linear search not attempted -- first point.
 Iteration  1 RMS(Cart)=  0.07911074 RMS(Int)=  0.00187890
 Iteration  2 RMS(Cart)=  0.00405168 RMS(Int)=  0.00035128
 Iteration  3 RMS(Cart)=  0.00000555 RMS(Int)=  0.00035126
 Iteration  4 RMS(Cart)=  0.00000001 RMS(Int)=  0.00035126
 Variable       Old X    -DE/DX   Delta X   Delta X   Delta X     New X
                                 (Linear)    (Quad)   (Total)
    R1        2.65838  -0.00582   0.00000  -0.03039  -0.03039   2.62799
    R2        1.92139  -0.00422   0.00000  -0.01093  -0.01093   1.91046
    R3        1.91326  -0.00154   0.00000  -0.00293  -0.00293   1.91033
    R4        2.64258   0.00598   0.00000   0.01551   0.01554   2.65812
    R5        2.67096  -0.00085   0.00000   0.00347   0.00360   2.67456
    R6        2.63761  -0.00115   0.00000  -0.00653  -0.00662   2.63099
    R7        2.05292   0.00006   0.00000   0.00090   0.00090   2.05382
    R8        2.63174   0.00372   0.00000   0.00951   0.00939   2.64113
    R9        2.05371  -0.00045   0.00000  -0.00087  -0.00087   2.05284
   R10        2.63752   0.00014   0.00000  -0.00174  -0.00177   2.63576
   R11        2.05372  -0.00051   0.00000  -0.00263  -0.00263   2.05109
   R12        2.65027  -0.00139   0.00000  -0.00749  -0.00740   2.64287
   R13        2.05360  -0.00091   0.00000  -0.00174  -0.00174   2.05186
   R14        2.69652   0.00598   0.00000   0.01126   0.01126   2.70778
   R15        2.67594  -0.00936   0.00000  -0.02713  -0.02713   2.64881
   R16        1.92311  -0.00053   0.00000  -0.00469  -0.00469   1.91842
   R17        2.64875   0.00258   0.00000   0.01007   0.01002   2.65877
   R18        2.64757   0.00354   0.00000   0.01148   0.01144   2.65901
   R19        2.64150  -0.00273   0.00000  -0.00823  -0.00824   2.63325
   R20        2.05321   0.00072   0.00000   0.00176   0.00176   2.05498
   R21        2.63189   0.00430   0.00000   0.00841   0.00844   2.64033
   R22        2.05365  -0.00063   0.00000  -0.00050  -0.00050   2.05316
   R23        2.63144   0.00443   0.00000   0.00891   0.00896   2.64039
   R24        2.05360  -0.00034   0.00000  -0.00245  -0.00245   2.05116
   R25        2.64057  -0.00190   0.00000  -0.00608  -0.00607   2.63450
   R26        2.05352  -0.00055   0.00000  -0.00017  -0.00017   2.05335
   R27        2.05495  -0.00127   0.00000  -0.00518  -0.00518   2.04977
    A1        1.95489   0.00491   0.00000   0.03962   0.03939   1.99429
    A2        2.00297   0.00057   0.00000   0.01443   0.01420   2.01717
    A3        2.00293  -0.00462   0.00000  -0.03094  -0.03126   1.97167
    A4        2.08581   0.00554   0.00000   0.02408   0.02285   2.10866
    A5        2.09949  -0.00178   0.00000   0.00524   0.00389   2.10338
    A6        2.08526  -0.00330   0.00000  -0.01544  -0.01669   2.06857
    A7        2.10393   0.00134   0.00000   0.00693   0.00679   2.11072
    A8        2.09668  -0.00318   0.00000  -0.02145  -0.02138   2.07529
    A9        2.08253   0.00183   0.00000   0.01450   0.01457   2.09710
   A10        2.09474   0.00059   0.00000   0.00784   0.00753   2.10227
   A11        2.09281  -0.00096   0.00000  -0.00937  -0.00922   2.08359
   A12        2.09562   0.00036   0.00000   0.00153   0.00169   2.09731
   A13        2.09395  -0.00278   0.00000  -0.01435  -0.01464   2.07930
   A14        2.09624   0.00187   0.00000   0.01000   0.01008   2.10633
   A15        2.09299   0.00091   0.00000   0.00440   0.00448   2.09747
   A16        2.10436   0.00233   0.00000   0.00985   0.00981   2.11418
   A17        2.07862   0.00183   0.00000   0.01886   0.01887   2.09749
   A18        2.10020  -0.00415   0.00000  -0.02870  -0.02868   2.07152
   A19        2.08039   0.00203   0.00000   0.01166   0.01075   2.09114
   A20        2.07263  -0.00764   0.00000  -0.01960  -0.02078   2.05185
   A21        2.11937   0.00596   0.00000   0.01959   0.01854   2.13790
   A22        2.20396  -0.01689   0.00000  -0.05598  -0.05634   2.14763
   A23        1.87378   0.01144   0.00000   0.08655   0.08625   1.96003
   A24        1.92976   0.00311   0.00000   0.03418   0.03364   1.96340
   A25        2.08870  -0.00158   0.00000  -0.00170  -0.00183   2.08686
   A26        2.12451  -0.00091   0.00000   0.00063   0.00051   2.12502
   A27        2.06464   0.00261   0.00000   0.00472   0.00435   2.06898
   A28        2.10913  -0.00180   0.00000  -0.00380  -0.00395   2.10518
   A29        2.10180  -0.00143   0.00000  -0.01695  -0.01687   2.08493
   A30        2.07225   0.00323   0.00000   0.02076   0.02083   2.09308
   A31        2.09530   0.00225   0.00000   0.01128   0.01119   2.10649
   A32        2.09363  -0.00237   0.00000  -0.01337  -0.01336   2.08027
   A33        2.09422   0.00012   0.00000   0.00219   0.00220   2.09642
   A34        2.09061  -0.00284   0.00000  -0.01605  -0.01608   2.07453
   A35        2.09693   0.00127   0.00000   0.00740   0.00737   2.10430
   A36        2.09553   0.00158   0.00000   0.00886   0.00883   2.10436
   A37        2.09482   0.00248   0.00000   0.01662   0.01659   2.11141
   A38        2.09727  -0.00040   0.00000  -0.00310  -0.00310   2.09418
   A39        2.09101  -0.00208   0.00000  -0.01343  -0.01343   2.07758
   A40        2.11039  -0.00264   0.00000  -0.01063  -0.01074   2.09965
   A41        2.09621  -0.00055   0.00000  -0.00809  -0.00805   2.08816
   A42        2.07649   0.00319   0.00000   0.01881   0.01886   2.09535
    D1       -2.98920   0.00225   0.00000   0.06385   0.06430  -2.92489
    D2        0.32334  -0.00054   0.00000  -0.02779  -0.02845   0.29489
    D3       -0.66532   0.00094   0.00000   0.07241   0.07307  -0.59225
    D4        2.64722  -0.00185   0.00000  -0.01923  -0.01968   2.62753
    D5       -3.04615  -0.00074   0.00000  -0.02386  -0.02433  -3.07048
    D6        0.08505  -0.00083   0.00000  -0.02642  -0.02668   0.05837
    D7       -0.07410   0.00217   0.00000   0.06903   0.06855  -0.00555
    D8        3.05710   0.00208   0.00000   0.06647   0.06619   3.12330
    D9        3.07006   0.00080   0.00000   0.00927   0.00871   3.07878
   D10       -0.22655   0.00382   0.00000   0.09410   0.09287  -0.13368
   D11        0.09936  -0.00285   0.00000  -0.08620  -0.08575   0.01361
   D12        3.08593   0.00016   0.00000  -0.00137  -0.00159   3.08434
   D13        0.01727  -0.00011   0.00000  -0.01236  -0.01255   0.00472
   D14       -3.13180  -0.00038   0.00000  -0.01224  -0.01226   3.13912
   D15       -3.11401   0.00001   0.00000  -0.00961  -0.00996  -3.12397
   D16        0.02010  -0.00027   0.00000  -0.00949  -0.00967   0.01044
   D17        0.01385  -0.00110   0.00000  -0.02571  -0.02565  -0.01179
   D18       -3.13122  -0.00037   0.00000  -0.00842  -0.00834  -3.13956
   D19       -3.12025  -0.00082   0.00000  -0.02579  -0.02589   3.13704
   D20        0.01786  -0.00008   0.00000  -0.00850  -0.00859   0.00928
   D21        0.01284   0.00035   0.00000   0.00728   0.00734   0.02017
   D22       -3.12511   0.00033   0.00000   0.00508   0.00492  -3.12019
   D23       -3.12528  -0.00038   0.00000  -0.00999  -0.00989  -3.13517
   D24        0.01995  -0.00041   0.00000  -0.01219  -0.01231   0.00765
   D25       -0.06941   0.00141   0.00000   0.04783   0.04817  -0.02124
   D26       -3.05169  -0.00043   0.00000  -0.03574  -0.03666  -3.08835
   D27        3.06849   0.00145   0.00000   0.05016   0.05065   3.11914
   D28        0.08622  -0.00040   0.00000  -0.03341  -0.03418   0.05204
   D29        2.61546  -0.00210   0.00000  -0.14016  -0.14027   2.47519
   D30       -1.34092  -0.00092   0.00000  -0.03297  -0.03262  -1.37354
   D31       -0.68476   0.00059   0.00000  -0.05419  -0.05454  -0.73930
   D32        1.64204   0.00177   0.00000   0.05299   0.05310   1.69515
   D33        2.63448   0.00095   0.00000   0.00624   0.00617   2.64065
   D34       -0.61990   0.00236   0.00000   0.04494   0.04481  -0.57509
   D35        0.32851  -0.00294   0.00000  -0.12125  -0.12112   0.20739
   D36       -2.92587  -0.00153   0.00000  -0.08256  -0.08249  -3.00835
   D37        3.08989  -0.00008   0.00000  -0.00653  -0.00656   3.08332
   D38       -0.05608   0.00010   0.00000  -0.00316  -0.00322  -0.05929
   D39        0.05723  -0.00122   0.00000  -0.04365  -0.04373   0.01350
   D40       -3.08873  -0.00104   0.00000  -0.04028  -0.04038  -3.12912
   D41       -3.08708   0.00000   0.00000   0.00119   0.00111  -3.08597
   D42        0.04010   0.00021   0.00000   0.00875   0.00866   0.04876
   D43       -0.05678   0.00114   0.00000   0.03897   0.03899  -0.01779
   D44        3.07040   0.00134   0.00000   0.04653   0.04653   3.11694
   D45       -0.02375   0.00069   0.00000   0.02276   0.02268  -0.00107
   D46        3.12745   0.00032   0.00000   0.01020   0.01021   3.13766
   D47        3.12214   0.00052   0.00000   0.01954   0.01941   3.14155
   D48       -0.00984   0.00015   0.00000   0.00697   0.00694  -0.00290
   D49       -0.01162   0.00014   0.00000   0.00448   0.00443  -0.00719
   D50       -3.13614  -0.00037   0.00000  -0.01003  -0.01004   3.13701
   D51        3.12036   0.00050   0.00000   0.01696   0.01693   3.13729
   D52       -0.00416  -0.00001   0.00000   0.00245   0.00246  -0.00170
   D53        0.01211  -0.00025   0.00000  -0.00933  -0.00928   0.00282
   D54       -3.11554  -0.00054   0.00000  -0.01649  -0.01647  -3.13202
   D55        3.13664   0.00026   0.00000   0.00515   0.00517  -3.14138
   D56        0.00899  -0.00004   0.00000  -0.00201  -0.00202   0.00697
   D57        0.02279  -0.00048   0.00000  -0.01303  -0.01297   0.00982
   D58       -3.10455  -0.00066   0.00000  -0.02029  -0.02033  -3.12488
   D59       -3.13269  -0.00018   0.00000  -0.00581  -0.00577  -3.13846
   D60        0.02315  -0.00035   0.00000  -0.01308  -0.01313   0.01002
         Item               Value     Threshold  Converged?
 Maximum Force            0.016887     0.000450     NO 
 RMS     Force            0.002966     0.000300     NO 
 Maximum Displacement     0.284193     0.001800     NO 
 RMS     Displacement     0.081256     0.001200     NO 
 Predicted change in Energy=-4.075744D-03
 GradGradGradGradGradGradGradGradGradGradGradGradGradGradGradGradGradGrad

                          Input orientation:                          
 ---------------------------------------------------------------------
 Center     Atomic      Atomic             Coordinates (Angstroms)
 Number     Number       Type             X           Y           Z
 ---------------------------------------------------------------------
      1          7           0        2.196805   -2.196548    0.183457
      2          6           0        2.229547   -0.864977   -0.216318
      3          6           0        3.448750   -0.169183   -0.305649
      4          6           0        3.477823    1.185913   -0.623850
      5          6           0        2.289863    1.884619   -0.856041
      6          6           0        1.075189    1.203427   -0.778829
      7          6           0        1.027688   -0.155253   -0.450714
      8          7           0       -0.197018   -0.898659   -0.425431
      9          6           0       -1.386175   -0.394534    0.119089
     10          6           0       -2.622968   -0.838080   -0.384045
     11          6           0       -3.817975   -0.404445    0.186605
     12          6           0       -3.812092    0.477904    1.269937
     13          6           0       -2.585684    0.912863    1.778854
     14          6           0       -1.383443    0.482021    1.219789
     15          1           0        1.309997   -2.655824    0.026282
     16          1           0        2.987710   -2.757563   -0.102309
     17          1           0        4.374412   -0.704025   -0.109947
     18          1           0        4.433505    1.698907   -0.683813
     19          1           0        2.308232    2.940627   -1.106204
     20          1           0        0.143431    1.725019   -0.975615
     21          1           0       -0.352005   -1.415125   -1.285573
     22          1           0       -2.642126   -1.524972   -1.226869
     23          1           0       -4.759940   -0.758795   -0.222764
     24          1           0       -4.744230    0.817697    1.710171
     25          1           0       -2.559622    1.592069    2.626601
     26          1           0       -0.439675    0.816916    1.636563
 ---------------------------------------------------------------------
                    Distance matrix (angstroms):
                    1          2          3          4          5
     1  N    0.000000
     2  C    1.390674   0.000000
     3  C    2.432447   1.406615   0.000000
     4  C    3.705913   2.435246   1.392258   0.000000
     5  C    4.212498   2.823679   2.421581   1.397624   0.000000
     6  C    3.707269   2.434595   2.782399   2.407690   1.394782
     7  C    2.436369   1.415315   2.425444   2.798547   2.432787
     8  N    2.790278   2.435792   3.719961   4.229571   3.757211
     9  C    4.011128   3.661593   4.858774   5.168002   4.433810
    10  C    5.039614   4.855488   6.108955   6.432240   5.636646
    11  C    6.276084   6.078401   7.287177   7.510975   6.605498
    12  C    6.666331   6.365036   7.457950   7.565088   6.613054
    13  C    5.923338   5.507075   6.475366   6.527914   5.626539
    14  C    4.589868   4.114670   5.108925   5.246558   4.446293
    15  H    1.010973   2.027698   3.296639   4.458821   4.728028
    16  H    1.010906   2.041982   2.636971   4.007895   4.754467
    17  H    2.656254   2.153524   1.086833   2.154028   3.406329
    18  H    4.574883   3.413134   2.145347   1.086318   2.158554
    19  H    5.297756   3.909056   3.407725   2.163245   1.085391
    20  H    4.575858   3.411230   3.868073   3.395959   2.155676
    21  H    3.043863   2.847872   4.118053   4.676628   4.248796
    22  H    5.084809   5.018964   6.307581   6.720588   6.007274
    23  H    7.115367   6.990297   8.230255   8.473695   7.555687
    24  H    7.719748   7.428077   8.494845   8.554846   7.563216
    25  H    6.553333   6.087315   6.913800   6.868852   5.977615
    26  H    4.259520   3.658781   4.456953   4.537887   3.847524
                    6          7          8          9         10
     6  C    0.000000
     7  C    1.398544   0.000000
     8  N    2.482371   1.432898   0.000000
     9  C    3.068884   2.491719   1.401691   0.000000
    10  C    4.242638   3.714564   2.427059   1.406960   0.000000
    11  C    5.240264   4.893743   3.705424   2.432757   1.393457
    12  C    5.348770   5.175422   4.223500   2.823237   2.425177
    13  C    4.475283   4.378162   3.721050   2.429594   2.783043
    14  C    3.249580   3.001708   2.453697   1.407087   2.418961
    15  H    3.949323   2.561265   2.358552   3.520141   4.352100
    16  H    4.450265   3.276445   3.701679   4.976324   5.936624
    17  H    3.869192   3.408495   4.586435   5.773440   7.004030
    18  H    3.396000   3.884822   5.315624   6.236652   7.504664
    19  H    2.155327   3.413786   4.634636   5.125748   6.254349
    20  H    1.085798   2.143094   2.702276   2.833827   3.817381
    21  H    3.024977   2.046415   1.015186   2.020938   2.510579
    22  H    4.632854   3.993254   2.648230   2.160302   1.087446
    23  H    6.181283   5.823475   4.569561   3.410548   2.144515
    24  H    6.341100   6.239479   5.308843   3.908655   3.409852
    25  H    4.995983   5.039027   4.593530   3.407519   3.869578
    26  H    2.877207   2.730383   2.693306   2.160138   3.404209
                   11         12         13         14         15
    11  C    0.000000
    12  C    1.397205   0.000000
    13  C    2.406055   1.397235   0.000000
    14  C    2.789307   2.429170   1.394117   0.000000
    15  H    5.602723   6.132106   5.566270   4.304085   0.000000
    16  H    7.206801   7.654320   6.933507   5.599091   1.685707
    17  H    8.203225   8.385695   7.390862   6.027255   3.635756
    18  H    8.559711   8.561417   7.480081   6.240304   5.405943
    19  H    7.098681   7.012091   6.032065   5.008338   5.796487
    20  H    4.645225   4.716351   3.961662   2.948930   4.642893
    21  H    3.898940   4.699616   4.449670   3.307546   2.454088
    22  H    2.153163   3.407986   3.870478   3.405648   4.297498
    23  H    1.086483   2.157776   3.395337   3.875734   6.364344
    24  H    2.161674   1.085425   2.161735   3.412923   7.180146
    25  H    3.394570   2.156522   1.086588   2.143531   6.307155
    26  H    3.873888   3.409184   2.152860   1.084690   4.208833
                   16         17         18         19         20
    16  H    0.000000
    17  H    2.477907   0.000000
    18  H    4.721080   2.471214   0.000000
    19  H    5.825708   4.306405   2.497413   0.000000
    20  H    5.380160   4.954880   4.300066   2.486186   0.000000
    21  H    3.788924   4.922070   5.741116   5.107016   3.194062
    22  H    5.871879   7.152152   7.794412   6.667997   4.287762
    23  H    8.002229   9.135213   9.527450   8.026534   5.547898
    24  H    8.709218   9.422214   9.525677   7.885178   5.650302
    25  H    7.559044   7.800101   7.737834   6.280800   4.505567
    26  H    5.248575   5.342190   5.468998   4.425372   2.826329
                   21         22         23         24         25
    21  H    0.000000
    22  H    2.293505   0.000000
    23  H    4.581509   2.465845   0.000000
    24  H    5.766422   4.305014   2.494356   0.000000
    25  H    5.405728   4.957014   4.299633   2.492391   0.000000
    26  H    3.678120   4.305168   4.960307   4.305185   2.464795
                   26
    26  H    0.000000
 Stoichiometry    C12H12N2
 Framework group  C1[X(C12H12N2)]
 Deg. of freedom    72
 Full point group                 C1      NOp   1
 Largest Abelian subgroup         C1      NOp   1
 Largest concise Abelian subgroup C1      NOp   1
                         Standard orientation:                         
 ---------------------------------------------------------------------
 Center     Atomic      Atomic             Coordinates (Angstroms)
 Number     Number       Type             X           Y           Z
 ---------------------------------------------------------------------
      1          7           0       -2.087896    2.150745    0.721970
      2          6           0       -2.211883    0.850412    0.244753
      3          6           0       -3.430878    0.156736    0.351662
      4          6           0       -3.535254   -1.172778   -0.048192
      5          6           0       -2.423788   -1.847698   -0.560517
      6          6           0       -1.211779   -1.167757   -0.679388
      7          6           0       -1.087337    0.164723   -0.273265
      8          7           0        0.124747    0.910420   -0.440550
      9          6           0        1.393751    0.375028   -0.180311
     10          6           0        2.509748    0.858797   -0.887456
     11          6           0        3.790337    0.391912   -0.597918
     12          6           0        3.991965   -0.564393    0.400584
     13          6           0        2.887375   -1.039952    1.111913
     14          6           0        1.601976   -0.576702    0.834945
     15          1           0       -1.245880    2.624206    0.423792
     16          1           0       -2.914612    2.726627    0.639317
     17          1           0       -4.294084    0.672029    0.764643
     18          1           0       -4.488471   -1.684899    0.047706
     19          1           0       -2.501363   -2.883595   -0.875115
     20          1           0       -0.342692   -1.669729   -1.093719
     21          1           0        0.110254    1.486789   -1.276129
     22          1           0        2.367175    1.603296   -1.667157
     23          1           0        4.635247    0.778695   -1.160921
     24          1           0        4.989873   -0.929774    0.621545
     25          1           0        3.024233   -1.777164    1.898338
     26          1           0        0.756954   -0.944607    1.406904
 ---------------------------------------------------------------------
 Rotational constants (GHZ):           1.6371732           0.3884127           0.3469609
 Standard basis: 6-31G(d,p) (6D, 7F)
 There are   270 symmetry adapted cartesian basis functions of A   symmetry.
 There are   270 symmetry adapted basis functions of A   symmetry.
   270 basis functions,   476 primitive gaussians,   270 cartesian basis functions
    49 alpha electrons       49 beta electrons
       nuclear repulsion energy       804.6893939955 Hartrees.
 NAtoms=   26 NActive=   26 NUniq=   26 SFac= 1.00D+00 NAtFMM=   60 NAOKFM=F Big=F
 Integral buffers will be    131072 words long.
 Raffenetti 2 integral format.
 Two-electron integral symmetry is turned on.
 ------------------------------------------------------------------------------
 Polarizable Continuum Model (PCM)
 =================================
 Model                : PCM.
 Atomic radii         : UFF (Universal Force Field).
 Polarization charges : Total charges.
 Charge compensation  : None.
 Solution method      : Matrix inversion.
 Cavity type          : Scaled VdW (van der Waals Surface) (Alpha=1.100).
 Cavity algorithm     : GePol (No added spheres)
                        Default sphere list used, NSphG=   26.
                        Lebedev-Laikov grids with approx.  5.0 points / Ang**2.
                        Smoothing algorithm: York/Karplus (Gamma=1.0000).
                        Polarization charges: spherical gaussians, with
                                              point-specific exponents (IZeta= 3).
                        Self-potential: point-specific (ISelfS= 7).
                        Self-field    : sphere-specific E.n sum rule (ISelfD= 2).
 1st derivatives      : Analytical E(r).r(x)/FMM algorithm (CHGder, D1EAlg=3).
                        Cavity 1st derivative terms included.
 Solvent              : Water, Eps=  78.355300 Eps(inf)=   1.777849
 ------------------------------------------------------------------------------
 One-electron integrals computed using PRISM.
 NBasis=   270 RedAO= T EigKep=  3.70D-04  NBF=   270
 NBsUse=   270 1.00D-06 EigRej= -1.00D+00 NBFU=   270
 Initial guess from the checkpoint file:  "NFCPRRWCTNLGSN-UHFFFAOYSA-N_conf_1_0.chk"
 B after Tr=    -0.000000    0.000000    0.000000
         Rot=    0.999992   -0.000560    0.002410    0.003242 Ang=  -0.47 deg.
 ExpMin= 1.61D-01 ExpMax= 4.17D+03 ExpMxC= 6.27D+02 IAcc=2 IRadAn=         4 AccDes= 0.00D+00
 Harris functional with IExCor=  402 and IRadAn=       4 diagonalized for initial guess.
 HarFok:  IExCor=  402 AccDes= 0.00D+00 IRadAn=         4 IDoV= 1 UseB2=F ITyADJ=14
 ICtDFT=  3500011 ScaDFX=  1.000000  1.000000  1.000000  1.000000
 FoFCou: FMM=F IPFlag=           0 FMFlag=      100000 FMFlg1=           0
         NFxFlg=           0 DoJE=T BraDBF=F KetDBF=T FulRan=T
         wScrn=  0.000000 ICntrl=       500 IOpCl=  0 I1Cent=   200000004 NGrid=           0
         NMat0=    1 NMatS0=      1 NMatT0=    0 NMatD0=    1 NMtDS0=    0 NMtDT0=    0
 Petite list used in FoFCou.
 Keep R1 ints in memory in canonical form, NReq=679202228.
 Requested convergence on RMS density matrix=1.00D-08 within  32 cycles.
 Requested convergence on MAX density matrix=1.00D-06.
 Requested convergence on             energy=1.00D-06.
 No special actions if energy rises.
 Inv3:  Mode=1 IEnd=    12460332.
 Iteration    1 A*A^-1 deviation from unit magnitude is 8.66D-15 for   1826.
 Iteration    1 A*A^-1 deviation from orthogonality  is 4.49D-15 for   1549    222.
 Iteration    1 A^-1*A deviation from unit magnitude is 8.66D-15 for   1826.
[...]
 Using the CI density.
 There are       409 points.  Will hold       409 in memory.
 LenV=  1073556588 MDV=  1073741824.
 Box volume = 8583.866 fraction occupied=0.156
 Integrated density= 4.1825717029819700D+01 error=-5.6174282970180300D+01
 Molar volume = 1343.197 bohr**3/mol (119.865 cm**3/mol)
 Recommended a0 for SCRF calculation =  4.49 angstrom (  8.48 bohr)
 ******************************Gaussian NBO Version 3.1******************************
             N A T U R A L   A T O M I C   O R B I T A L   A N D
          N A T U R A L   B O N D   O R B I T A L   A N A L Y S I S
 ******************************Gaussian NBO Version 3.1******************************
       /RESON  / : Allow strongly delocalized NBO set

 Analyzing the CI density

 Job title: NFCPRRWCTNLGSN-UHFFFAOYSA-N_conf_1                              

 Storage needed:    221024 in NPA (1073738236 available)
 GSVD:  LWork=       43140 too small for GESVD, short by       15300 words or       15300 for optimal perf.


 NATURAL POPULATIONS:  Natural atomic orbital occupancies 
                                                          
   NAO  Atom  No  lang   Type(AO)    Occupancy
 --------------------------------------------
     1    N    1  S      Cor( 1S)     1.99948
     2    N    1  S      Val( 2S)     1.36478
     3    N    1  S      Ryd( 3S)     0.00013
     4    N    1  S      Ryd( 4S)     0.00001
     5    N    1  px     Val( 2p)     1.46532
     6    N    1  px     Ryd( 3p)     0.00264
     7    N    1  py     Val( 2p)     1.41376
     8    N    1  py     Ryd( 3p)     0.00245
     9    N    1  pz     Val( 2p)     1.54106
    10    N    1  pz     Ryd( 3p)     0.00267
    11    N    1  dxy    Ryd( 3d)     0.00090
    12    N    1  dxz    Ryd( 3d)     0.00094
    13    N    1  dyz    Ryd( 3d)     0.00084
    14    N    1  dx2y2  Ryd( 3d)     0.00026
    15    N    1  dz2    Ryd( 3d)     0.00043

    16    C    2  S      Cor( 1S)     1.99894
    17    C    2  S      Val( 2S)     0.84671
    18    C    2  S      Ryd( 3S)     0.00126
    19    C    2  S      Ryd( 4S)     0.00009
    20    C    2  px     Val( 2p)     1.03225
    21    C    2  px     Ryd( 3p)     0.00436
    22    C    2  py     Val( 2p)     0.96279
    23    C    2  py     Ryd( 3p)     0.00556
    24    C    2  pz     Val( 2p)     0.94681
    25    C    2  pz     Ryd( 3p)     0.00166
    26    C    2  dxy    Ryd( 3d)     0.00119
    27    C    2  dxz    Ryd( 3d)     0.00098
    28    C    2  dyz    Ryd( 3d)     0.00115
    29    C    2  dx2y2  Ryd( 3d)     0.00097
    30    C    2  dz2    Ryd( 3d)     0.00096

    31    C    3  S      Cor( 1S)     1.99905
    32    C    3  S      Val( 2S)     0.94132
    33    C    3  S      Ryd( 3S)     0.00068
    34    C    3  S      Ryd( 4S)     0.00004
    35    C    3  px     Val( 2p)     1.08078
    36    C    3  px     Ryd( 3p)     0.00469
    37    C    3  py     Val( 2p)     1.18605
    38    C    3  py     Ryd( 3p)     0.00415
    39    C    3  pz     Val( 2p)     1.16618
    40    C    3  pz     Ryd( 3p)     0.00581
    41    C    3  dxy    Ryd( 3d)     0.00051
    42    C    3  dxz    Ryd( 3d)     0.00040
    43    C    3  dyz    Ryd( 3d)     0.00041
    44    C    3  dx2y2  Ryd( 3d)     0.00062
    45    C    3  dz2    Ryd( 3d)     0.00049

    46    C    4  S      Cor( 1S)     1.99913
    47    C    4  S      Val( 2S)     0.95096
    48    C    4  S      Ryd( 3S)     0.00054
    49    C    4  S      Ryd( 4S)     0.00003
    50    C    4  px     Val( 2p)     1.17792
    51    C    4  px     Ryd( 3p)     0.00460
    52    C    4  py     Val( 2p)     1.06584
    53    C    4  py     Ryd( 3p)     0.00523
    54    C    4  pz     Val( 2p)     1.10743
    55    C    4  pz     Ryd( 3p)     0.00475
    56    C    4  dxy    Ryd( 3d)     0.00061
    57    C    4  dxz    Ryd( 3d)     0.00041
    58    C    4  dyz    Ryd( 3d)     0.00058
    59    C    4  dx2y2  Ryd( 3d)     0.00060
    60    C    4  dz2    Ryd( 3d)     0.00044

    61    C    5  S      Cor( 1S)     1.99911
    62    C    5  S      Val( 2S)     0.96096
    63    C    5  S      Ryd( 3S)     0.00051
    64    C    5  S      Ryd( 4S)     0.00003
    65    C    5  px     Val( 2p)     1.07369
    66    C    5  px     Ryd( 3p)     0.00419
    67    C    5  py     Val( 2p)     1.13438
    68    C    5  py     Ryd( 3p)     0.00462
    69    C    5  pz     Val( 2p)     1.03984
    70    C    5  pz     Ryd( 3p)     0.00209
    71    C    5  dxy    Ryd( 3d)     0.00062
    72    C    5  dxz    Ryd( 3d)     0.00067
    73    C    5  dyz    Ryd( 3d)     0.00067
    74    C    5  dx2y2  Ryd( 3d)     0.00072
    75    C    5  dz2    Ryd( 3d)     0.00037

    76    C    6  S      Cor( 1S)     1.99905
    77    C    6  S      Val( 2S)     0.94191
    78    C    6  S      Ryd( 3S)     0.00076
    79    C    6  S      Ryd( 4S)     0.00004
    80    C    6  px     Val( 2p)     1.10565
    81    C    6  px     Ryd( 3p)     0.00459
    82    C    6  py     Val( 2p)     1.16591
    83    C    6  py     Ryd( 3p)     0.00426
    84    C    6  pz     Val( 2p)     1.15960
    85    C    6  pz     Ryd( 3p)     0.00745
    86    C    6  dxy    Ryd( 3d)     0.00067
    87    C    6  dxz    Ryd( 3d)     0.00038
    88    C    6  dyz    Ryd( 3d)     0.00043
    89    C    6  dx2y2  Ryd( 3d)     0.00048
    90    C    6  dz2    Ryd( 3d)     0.00051

    91    C    7  S      Cor( 1S)     1.99886
    92    C    7  S      Val( 2S)     0.82541
    93    C    7  S      Ryd( 3S)     0.00120
    94    C    7  S      Ryd( 4S)     0.00008
    95    C    7  px     Val( 2p)     0.93601
    96    C    7  px     Ryd( 3p)     0.00601
    97    C    7  py     Val( 2p)     1.09145
    98    C    7  py     Ryd( 3p)     0.00435
    99    C    7  pz     Val( 2p)     1.12516
   100    C    7  pz     Ryd( 3p)     0.00543
   101    C    7  dxy    Ryd( 3d)     0.00082
   102    C    7  dxz    Ryd( 3d)     0.00083
   103    C    7  dyz    Ryd( 3d)     0.00066
   104    C    7  dx2y2  Ryd( 3d)     0.00094
   105    C    7  dz2    Ryd( 3d)     0.00069

   106    N    8  S      Cor( 1S)     1.99937
   107    N    8  S      Val( 2S)     1.26713
   108    N    8  S      Ryd( 3S)     0.00038
   109    N    8  S      Ryd( 4S)     0.00002
   110    N    8  px     Val( 2p)     1.28085
   111    N    8  px     Ryd( 3p)     0.00128
   112    N    8  py     Val( 2p)     1.47163
   113    N    8  py     Ryd( 3p)     0.00388
   114    N    8  pz     Val( 2p)     1.44205
   115    N    8  pz     Ryd( 3p)     0.00263
   116    N    8  dxy    Ryd( 3d)     0.00043
   117    N    8  dxz    Ryd( 3d)     0.00095
   118    N    8  dyz    Ryd( 3d)     0.00059
   119    N    8  dx2y2  Ryd( 3d)     0.00092
   120    N    8  dz2    Ryd( 3d)     0.00049

   121    C    9  S      Cor( 1S)     1.99896
   122    C    9  S      Val( 2S)     0.85042
   123    C    9  S      Ryd( 3S)     0.00125
   124    C    9  S      Ryd( 4S)     0.00010
   125    C    9  px     Val( 2p)     0.93685
   126    C    9  px     Ryd( 3p)     0.00500
   127    C    9  py     Val( 2p)     1.04051
   128    C    9  py     Ryd( 3p)     0.00328
   129    C    9  pz     Val( 2p)     1.01103
   130    C    9  pz     Ryd( 3p)     0.00430
   131    C    9  dxy    Ryd( 3d)     0.00100
   132    C    9  dxz    Ryd( 3d)     0.00124
   133    C    9  dyz    Ryd( 3d)     0.00046
   134    C    9  dx2y2  Ryd( 3d)     0.00082
   135    C    9  dz2    Ryd( 3d)     0.00082

   136    C   10  S      Cor( 1S)     1.99905
   137    C   10  S      Val( 2S)     0.96136
   138    C   10  S      Ryd( 3S)     0.00067
   139    C   10  S      Ryd( 4S)     0.00004
   140    C   10  px     Val( 2p)     1.05745
   141    C   10  px     Ryd( 3p)     0.00436
   142    C   10  py     Val( 2p)     1.08180
   143    C   10  py     Ryd( 3p)     0.00304
   144    C   10  pz     Val( 2p)     1.13682
   145    C   10  pz     Ryd( 3p)     0.00340
   146    C   10  dxy    Ryd( 3d)     0.00057
   147    C   10  dxz    Ryd( 3d)     0.00057
   148    C   10  dyz    Ryd( 3d)     0.00050
   149    C   10  dx2y2  Ryd( 3d)     0.00045
   150    C   10  dz2    Ryd( 3d)     0.00043

   151    C   11  S      Cor( 1S)     1.99913
   152    C   11  S      Val( 2S)     0.96758
   153    C   11  S      Ryd( 3S)     0.00061
   154    C   11  S      Ryd( 4S)     0.00003
   155    C   11  px     Val( 2p)     1.16249
   156    C   11  px     Ryd( 3p)     0.00516
   157    C   11  py     Val( 2p)     1.03566
   158    C   11  py     Ryd( 3p)     0.00228
   159    C   11  pz     Val( 2p)     1.05624
   160    C   11  pz     Ryd( 3p)     0.00324
   161    C   11  dxy    Ryd( 3d)     0.00056
   162    C   11  dxz    Ryd( 3d)     0.00060
   163    C   11  dyz    Ryd( 3d)     0.00041
   164    C   11  dx2y2  Ryd( 3d)     0.00053
   165    C   11  dz2    Ryd( 3d)     0.00059

   166    C   12  S      Cor( 1S)     1.99910
   167    C   12  S      Val( 2S)     0.97030
   168    C   12  S      Ryd( 3S)     0.00053
   169    C   12  S      Ryd( 4S)     0.00003
   170    C   12  px     Val( 2p)     1.17321
   171    C   12  px     Ryd( 3p)     0.00483
   172    C   12  py     Val( 2p)     1.02361
   173    C   12  py     Ryd( 3p)     0.00302
   174    C   12  pz     Val( 2p)     1.05273
   175    C   12  pz     Ryd( 3p)     0.00369
   176    C   12  dxy    Ryd( 3d)     0.00050
   177    C   12  dxz    Ryd( 3d)     0.00059
   178    C   12  dyz    Ryd( 3d)     0.00040
   179    C   12  dx2y2  Ryd( 3d)     0.00057
   180    C   12  dz2    Ryd( 3d)     0.00052

   181    C   13  S      Cor( 1S)     1.99913
   182    C   13  S      Val( 2S)     0.96712
   183    C   13  S      Ryd( 3S)     0.00063
   184    C   13  S      Ryd( 4S)     0.00003
   185    C   13  px     Val( 2p)     1.05851
   186    C   13  px     Ryd( 3p)     0.00468
   187    C   13  py     Val( 2p)     1.07381
   188    C   13  py     Ryd( 3p)     0.00270
   189    C   13  pz     Val( 2p)     1.12637
   190    C   13  pz     Ryd( 3p)     0.00372
   191    C   13  dxy    Ryd( 3d)     0.00062
   192    C   13  dxz    Ryd( 3d)     0.00061
   193    C   13  dyz    Ryd( 3d)     0.00052
   194    C   13  dx2y2  Ryd( 3d)     0.00047
   195    C   13  dz2    Ryd( 3d)     0.00045

   196    C   14  S      Cor( 1S)     1.99905
   197    C   14  S      Val( 2S)     0.96278
   198    C   14  S      Ryd( 3S)     0.00069
   199    C   14  S      Ryd( 4S)     0.00004
   200    C   14  px     Val( 2p)     1.17850
   201    C   14  px     Ryd( 3p)     0.00404
   202    C   14  py     Val( 2p)     1.03405
   203    C   14  py     Ryd( 3p)     0.00223
   204    C   14  pz     Val( 2p)     1.05271
   205    C   14  pz     Ryd( 3p)     0.00284
   206    C   14  dxy    Ryd( 3d)     0.00050
   207    C   14  dxz    Ryd( 3d)     0.00051
   208    C   14  dyz    Ryd( 3d)     0.00045
   209    C   14  dx2y2  Ryd( 3d)     0.00057
   210    C   14  dz2    Ryd( 3d)     0.00053

   211    H   15  S      Val( 1S)     0.57690
   212    H   15  S      Ryd( 2S)     0.00133
   213    H   15  px     Ryd( 2p)     0.00046
   214    H   15  py     Ryd( 2p)     0.00029
   215    H   15  pz     Ryd( 2p)     0.00052

   216    H   16  S      Val( 1S)     0.57646
   217    H   16  S      Ryd( 2S)     0.00186
   218    H   16  px     Ryd( 2p)     0.00038
   219    H   16  py     Ryd( 2p)     0.00045
   220    H   16  pz     Ryd( 2p)     0.00041

   221    H   17  S      Val( 1S)     0.76994
   222    H   17  S      Ryd( 2S)     0.00096
   223    H   17  px     Ryd( 2p)     0.00014
   224    H   17  py     Ryd( 2p)     0.00033
   225    H   17  pz     Ryd( 2p)     0.00019

   226    H   18  S      Val( 1S)     0.77038
   227    H   18  S      Ryd( 2S)     0.00086
   228    H   18  px     Ryd( 2p)     0.00037
   229    H   18  py     Ryd( 2p)     0.00008
   230    H   18  pz     Ryd( 2p)     0.00021

   231    H   19  S      Val( 1S)     0.76401
   232    H   19  S      Ryd( 2S)     0.00083
   233    H   19  px     Ryd( 2p)     0.00017
   234    H   19  py     Ryd( 2p)     0.00027
   235    H   19  pz     Ryd( 2p)     0.00018

   236    H   20  S      Val( 1S)     0.76857
   237    H   20  S      Ryd( 2S)     0.00079
   238    H   20  px     Ryd( 2p)     0.00013
   239    H   20  py     Ryd( 2p)     0.00034
   240    H   20  pz     Ryd( 2p)     0.00020

   241    H   21  S      Val( 1S)     0.57381
   242    H   21  S      Ryd( 2S)     0.00775
   243    H   21  px     Ryd( 2p)     0.00016
   244    H   21  py     Ryd( 2p)     0.00058
   245    H   21  pz     Ryd( 2p)     0.00040

   246    H   22  S      Val( 1S)     0.74704
   247    H   22  S      Ryd( 2S)     0.00158
   248    H   22  px     Ryd( 2p)     0.00005
   249    H   22  py     Ryd( 2p)     0.00023
   250    H   22  pz     Ryd( 2p)     0.00031

   251    H   23  S      Val( 1S)     0.74445
   252    H   23  S      Ryd( 2S)     0.00081
   253    H   23  px     Ryd( 2p)     0.00032
   254    H   23  py     Ryd( 2p)     0.00014
   255    H   23  pz     Ryd( 2p)     0.00014

   256    H   24  S      Val( 1S)     0.74683
   257    H   24  S      Ryd( 2S)     0.00080
   258    H   24  px     Ryd( 2p)     0.00034
   259    H   24  py     Ryd( 2p)     0.00012
   260    H   24  pz     Ryd( 2p)     0.00014

   261    H   25  S      Val( 1S)     0.74508
   262    H   25  S      Ryd( 2S)     0.00076
   263    H   25  px     Ryd( 2p)     0.00006
   264    H   25  py     Ryd( 2p)     0.00023
   265    H   25  pz     Ryd( 2p)     0.00030

   266    H   26  S      Val( 1S)     0.73762
   267    H   26  S      Ryd( 2S)     0.00094
   268    H   26  px     Ryd( 2p)     0.00032
   269    H   26  py     Ryd( 2p)     0.00015
   270    H   26  pz     Ryd( 2p)     0.00013

 WARNING:  1 low occupancy (<1.9990e) core orbital  found on  C    2
           1 low occupancy (<1.9990e) core orbital  found on  C    7
           1 low occupancy (<1.9990e) core orbital  found on  C    9


 Summary of Natural Population Analysis:                  
                                                          
                                       Natural Population 
                Natural  -----------------------------------------------
    Atom  No    Charge         Core      Valence    Rydberg      Total
 -----------------------------------------------------------------------
      N    1   -0.79568      1.99948     5.78492    0.01127     7.79568
      C    2    0.19431      1.99894     3.78856    0.01819     5.80569
      C    3   -0.39118      1.99905     4.37434    0.01780     6.39118
      C    4   -0.31907      1.99913     4.30215    0.01779     6.31907
      C    5   -0.22247      1.99911     4.20888    0.01448     6.22247
      C    6   -0.39167      1.99905     4.37307    0.01955     6.39167
      C    7    0.00210      1.99886     3.97803    0.02101     5.99790
      N    8   -0.47260      1.99937     5.46166    0.01157     7.47260
      C    9    0.14397      1.99896     3.83881    0.01827     5.85603
      C   10   -0.25051      1.99905     4.23743    0.01402     6.25051
      C   11   -0.23510      1.99913     4.22196    0.01401     6.23510
      C   12   -0.23362      1.99910     4.21984    0.01468     6.23362
      C   13   -0.23936      1.99913     4.22580    0.01443     6.23936
      C   14   -0.23950      1.99905     4.22804    0.01241     6.23950
      H   15    0.42051      0.00000     0.57690    0.00260     0.57949
      H   16    0.42044      0.00000     0.57646    0.00310     0.57956
      H   17    0.22845      0.00000     0.76994    0.00162     0.77155
      H   18    0.22811      0.00000     0.77038    0.00151     0.77189
      H   19    0.23454      0.00000     0.76401    0.00145     0.76546
      H   20    0.22996      0.00000     0.76857    0.00147     0.77004
      H   21    0.41731      0.00000     0.57381    0.00889     0.58269
      H   22    0.25078      0.00000     0.74704    0.00218     0.74922
      H   23    0.25414      0.00000     0.74445    0.00141     0.74586
      H   24    0.25177      0.00000     0.74683    0.00140     0.74823
      H   25    0.25356      0.00000     0.74508    0.00135     0.74644
      H   26    0.26084      0.00000     0.73762    0.00154     0.73916
 =======================================================================
   * Total *   -0.00000     27.98741    69.76460    0.24799    98.00000

                                 Natural Population      
 --------------------------------------------------------
   Core                      27.98741 ( 99.9550% of  28)
   Valence                   69.76460 ( 99.6637% of  70)
   Natural Minimal Basis     97.75201 ( 99.7469% of  98)
   Natural Rydberg Basis      0.24799 (  0.2531% of  98)
 --------------------------------------------------------

    Atom  No          Natural Electron Configuration
 ----------------------------------------------------------------------------
      N    1      [core]2S( 1.36)2p( 4.42)3p( 0.01)
      C    2      [core]2S( 0.85)2p( 2.94)3p( 0.01)3d( 0.01)
      C    3      [core]2S( 0.94)2p( 3.43)3p( 0.01)
      C    4      [core]2S( 0.95)2p( 3.35)3p( 0.01)
      C    5      [core]2S( 0.96)2p( 3.25)3p( 0.01)
      C    6      [core]2S( 0.94)2p( 3.43)3p( 0.02)
      C    7      [core]2S( 0.83)2p( 3.15)3p( 0.02)
      N    8      [core]2S( 1.27)2p( 4.19)3p( 0.01)
      C    9      [core]2S( 0.85)2p( 2.99)3p( 0.01)
      C   10      [core]2S( 0.96)2p( 3.28)3p( 0.01)
      C   11      [core]2S( 0.97)2p( 3.25)3p( 0.01)
      C   12      [core]2S( 0.97)2p( 3.25)3p( 0.01)
      C   13      [core]2S( 0.97)2p( 3.26)3p( 0.01)
      C   14      [core]2S( 0.96)2p( 3.27)3p( 0.01)
      H   15            1S( 0.58)
      H   16            1S( 0.58)
      H   17            1S( 0.77)
      H   18            1S( 0.77)
      H   19            1S( 0.76)
      H   20            1S( 0.77)
      H   21            1S( 0.57)2S( 0.01)
      H   22            1S( 0.75)
      H   23            1S( 0.74)
      H   24            1S( 0.75)
      H   25            1S( 0.75)
      H   26            1S( 0.74)


 NBO analysis skipped by request.
 1\1\GINC-CN11\SP\RB3LYP TD-FC\6-31G(d,p)\C12H12N2\QDUEZ\11-Jul-2024\0\
 \# TD(NStates=10, Root=1) B3LYP/6-31G** SCRF=(Solvent=water) volume po
 p=NPA density=current Geom=AllCheck Guess=Read\\NFCPRRWCTNLGSN-UHFFFAO
 YSA-N_conf_1\\0,1\N,0,1.4982983896,-1.6950417921,0.7231981694\C,0,1.88
 85404114,-0.5641419343,0.0115813724\C,0,3.1779612193,-0.0204574725,0.1
 490870706\C,0,3.5532392238,1.1207843087,-0.5562140036\C,0,2.6500427404
 ,1.752563602,-1.4150624939\C,0,1.3604277694,1.2347447482,-1.5420843786
 \C,0,0.9668258273,0.0912322841,-0.840564876\N,0,-0.3282370061,-0.47750
 81848,-1.0310698879\C,0,-1.3867713148,-0.3067289715,-0.1220086462\C,0,
 -2.6858714935,-0.6826366363,-0.5144043626\C,0,-3.7558382122,-0.5593015
 72,0.3677507164\C,0,-3.5606418422,-0.0662703516,1.6618423517\C,0,-2.27
 36015115,0.3078338704,2.0525205858\C,0,-1.1932242427,0.1961267723,1.17
 60389438\H,0,0.7332338624,-2.1961397095,0.285969274\H,0,2.2573577617,-
 2.31256958,0.9814640312\H,0,3.8901365878,-0.5166527215,0.8033395954\H,
 0,4.5599406738,1.5116757417,-0.4389996332\H,0,2.94029028,2.6385804794,
 -1.9705248476\H,0,0.6377615955,1.7146088944,-2.1970311246\H,0,-0.63199
 42503,-0.4768183336,-1.9967517367\H,0,-2.8475862979,-1.0711453267,-1.5
 169546557\H,0,-4.749631523,-0.8513671479,0.0396110054\H,0,-4.395750617
 7,0.0266609682,2.3489556911\H,0,-2.1021510333,0.6998670802,3.051454490
 1\H,0,-0.2027569969,0.5021009849,1.4922345242\\Version=EM64L-G16RevA.0
 3\State=1-A\HF=-574.037908\RMSD=3.023e-09\Dipole=-1.918212,-1.4989164,
 0.0590105\Quadrupole=-0.933732,0.0948975,0.8388345,-3.1297012,3.149348
 4,0.9325854\PG=C01 [X(C12H12N2)]\\@


 TO DRY ONE'S EYES AND LAUGH AT A FALL
 AND BAFFLED, GET UP AND BEGIN AGAIN.
           R. BROWNING
 Job cpu time:       0 days  1 hours 18 minutes 10.8 seconds.
 Elapsed time:       0 days  0 hours 20 minutes  1.3 seconds.
 File lengths (MBytes):  RWF=    624 Int=      0 D2E=      0 Chk=     39 Scr=      1
 Normal termination of Gaussian 16 at Thu Jul 11 21:57:41 2024.
