 Entering Gaussian System, Link 0=g16
 Initial command:
 /opt/sw/arch/manual/gaussian/G16_A03/g16/l1.exe "/scratch/1380905/Gau-110972.inp" -scrdir="/scratch/1380905/"
 Entering Link 1 = /opt/sw/arch/manual/gaussian/G16_A03/g16/l1.exe PID=    110973.
  
 Copyright (c) 1988,1990,1992,1993,1995,1998,2003,2009,2016,
            Gaussian, Inc.  All Rights Reserved.
  
 This is part of the Gaussian(R) 16 program.  It is based on
 the Gaussian(R) 09 system (copyright 2009, Gaussian, Inc.),
 the Gaussian(R) 03 system (copyright 2003, Gaussian, Inc.),
 the Gaussian(R) 98 system (copyright 1998, Gaussian, Inc.),
 the Gaussian(R) 94 system (copyright 1995, Gaussian, Inc.),
 the Gaussian 92(TM) system (copyright 1992, Gaussian, Inc.),
 the Gaussian 90(TM) system (copyright 1990, Gaussian, Inc.),
 the Gaussian 88(TM) system (copyright 1988, Gaussian, Inc.),
 the Gaussian 86(TM) system (copyright 1986, Carnegie Mellon
 University), and the Gaussian 82(TM) system (copyright 1983,
 Carnegie Mellon University). Gaussian is a federally registered
 trademark of Gaussian, Inc.
  
 This software contains proprietary and confidential information,
 including trade secrets, belonging to Gaussian, Inc.
  
 This software is provided under written license and may be
 used, copied, transmitted, or stored only in accord with that
 written license.
  
 The following legend is applicable only to US Government
 contracts under FAR:
  
                    RESTRICTED RIGHTS LEGEND
  
 Use, reproduction and disclosure by the US Government is
 subject to restrictions as set forth in subparagraphs (a)
 and (c) of the Commercial Computer Software - Restricted
 Rights clause in FAR 52.227-19.
  
 Gaussian, Inc.
 340 Quinnipiac St., Bldg. 40, Wallingford CT 06492
  
  
 ---------------------------------------------------------------
 Warning -- This program may not be used in any manner that
 competes with the business of Gaussian, Inc. or will provide
 assistance to any competitor of Gaussian, Inc.  The licensee
 of this program is prohibited from giving any competitor of
 Gaussian, Inc. access to this program.  By using this program,
 the user acknowledges that Gaussian, Inc. is engaged in the
 business of creating and licensing software in the field of
 computational chemistry and represents and warrants to the
 licensee that it is not a competitor of Gaussian, Inc. and that
 it will not use this program in any manner prohibited above.
 ---------------------------------------------------------------
  

 Cite this work as:
 Gaussian 16, Revision A.03,
 M. J. Frisch, G. W. Trucks, H. B. Schlegel, G. E. Scuseria, 
 M. A. Robb, J. R. Cheeseman, G. Scalmani, V. Barone, 
 G. A. Petersson, H. Nakatsuji, X. Li, M. Caricato, A. V. Marenich, 
 J. Bloino, B. G. Janesko, R. Gomperts, B. Mennucci, H. P. Hratchian, 
 J. V. Ortiz, A. F. Izmaylov, J. L. Sonnenberg, D. Williams-Young, 
 F. Ding, F. Lipparini, F. Egidi, J. Goings, B. Peng, A. Petrone, 
 T. Henderson, D. Ranasinghe, V. G. Zakrzewski, J. Gao, N. Rega, 
 G. Zheng, W. Liang, M. Hada, M. Ehara, K. Toyota, R. Fukuda, 
 J. Hasegawa, M. Ishida, T. Nakajima, Y. Honda, O. Kitao, H. Nakai, 
 T. Vreven, K. Throssell, J. A. Montgomery, Jr., J. E. Peralta, 
 F. Ogliaro, M. J. Bearpark, J. J. Heyd, E. N. Brothers, K. N. Kudin, 
 V. N. Staroverov, T. A. Keith, R. Kobayashi, J. Normand, 
 K. Raghavachari, A. P. Rendell, J. C. Burant, S. S. Iyengar, 
 J. Tomasi, M. Cossi, J. M. Millam, M. Klene, C. Adamo, R. Cammi, 
 J. W. Ochterski, R. L. Martin, K. Morokuma, O. Farkas, 
 J. B. Foresman, and D. J. Fox, Gaussian, Inc., Wallingford CT, 2016.
 
 ******************************************
 Gaussian 16:  ES64L-G16RevA.03 25-Dec-2016
                18-Jul-2024 
 ******************************************
 %nprocshared=6
 Will use up to    6 processors via shared memory.
 %mem=12GB
 %Chk=KLNPWTHGTVSSEU-UHFFFAOYSA-N_conf_1_0.chk
 -------------------------------------------------------
 # opt=CalcFc B3LYP/6-31G** SCRF=(Solvent=water) scf=xqc
 -------------------------------------------------------
 1/10=4,18=20,19=15,26=3,38=1/1,3;
 2/9=110,12=2,17=6,18=5,40=1/2;
 3/5=1,6=6,7=101,11=2,25=1,30=1,70=2201,71=2,72=1,74=-5,140=1/1,2,3;
 4//1;
 5/5=2,8=3,13=1,38=5,53=1/2,8;
 8/6=4,10=90,11=11/1;
 11/6=1,8=1,9=11,15=111,16=1/1,2,10;
 10/6=1,13=1/2;
 6/7=2,8=2,9=2,10=2,28=1/1;
 7/10=1,18=20,25=1/1,2,3,16;
 1/10=4,18=20,19=15,26=3/3(2);
 2/9=110/2;
 99//99;
 2/9=110/2;
 3/5=1,6=6,7=101,11=2,25=1,30=1,70=2205,71=1,72=1,74=-5/1,2,3;
 4/5=5,16=3,69=1/1;
 5/5=2,8=3,13=1,38=5,53=1/2,8;
 7//1,2,3,16;
 1/18=20,19=15,26=3/3(-5);
 2/9=110/2;
 6/7=2,8=2,9=2,10=2,19=2,28=1/1;
 99/9=1/99;
 ----------------------------------
 KLNPWTHGTVSSEU-UHFFFAOYSA-N_conf_1
 ----------------------------------
 Symbolic Z-matrix:
 Charge =  0 Multiplicity = 1
 N                     5.58198   1.72578   0.39571 
 C                     4.31928   1.66764  -0.33047 
 C                     3.73037   0.25492  -0.36781 
 C                     3.2853   -0.2569    1.00586 
 C                     2.7159   -1.67959   0.97064 
 C                     1.47979  -1.88753   0.09024 
 C                     0.29019  -1.01372   0.4925 
 C                    -0.94933  -1.34797  -0.34071 
 C                    -2.14028  -0.47284   0.05722 
 C                    -3.37678  -0.80684  -0.78024 
 C                    -4.63059  -0.04013  -0.34782 
 C                    -4.52874   1.46646  -0.58345 
 N                    -5.79139   2.11455  -0.24518 
 H                     5.42794   1.50905   1.37906 
 H                     5.94046   2.6797    0.37168 
 H                     4.49642   2.00285  -1.35829 
 H                     3.60338   2.36396   0.12012 
 H                     4.46051  -0.43916  -0.80254 
 H                     2.87063   0.27443  -1.04726 
 H                     4.14071  -0.26385   1.6915 
 H                     2.55058   0.4315    1.43864 
 H                     2.47064  -1.97751   1.99786 
 H                     3.50129  -2.36668   0.63154 
 H                     1.18876  -2.94327   0.16166 
 H                     1.73243  -1.71152  -0.96155 
 H                     0.0683   -1.16129   1.55625 
 H                     0.53831   0.04464   0.35463 
 H                    -0.72644  -1.20302  -1.40485 
 H                    -1.20882  -2.40497  -0.20518 
 H                    -2.36496  -0.62068   1.12036 
 H                    -1.86995   0.58065  -0.07523 
 H                    -3.17177  -0.60892  -1.83941 
 H                    -3.58728  -1.88025  -0.69497 
 H                    -4.83483  -0.24207   0.71131 
 H                    -5.48304  -0.43747  -0.91407 
 H                    -4.29395   1.66909  -1.63369 
 H                    -3.73374   1.90271   0.02915 
 H                    -6.0065    1.95542   0.7383 
 H                    -5.69478   3.12284  -0.35749 
 

 GradGradGradGradGradGradGradGradGradGradGradGradGradGradGradGradGradGrad
 Berny optimization.
 Initialization pass.
                           ----------------------------
                           !    Initial Parameters    !
                           ! (Angstroms and Degrees)  !
 --------------------------                            --------------------------
 ! Name  Definition              Value          Derivative Info.                !
 --------------------------------------------------------------------------------
 ! R1    R(1,2)                  1.4578         calculate D2E/DX2 analytically  !
 ! R2    R(1,14)                 1.0187         calculate D2E/DX2 analytically  !
 ! R3    R(1,15)                 1.0193         calculate D2E/DX2 analytically  !
 ! R4    R(2,3)                  1.531          calculate D2E/DX2 analytically  !
 ! R5    R(2,16)                 1.0955         calculate D2E/DX2 analytically  !
 ! R6    R(2,17)                 1.0956         calculate D2E/DX2 analytically  !
 ! R7    R(3,4)                  1.532          calculate D2E/DX2 analytically  !
 ! R8    R(3,18)                 1.0972         calculate D2E/DX2 analytically  !
 ! R9    R(3,19)                 1.096          calculate D2E/DX2 analytically  !
 ! R10   R(4,5)                  1.5328         calculate D2E/DX2 analytically  !
 ! R11   R(4,20)                 1.0963         calculate D2E/DX2 analytically  !
 ! R12   R(4,21)                 1.0959         calculate D2E/DX2 analytically  !
 ! R13   R(5,6)                  1.5318         calculate D2E/DX2 analytically  !
 ! R14   R(5,22)                 1.0973         calculate D2E/DX2 analytically  !
 ! R15   R(5,23)                 1.0972         calculate D2E/DX2 analytically  !
 ! R16   R(6,7)                  1.5299         calculate D2E/DX2 analytically  !
 ! R17   R(6,24)                 1.0974         calculate D2E/DX2 analytically  !
 ! R18   R(6,25)                 1.0959         calculate D2E/DX2 analytically  !
 ! R19   R(7,8)                  1.5305         calculate D2E/DX2 analytically  !
 ! R20   R(7,26)                 1.0966         calculate D2E/DX2 analytically  !
 ! R21   R(7,27)                 1.0958         calculate D2E/DX2 analytically  !
 ! R22   R(8,9)                  1.5305         calculate D2E/DX2 analytically  !
 ! R23   R(8,28)                 1.0968         calculate D2E/DX2 analytically  !
 ! R24   R(8,29)                 1.0968         calculate D2E/DX2 analytically  !
 ! R25   R(9,10)                 1.5303         calculate D2E/DX2 analytically  !
 ! R26   R(9,30)                 1.0966         calculate D2E/DX2 analytically  !
 ! R27   R(9,31)                 1.0956         calculate D2E/DX2 analytically  !
 ! R28   R(10,11)                1.532          calculate D2E/DX2 analytically  !
 ! R29   R(10,32)                1.0968         calculate D2E/DX2 analytically  !
 ! R30   R(10,33)                1.0972         calculate D2E/DX2 analytically  !
 ! R31   R(11,12)                1.5283         calculate D2E/DX2 analytically  !
 ! R32   R(11,34)                1.0974         calculate D2E/DX2 analytically  !
 ! R33   R(11,35)                1.0978         calculate D2E/DX2 analytically  !
 ! R34   R(12,13)                1.459          calculate D2E/DX2 analytically  !
 ! R35   R(12,36)                1.0951         calculate D2E/DX2 analytically  !
 ! R36   R(12,37)                1.0944         calculate D2E/DX2 analytically  !
 ! R37   R(13,38)                1.0192         calculate D2E/DX2 analytically  !
 ! R38   R(13,39)                1.0191         calculate D2E/DX2 analytically  !
 ! A1    A(2,1,14)             109.9629         calculate D2E/DX2 analytically  !
 ! A2    A(2,1,15)             109.2808         calculate D2E/DX2 analytically  !
 ! A3    A(14,1,15)            105.9646         calculate D2E/DX2 analytically  !
 ! A4    A(1,2,3)              112.4659         calculate D2E/DX2 analytically  !
 ! A5    A(1,2,16)             108.3672         calculate D2E/DX2 analytically  !
 ! A6    A(1,2,17)             109.6185         calculate D2E/DX2 analytically  !
 ! A7    A(3,2,16)             108.7632         calculate D2E/DX2 analytically  !
 ! A8    A(3,2,17)             110.1897         calculate D2E/DX2 analytically  !
 ! A9    A(16,2,17)            107.2794         calculate D2E/DX2 analytically  !
 ! A10   A(2,3,4)              113.4629         calculate D2E/DX2 analytically  !
 ! A11   A(2,3,18)             109.7189         calculate D2E/DX2 analytically  !
 ! A12   A(2,3,19)             107.4835         calculate D2E/DX2 analytically  !
 ! A13   A(4,3,18)             109.7095         calculate D2E/DX2 analytically  !
 ! A14   A(4,3,19)             109.5073         calculate D2E/DX2 analytically  !
 ! A15   A(18,3,19)            106.7177         calculate D2E/DX2 analytically  !
 ! A16   A(3,4,5)              113.4158         calculate D2E/DX2 analytically  !
 ! A17   A(3,4,20)             109.6466         calculate D2E/DX2 analytically  !
 ! A18   A(3,4,21)             109.816          calculate D2E/DX2 analytically  !
 ! A19   A(5,4,20)             107.3583         calculate D2E/DX2 analytically  !
 ! A20   A(5,4,21)             110.0632         calculate D2E/DX2 analytically  !
 ! A21   A(20,4,21)            106.2666         calculate D2E/DX2 analytically  !
 ! A22   A(4,5,6)              116.0393         calculate D2E/DX2 analytically  !
 ! A23   A(4,5,22)             108.2712         calculate D2E/DX2 analytically  !
 ! A24   A(4,5,23)             108.8093         calculate D2E/DX2 analytically  !
 ! A25   A(6,5,22)             108.7126         calculate D2E/DX2 analytically  !
 ! A26   A(6,5,23)             108.3604         calculate D2E/DX2 analytically  !
 ! A27   A(22,5,23)            106.2168         calculate D2E/DX2 analytically  !
 ! A28   A(5,6,7)              113.5053         calculate D2E/DX2 analytically  !
 ! A29   A(5,6,24)             107.8904         calculate D2E/DX2 analytically  !
 ! A30   A(5,6,25)             110.1072         calculate D2E/DX2 analytically  !
 ! A31   A(7,6,24)             109.035          calculate D2E/DX2 analytically  !
 ! A32   A(7,6,25)             109.8683         calculate D2E/DX2 analytically  !
 ! A33   A(24,6,25)            106.1462         calculate D2E/DX2 analytically  !
 ! A34   A(6,7,8)              111.2152         calculate D2E/DX2 analytically  !
 ! A35   A(6,7,26)             109.6043         calculate D2E/DX2 analytically  !
 ! A36   A(6,7,27)             110.0302         calculate D2E/DX2 analytically  !
 ! A37   A(8,7,26)             109.5625         calculate D2E/DX2 analytically  !
 ! A38   A(8,7,27)             109.0158         calculate D2E/DX2 analytically  !
 ! A39   A(26,7,27)            107.3281         calculate D2E/DX2 analytically  !
 ! A40   A(7,8,9)              111.3324         calculate D2E/DX2 analytically  !
 ! A41   A(7,8,28)             109.5566         calculate D2E/DX2 analytically  !
 ! A42   A(7,8,29)             109.5608         calculate D2E/DX2 analytically  !
 ! A43   A(9,8,28)             109.5604         calculate D2E/DX2 analytically  !
 ! A44   A(9,8,29)             109.5608         calculate D2E/DX2 analytically  !
 ! A45   A(28,8,29)            107.1768         calculate D2E/DX2 analytically  !
 ! A46   A(8,9,10)             111.2018         calculate D2E/DX2 analytically  !
 ! A47   A(8,9,30)             109.5355         calculate D2E/DX2 analytically  !
 ! A48   A(8,9,31)             109.0476         calculate D2E/DX2 analytically  !
 ! A49   A(10,9,30)            109.6069         calculate D2E/DX2 analytically  !
 ! A50   A(10,9,31)            110.0639         calculate D2E/DX2 analytically  !
 ! A51   A(30,9,31)            107.2998         calculate D2E/DX2 analytically  !
 ! A52   A(9,10,11)            113.4281         calculate D2E/DX2 analytically  !
 ! A53   A(9,10,32)            109.7578         calculate D2E/DX2 analytically  !
 ! A54   A(9,10,33)            109.0275         calculate D2E/DX2 analytically  !
 ! A55   A(11,10,32)           109.5873         calculate D2E/DX2 analytically  !
 ! A56   A(11,10,33)           108.1003         calculate D2E/DX2 analytically  !
 ! A57   A(32,10,33)           106.7056         calculate D2E/DX2 analytically  !
 ! A58   A(10,11,12)           113.2849         calculate D2E/DX2 analytically  !
 ! A59   A(10,11,34)           109.4299         calculate D2E/DX2 analytically  !
 ! A60   A(10,11,35)           107.9857         calculate D2E/DX2 analytically  !
 ! A61   A(12,11,34)           110.0365         calculate D2E/DX2 analytically  !
 ! A62   A(12,11,35)           109.2093         calculate D2E/DX2 analytically  !
 ! A63   A(34,11,35)           106.6603         calculate D2E/DX2 analytically  !
 ! A64   A(11,12,13)           110.149          calculate D2E/DX2 analytically  !
 ! A65   A(11,12,36)           110.1555         calculate D2E/DX2 analytically  !
 ! A66   A(11,12,37)           110.7983         calculate D2E/DX2 analytically  !
 ! A67   A(13,12,36)           109.009          calculate D2E/DX2 analytically  !
 ! A68   A(13,12,37)           108.773          calculate D2E/DX2 analytically  !
 ! A69   A(36,12,37)           107.8992         calculate D2E/DX2 analytically  !
 ! A70   A(12,13,38)           109.6949         calculate D2E/DX2 analytically  !
 ! A71   A(12,13,39)           109.3831         calculate D2E/DX2 analytically  !
 ! A72   A(38,13,39)           106.3093         calculate D2E/DX2 analytically  !
 ! D1    D(14,1,2,3)           -65.412          calculate D2E/DX2 analytically  !
 ! D2    D(14,1,2,16)          174.3194         calculate D2E/DX2 analytically  !
 ! D3    D(14,1,2,17)           57.5366         calculate D2E/DX2 analytically  !
 ! D4    D(15,1,2,3)           178.6702         calculate D2E/DX2 analytically  !
 ! D5    D(15,1,2,16)           58.4016         calculate D2E/DX2 analytically  !
 ! D6    D(15,1,2,17)          -58.3812         calculate D2E/DX2 analytically  !
 ! D7    D(1,2,3,4)             66.8071         calculate D2E/DX2 analytically  !
 ! D8    D(1,2,3,18)           -56.2944         calculate D2E/DX2 analytically  !
 ! D9    D(1,2,3,19)          -171.9698         calculate D2E/DX2 analytically  !
 ! D10   D(16,2,3,4)          -173.1534         calculate D2E/DX2 analytically  !
 ! D11   D(16,2,3,18)           63.7452         calculate D2E/DX2 analytically  !
 ! D12   D(16,2,3,19)          -51.9302         calculate D2E/DX2 analytically  !
 ! D13   D(17,2,3,4)           -55.8205         calculate D2E/DX2 analytically  !
 ! D14   D(17,2,3,18)         -178.9219         calculate D2E/DX2 analytically  !
 ! D15   D(17,2,3,19)           65.4027         calculate D2E/DX2 analytically  !
 ! D16   D(2,3,4,5)           -179.1072         calculate D2E/DX2 analytically  !
 ! D17   D(2,3,4,20)           -59.1189         calculate D2E/DX2 analytically  !
 ! D18   D(2,3,4,21)            57.2905         calculate D2E/DX2 analytically  !
 ! D19   D(18,3,4,5)           -56.0007         calculate D2E/DX2 analytically  !
 ! D20   D(18,3,4,20)           63.9876         calculate D2E/DX2 analytically  !
 ! D21   D(18,3,4,21)         -179.603          calculate D2E/DX2 analytically  !
 ! D22   D(19,3,4,5)            60.8121         calculate D2E/DX2 analytically  !
 ! D23   D(19,3,4,20)         -179.1997         calculate D2E/DX2 analytically  !
 ! D24   D(19,3,4,21)          -62.7903         calculate D2E/DX2 analytically  !
 ! D25   D(3,4,5,6)            -60.1787         calculate D2E/DX2 analytically  !
 ! D26   D(3,4,5,22)           177.3189         calculate D2E/DX2 analytically  !
 ! D27   D(3,4,5,23)            62.2855         calculate D2E/DX2 analytically  !
 ! D28   D(20,4,5,6)           178.5398         calculate D2E/DX2 analytically  !
 ! D29   D(20,4,5,22)           56.0375         calculate D2E/DX2 analytically  !
 ! D30   D(20,4,5,23)          -58.996          calculate D2E/DX2 analytically  !
 ! D31   D(21,4,5,6)            63.2883         calculate D2E/DX2 analytically  !
 ! D32   D(21,4,5,22)          -59.2141         calculate D2E/DX2 analytically  !
 ! D33   D(21,4,5,23)         -174.2475         calculate D2E/DX2 analytically  !
 ! D34   D(4,5,6,7)            -59.1587         calculate D2E/DX2 analytically  !
 ! D35   D(4,5,6,24)           179.9024         calculate D2E/DX2 analytically  !
 ! D36   D(4,5,6,25)            64.4754         calculate D2E/DX2 analytically  !
 ! D37   D(22,5,6,7)            63.1109         calculate D2E/DX2 analytically  !
 ! D38   D(22,5,6,24)          -57.828          calculate D2E/DX2 analytically  !
 ! D39   D(22,5,6,25)         -173.255          calculate D2E/DX2 analytically  !
 ! D40   D(23,5,6,7)           178.141          calculate D2E/DX2 analytically  !
 ! D41   D(23,5,6,24)           57.2021         calculate D2E/DX2 analytically  !
 ! D42   D(23,5,6,25)          -58.225          calculate D2E/DX2 analytically  !
 ! D43   D(5,6,7,8)           -175.1346         calculate D2E/DX2 analytically  !
 ! D44   D(5,6,7,26)           -53.8335         calculate D2E/DX2 analytically  !
 ! D45   D(5,6,7,27)            63.9657         calculate D2E/DX2 analytically  !
 ! D46   D(24,6,7,8)           -54.8415         calculate D2E/DX2 analytically  !
 ! D47   D(24,6,7,26)           66.4596         calculate D2E/DX2 analytically  !
 ! D48   D(24,6,7,27)         -175.7412         calculate D2E/DX2 analytically  !
 ! D49   D(25,6,7,8)            61.101          calculate D2E/DX2 analytically  !
 ! D50   D(25,6,7,26)         -177.5979         calculate D2E/DX2 analytically  !
 ! D51   D(25,6,7,27)          -59.7987         calculate D2E/DX2 analytically  !
 ! D52   D(6,7,8,9)           -179.8609         calculate D2E/DX2 analytically  !
 ! D53   D(6,7,8,28)           -58.5178         calculate D2E/DX2 analytically  !
 ! D54   D(6,7,8,29)            58.7928         calculate D2E/DX2 analytically  !
 ! D55   D(26,7,8,9)            58.8135         calculate D2E/DX2 analytically  !
 ! D56   D(26,7,8,28)         -179.8435         calculate D2E/DX2 analytically  !
 ! D57   D(26,7,8,29)          -62.5329         calculate D2E/DX2 analytically  !
 ! D58   D(27,7,8,9)           -58.3672         calculate D2E/DX2 analytically  !
 ! D59   D(27,7,8,28)           62.9758         calculate D2E/DX2 analytically  !
 ! D60   D(27,7,8,29)         -179.7136         calculate D2E/DX2 analytically  !
 ! D61   D(7,8,9,10)           179.8445         calculate D2E/DX2 analytically  !
 ! D62   D(7,8,9,30)           -58.8535         calculate D2E/DX2 analytically  !
 ! D63   D(7,8,9,31)            58.2961         calculate D2E/DX2 analytically  !
 ! D64   D(28,8,9,10)           58.5036         calculate D2E/DX2 analytically  !
 ! D65   D(28,8,9,30)          179.8057         calculate D2E/DX2 analytically  !
 ! D66   D(28,8,9,31)          -63.0448         calculate D2E/DX2 analytically  !
 ! D67   D(29,8,9,10)          -58.8092         calculate D2E/DX2 analytically  !
 ! D68   D(29,8,9,30)           62.4929         calculate D2E/DX2 analytically  !
 ! D69   D(29,8,9,31)          179.6425         calculate D2E/DX2 analytically  !
 ! D70   D(8,9,10,11)          175.3239         calculate D2E/DX2 analytically  !
 ! D71   D(8,9,10,32)          -61.7292         calculate D2E/DX2 analytically  !
 ! D72   D(8,9,10,33)           54.8197         calculate D2E/DX2 analytically  !
 ! D73   D(30,9,10,11)          54.0636         calculate D2E/DX2 analytically  !
 ! D74   D(30,9,10,32)         177.0106         calculate D2E/DX2 analytically  !
 ! D75   D(30,9,10,33)         -66.4406         calculate D2E/DX2 analytically  !
 ! D76   D(31,9,10,11)         -63.7226         calculate D2E/DX2 analytically  !
 ! D77   D(31,9,10,32)          59.2243         calculate D2E/DX2 analytically  !
 ! D78   D(31,9,10,33)         175.7732         calculate D2E/DX2 analytically  !
 ! D79   D(9,10,11,12)          66.0744         calculate D2E/DX2 analytically  !
 ! D80   D(9,10,11,34)         -57.1097         calculate D2E/DX2 analytically  !
 ! D81   D(9,10,11,35)        -172.8406         calculate D2E/DX2 analytically  !
 ! D82   D(32,10,11,12)        -56.9665         calculate D2E/DX2 analytically  !
 ! D83   D(32,10,11,34)        179.8494         calculate D2E/DX2 analytically  !
 ! D84   D(32,10,11,35)         64.1185         calculate D2E/DX2 analytically  !
 ! D85   D(33,10,11,12)       -172.8984         calculate D2E/DX2 analytically  !
 ! D86   D(33,10,11,34)         63.9176         calculate D2E/DX2 analytically  !
 ! D87   D(33,10,11,35)        -51.8134         calculate D2E/DX2 analytically  !
 ! D88   D(10,11,12,13)        175.6706         calculate D2E/DX2 analytically  !
 ! D89   D(10,11,12,36)         55.3885         calculate D2E/DX2 analytically  !
 ! D90   D(10,11,12,37)        -63.9276         calculate D2E/DX2 analytically  !
 ! D91   D(34,11,12,13)        -61.4802         calculate D2E/DX2 analytically  !
 ! D92   D(34,11,12,36)        178.2377         calculate D2E/DX2 analytically  !
 ! D93   D(34,11,12,37)         58.9216         calculate D2E/DX2 analytically  !
 ! D94   D(35,11,12,13)         55.278          calculate D2E/DX2 analytically  !
 ! D95   D(35,11,12,36)        -65.0041         calculate D2E/DX2 analytically  !
 ! D96   D(35,11,12,37)        175.6798         calculate D2E/DX2 analytically  !
 ! D97   D(11,12,13,38)         60.6786         calculate D2E/DX2 analytically  !
 ! D98   D(11,12,13,39)        176.9184         calculate D2E/DX2 analytically  !
 ! D99   D(36,12,13,38)       -178.3503         calculate D2E/DX2 analytically  !
 ! D100  D(36,12,13,39)        -62.1105         calculate D2E/DX2 analytically  !
 ! D101  D(37,12,13,38)        -60.9354         calculate D2E/DX2 analytically  !
 ! D102  D(37,12,13,39)         55.3045         calculate D2E/DX2 analytically  !
 --------------------------------------------------------------------------------
 Trust Radius=3.00D-01 FncErr=1.00D-07 GrdErr=1.00D-06 EigMax=2.50D+02 EigMin=1.00D-04
 Number of steps in this run=    222 maximum allowed number of steps=    234.
 GradGradGradGradGradGradGradGradGradGradGradGradGradGradGradGradGradGrad

                          Input orientation:                          
 ---------------------------------------------------------------------
 Center     Atomic      Atomic             Coordinates (Angstroms)
 Number     Number       Type             X           Y           Z
 ---------------------------------------------------------------------
      1          7           0        5.581978    1.725784    0.395709
      2          6           0        4.319284    1.667641   -0.330473
      3          6           0        3.730368    0.254917   -0.367813
      4          6           0        3.285302   -0.256905    1.005860
      5          6           0        2.715899   -1.679586    0.970639
      6          6           0        1.479790   -1.887534    0.090244
      7          6           0        0.290186   -1.013721    0.492497
      8          6           0       -0.949326   -1.347966   -0.340714
      9          6           0       -2.140283   -0.472837    0.057216
     10          6           0       -3.376782   -0.806845   -0.780243
     11          6           0       -4.630594   -0.040130   -0.347819
     12          6           0       -4.528738    1.466460   -0.583454
     13          7           0       -5.791393    2.114554   -0.245176
     14          1           0        5.427942    1.509052    1.379059
     15          1           0        5.940457    2.679701    0.371676
     16          1           0        4.496416    2.002853   -1.358289
     17          1           0        3.603384    2.363963    0.120119
     18          1           0        4.460514   -0.439164   -0.802540
     19          1           0        2.870628    0.274434   -1.047256
     20          1           0        4.140712   -0.263847    1.691504
     21          1           0        2.550584    0.431495    1.438639
     22          1           0        2.470644   -1.977508    1.997857
     23          1           0        3.501288   -2.366682    0.631545
     24          1           0        1.188761   -2.943275    0.161661
     25          1           0        1.732429   -1.711520   -0.961555
     26          1           0        0.068298   -1.161294    1.556247
     27          1           0        0.538308    0.044639    0.354628
     28          1           0       -0.726435   -1.203016   -1.404848
     29          1           0       -1.208816   -2.404968   -0.205182
     30          1           0       -2.364964   -0.620680    1.120356
     31          1           0       -1.869954    0.580645   -0.075233
     32          1           0       -3.171769   -0.608921   -1.839408
     33          1           0       -3.587278   -1.880251   -0.694970
     34          1           0       -4.834833   -0.242074    0.711305
     35          1           0       -5.483044   -0.437469   -0.914071
     36          1           0       -4.293945    1.669091   -1.633686
     37          1           0       -3.733737    1.902711    0.029152
     38          1           0       -6.006504    1.955416    0.738304
     39          1           0       -5.694777    3.122838   -0.357486
 ---------------------------------------------------------------------
                    Distance matrix (angstroms):
                    1          2          3          4          5
     1  N    0.000000
     2  C    1.457778   0.000000
     3  C    2.484929   1.531015   0.000000
     4  C    3.094844   2.561012   1.532000   0.000000
     5  C    4.487928   3.932896   2.561817   1.532802   0.000000
     6  C    5.475155   4.569355   3.140862   2.599458   1.531766
     7  C    5.959640   4.909237   3.766222   3.131618   2.560485
     8  C    7.255907   6.070605   4.946666   4.575560   3.906852
     9  C    8.036282   6.816008   5.930837   5.512125   5.086560
    10  C    9.383839   8.096592   7.197848   6.919245   6.399065
    11  C   10.390760   9.111372   8.366190   8.033732   7.641800
    12  C   10.161327   8.853924   8.350280   8.158132   8.049695
    13  N   11.398045  10.120909   9.702434   9.464423   9.394027
    14  H    1.018664   2.043716   2.739740   2.801569   4.205877
    15  H    1.019335   2.036046   3.363170   4.009450   5.455265
    16  H    2.081278   1.095513   2.150152   3.487478   4.706858
    17  H    2.097154   1.095632   2.168473   2.784719   4.226264
    18  H    2.716704   2.163659   1.097200   2.164406   2.779657
    19  H    3.397055   2.133872   1.095982   2.160917   2.813190
    20  H    2.777582   2.801950   2.162934   1.096304   2.134023
    21  H    3.457200   2.790361   2.164795   1.095902   2.168644
    22  H    5.095257   4.703796   3.488125   2.146672   1.097307
    23  H    4.597081   4.227334   2.814955   2.153583   1.097233
    24  H    6.415235   5.594901   4.119289   3.510661   2.140912
    25  H    5.336314   4.302187   2.865514   2.897938   2.168320
    26  H    6.331092   5.443663   4.372461   3.386733   2.760680
    27  H    5.316628   4.171244   3.279541   2.839191   2.845053
    28  H    7.184424   5.903748   4.802511   4.775005   4.209481
    29  H    7.971138   6.867439   5.612216   5.126196   4.160784
    30  H    8.317745   7.212523   6.335171   5.663121   5.192193
    31  H    7.554099   6.289147   5.617411   5.333564   5.218481
    32  H    9.331381   7.973424   7.109944   7.064930   6.611152
    33  H    9.913038   8.673761   7.629805   7.263638   6.522620
    34  H   10.605754   9.409047   8.647206   8.125489   7.690725
    35  H   11.350325  10.042793   9.255526   8.977896   8.503979
    36  H   10.082436   8.711262   8.245722   8.253584   8.193538
    37  H    9.324602   8.064473   7.654127   7.408427   7.437544
    38  H   11.595818  10.384941   9.945947   9.555292   9.452383
    39  H   11.387900  10.119276   9.851824   9.691398   9.775821
                    6          7          8          9         10
     6  C    0.000000
     7  C    1.529874   0.000000
     8  C    2.525364   1.530474   0.000000
     9  C    3.886822   2.527688   1.530549   0.000000
    10  C    5.050933   3.887071   2.525577   1.530303   0.000000
    11  C    6.398562   5.086068   3.906689   2.559870   1.531956
    12  C    6.914156   5.525486   4.559836   3.142618   2.556099
    13  N    8.306583   6.878653   5.953469   4.485157   3.827690
    14  H    5.365236   5.791969   7.196508   7.934305   9.356769
    15  H    6.390336   6.751409   8.012410   8.679617  10.014682
    16  H    5.131608   5.497044   6.474531   7.223467   8.379486
    17  H    4.752449   4.746018   5.892194   6.406333   7.719287
    18  H    3.432136   4.404415   5.505050   6.656639   7.845947
    19  H    2.811128   3.269382   4.209920   5.185316   6.345911
    20  H    3.504411   4.102008   5.586923   6.493495   7.932029
    21  H    2.888368   2.844860   4.310679   4.972965   6.449076
    22  H    2.151482   2.819466   4.190636   5.224057   6.578806
    23  H    2.146869   3.487265   4.668087   5.978615   7.192641
    24  H    1.097445   2.154082   2.714554   4.146867   5.127933
    25  H    1.095942   2.163621   2.776585   4.191674   5.191854
    26  H    2.160764   1.096621   2.160756   2.756610   4.177726
    27  H    2.165544   1.095763   2.153115   2.744283   4.164239
    28  H    2.751598   2.160850   1.096847   2.160963   2.751621
    29  H    2.753836   2.160863   1.096793   2.160928   2.754046
    30  H    4.177102   2.756539   2.160486   1.096634   2.161183
    31  H    4.164142   2.744180   2.153504   1.095649   2.166264
    32  H    5.195710   4.193659   2.780562   2.163253   1.096829
    33  H    5.127552   4.146768   2.714336   2.154157   1.097170
    34  H    6.554977   5.187402   4.174555   2.782388   2.160925
    35  H    7.182784   5.969982   4.659650   3.481192   2.142589
    36  H    6.996966   5.721223   4.686245   3.476387   2.774853
    37  H    6.445971   4.991214   4.296120   2.860613   2.850303
    38  H    8.439955   6.965953   6.136095   4.616054   4.105059
    39  H    8.762346   7.324846   6.519791   5.072996   4.581946
                   11         12         13         14         15
    11  C    0.000000
    12  C    1.528304   0.000000
    13  N    2.449623   1.459026   0.000000
    14  H   10.322607  10.148337  11.352456   0.000000
    15  H   10.939026  10.582451  11.761642   1.627240   0.000000
    16  H    9.407292   9.074222  10.348455   2.933369   2.352904
    17  H    8.590519   8.211695   9.405184   2.375882   2.371683
    18  H    9.111215   9.191629  10.579874   3.080720   3.646414
    19  H    7.540324   7.509104   8.891568   3.735123   4.150004
    20  H    9.008035   9.128458  10.394914   2.213088   3.693982
    21  H    7.415064   7.434838   8.675051   3.073088   4.205244
    22  H    7.725491   8.216777   9.488805   4.613526   6.031058
    23  H    8.514664   8.980563  10.353939   4.392276   5.610976
    24  H    6.523244   7.258839   8.629583   6.267051   7.364820
    25  H    6.607441   7.031695   8.471124   5.432070   6.226382
    26  H    5.192500   5.711055   6.950704   5.990654   7.116088
    27  H    5.217103   5.345702   6.686511   5.206005   6.010579
    28  H    4.208571   4.717870   6.164812   7.278861   7.917006
    29  H    4.161895   5.113993   6.436435   7.866125   8.791969
    30  H    2.761459   3.455581   4.592015   8.082826   8.968448
    31  H    2.842675   2.848173   4.214196   7.499079   8.099894
    32  H    2.162529   2.779567   4.101380   9.423342   9.936629
    33  H    2.143610   3.478398   4.584637   9.852064  10.616433
    34  H    1.097378   2.165452   2.717270  10.432492  11.169557
    35  H    1.097812   2.155215   2.656186  11.317995  11.910763
    36  H    2.165231   1.095068   2.090155  10.179260  10.477872
    37  H    2.172807   1.094362   2.086644   9.268958   9.711388
    38  H    2.656124   2.042037   1.019231  11.461080  11.974510
    39  H    3.337206   2.038209   1.019110  11.372545  11.666479
                   16         17         18         19         20
    16  H    0.000000
    17  H    1.764539   0.000000
    18  H    2.504714   3.073026   0.000000
    19  H    2.393191   2.503164   1.759786   0.000000
    20  H    3.816503   3.108594   2.520568   3.066539   0.000000
    21  H    3.752097   2.565407   3.070629   2.511328   1.753838
    22  H    5.586657   4.863884   3.764081   3.808404   2.412387
    23  H    4.903320   4.759304   2.586897   3.192428   2.440141
    24  H    6.141255   5.830858   4.231386   3.826722   4.270101
    25  H    4.646891   4.613031   3.014403   2.290601   3.864493
    26  H    6.173701   5.194876   5.037550   4.085657   4.172321
    27  H    4.736592   3.850837   4.117864   2.730897   3.854830
    28  H    6.128453   5.813450   5.277375   3.905072   5.844532
    29  H    7.301247   6.782756   6.030134   4.952791   6.066239
    30  H    7.752751   6.747573   7.093491   5.736827   6.540440
    31  H    6.648276   5.759844   6.453201   4.848887   6.321600
    32  H    8.115042   7.653789   7.704262   6.157790   8.127656
    33  H    8.992475   8.389478   8.176507   6.816988   8.248021
    34  H    9.818102   8.851239   9.419875   7.920444   9.028935
    35  H   10.283099   9.564556   9.944183   8.385008   9.971752
    36  H    8.801005   8.119513   9.043014   7.322573   9.270198
    37  H    8.346882   7.352168   8.562817   6.886767   8.334526
    38  H   10.710242   9.638413  10.847427   9.209636  10.430710
    39  H   10.301281   9.341295  10.771066   9.052919  10.602115
                   21         22         23         24         25
    21  H    0.000000
    22  H    2.474351   0.000000
    23  H    3.063500   1.755133   0.000000
    24  H    3.856722   2.438759   2.429204   0.000000
    25  H    3.320064   3.061671   2.469022   1.753399   0.000000
    26  H    2.951703   2.575362   3.754125   2.525027   3.067802
    27  H    2.318187   3.243949   3.830196   3.063977   2.498471
    28  H    4.636367   4.732817   4.834735   3.024967   2.549725
    29  H    4.988061   4.309817   4.784000   2.484496   3.115106
    30  H    5.036962   5.098440   6.140063   4.352298   4.723654
    31  H    4.674955   5.448177   6.167375   4.672244   4.360820
    32  H    6.676330   6.959487   7.329736   5.335514   5.102696
    33  H    6.897087   6.630174   7.228004   4.967332   5.329055
    34  H    7.451651   7.618198   8.602979   6.624370   6.934455
    35  H    8.416027   8.608844   9.318209   7.207582   7.327244
    36  H    7.603841   8.499733   9.065561   7.386288   6.942440
    37  H    6.606346   7.578010   8.422362   6.908843   6.627453
    38  H    8.719894   9.429549  10.444618   8.723619   8.730809
    39  H    8.857504   9.911371  10.755493   9.189686   8.882528
                   26         27         28         29         30
    26  H    0.000000
    27  H    1.766090   0.000000
    28  H    3.066175   2.500395   0.000000
    29  H    2.506067   3.060458   1.765383   0.000000
    30  H    2.530420   3.075382   3.066031   2.505476   0.000000
    31  H    3.074556   2.504358   2.501392   3.060698   1.765687
    32  H    4.725846   4.359542   2.553713   3.122445   3.067780
    33  H    4.352943   4.671972   3.024400   2.484412   2.525070
    34  H    5.059603   5.392594   4.720217   4.320424   2.531980
    35  H    6.119133   6.172415   4.842752   4.758424   3.727584
    36  H    6.100485   5.472011   4.585684   5.306279   4.068018
    37  H    5.116211   4.669982   4.554751   4.998623   3.071118
    38  H    6.876491   6.828824   6.515207   6.551406   4.476947
    39  H    7.431635   6.988116   6.670413   7.120652   5.223563
                   31         32         33         34         35
    31  H    0.000000
    32  H    2.494415   0.000000
    33  H    3.064195   1.760302   0.000000
    34  H    3.175849   3.067001   2.493517   0.000000
    35  H    3.846378   2.495523   2.392394   1.760740   0.000000
    36  H    3.080459   2.547732   3.738769   3.073124   2.523766
    37  H    2.287453   3.180506   3.854426   2.505563   3.070209
    38  H    4.434285   4.610439   4.755972   2.490482   2.954700
    39  H    4.601270   4.742119   5.439333   3.633793   3.609765
                   36         37         38         39
    36  H    0.000000
    37  H    1.770153   0.000000
    38  H    2.939588   2.381417   0.000000
    39  H    2.388388   2.341768   1.631197   0.000000
 Stoichiometry    C11H26N2
 Framework group  C1[X(C11H26N2)]
 Deg. of freedom   111
 Full point group                 C1      NOp   1
 Largest Abelian subgroup         C1      NOp   1
 Largest concise Abelian subgroup C1      NOp   1
                         Standard orientation:                         
 ---------------------------------------------------------------------
 Center     Atomic      Atomic             Coordinates (Angstroms)
 Number     Number       Type             X           Y           Z
 ---------------------------------------------------------------------
      1          7           0       -5.545699    1.861526   -0.118876
      2          6           0       -4.230961    1.827407    0.509943
      3          6           0       -3.682154    0.404211    0.641583
      4          6           0       -3.363920   -0.253793   -0.704813
      5          6           0       -2.835014   -1.686381   -0.572783
      6          6           0       -1.538715   -1.853646    0.225926
      7          6           0       -0.360445   -1.067012   -0.351484
      8          6           0        0.931791   -1.364579    0.412669
      9          6           0        2.111795   -0.576269   -0.160688
     10          6           0        3.401378   -0.873078    0.607889
     11          6           0        4.638092   -0.198241    0.006208
     12          6           0        4.599218    1.326777    0.098518
     13          7           0        5.848869    1.892389   -0.398687
     14          1           0       -5.477518    1.545394   -1.084842
     15          1           0       -5.873283    2.825828   -0.161930
     16          1           0       -4.315147    2.266526    1.510060
     17          1           0       -3.533693    2.450228   -0.061302
     18          1           0       -4.394825   -0.217390    1.197965
     19          1           0       -2.770399    0.457623    1.247412
     20          1           0       -4.271494   -0.295455   -1.318373
     21          1           0       -2.646702    0.362177   -1.259052
     22          1           0       -2.681825   -2.090854   -1.581256
     23          1           0       -3.610208   -2.308234   -0.107708
     24          1           0       -1.285095   -2.921323    0.237263
     25          1           0       -1.700821   -1.567786    1.271437
     26          1           0       -0.229114   -1.324608   -1.409299
     27          1           0       -0.565900    0.008107   -0.300464
     28          1           0        0.799416   -1.109518    1.471202
     29          1           0        1.148800   -2.438539    0.362955
     30          1           0        2.245950   -0.834177   -1.218087
     31          1           0        1.883637    0.494292   -0.112849
     32          1           0        3.287951   -0.566464    1.654863
     33          1           0        3.573135   -1.956706    0.613440
     34          1           0        4.750635   -0.508821   -1.040268
     35          1           0        5.521403   -0.570112    0.541618
     36          1           0        4.455540    1.638306    1.138461
     37          1           0        3.770550    1.730769   -0.491165
     38          1           0        5.979562    1.631286   -1.375199
     39          1           0        5.790861    2.909670   -0.379744
 ---------------------------------------------------------------------
 Rotational constants (GHZ):           1.2039723           0.1880099           0.1688655
 Standard basis: 6-31G(d,p) (6D, 7F)
 There are   325 symmetry adapted cartesian basis functions of A   symmetry.
 There are   325 symmetry adapted basis functions of A   symmetry.
   325 basis functions,   546 primitive gaussians,   325 cartesian basis functions
    53 alpha electrons       53 beta electrons
       nuclear repulsion energy       796.3713823485 Hartrees.
 NAtoms=   39 NActive=   39 NUniq=   39 SFac= 1.00D+00 NAtFMM=   60 NAOKFM=F Big=F
 Integral buffers will be    131072 words long.
 Raffenetti 2 integral format.
 Two-electron integral symmetry is turned on.
 Force inversion solution in PCM.
 ------------------------------------------------------------------------------
 Polarizable Continuum Model (PCM)
 =================================
 Model                : PCM.
 Atomic radii         : UFF (Universal Force Field).
 Polarization charges : Total charges.
 Charge compensation  : None.
 Solution method      : Matrix inversion.
 Cavity type          : Scaled VdW (van der Waals Surface) (Alpha=1.100).
 Cavity algorithm     : GePol (No added spheres)
                        Default sphere list used, NSphG=   39.
                        Lebedev-Laikov grids with approx.  5.0 points / Ang**2.
                        Smoothing algorithm: York/Karplus (Gamma=1.0000).
                        Polarization charges: spherical gaussians, with
                                              point-specific exponents (IZeta= 3).
                        Self-potential: point-specific (ISelfS= 7).
                        Self-field    : sphere-specific E.n sum rule (ISelfD= 2).
 1st derivatives      : Analytical E(r).r(x)/FMM algorithm (CHGder, D1EAlg=3).
                        Cavity 1st derivative terms included.
 2nd derivatives      : Analytical E(r).r(xy)/FMM algorithm (CHGder, D2EAlg=3).
                        Cavity 2nd derivative terms included.
 Solvent              : Water, Eps=  78.355300 Eps(inf)=   1.777849
 ------------------------------------------------------------------------------
 One-electron integrals computed using PRISM.
 NBasis=   325 RedAO= T EigKep=  2.36D-03  NBF=   325
 NBsUse=   325 1.00D-06 EigRej= -1.00D+00 NBFU=   325
 ExpMin= 1.61D-01 ExpMax= 4.17D+03 ExpMxC= 6.27D+02 IAcc=3 IRadAn=         5 AccDes= 0.00D+00
 Harris functional with IExCor=  402 and IRadAn=       5 diagonalized for initial guess.
 HarFok:  IExCor=  402 AccDes= 0.00D+00 IRadAn=         5 IDoV= 1 UseB2=F ITyADJ=14
 ICtDFT=  3500011 ScaDFX=  1.000000  1.000000  1.000000  1.000000
 FoFCou: FMM=F IPFlag=           0 FMFlag=      100000 FMFlg1=           0
         NFxFlg=           0 DoJE=T BraDBF=F KetDBF=T FulRan=T
         wScrn=  0.000000 ICntrl=       500 IOpCl=  0 I1Cent=   200000004 NGrid=           0
         NMat0=    1 NMatS0=      1 NMatT0=    0 NMatD0=    1 NMtDS0=    0 NMtDT0=    0
 Petite list used in FoFCou.
 Requested convergence on RMS density matrix=1.00D-08 within  32 cycles.
 Requested convergence on MAX density matrix=1.00D-06.
 Requested convergence on             energy=1.00D-06.
 No special actions if energy rises.
 Inv3:  Mode=1 IEnd=    19507500.
 Iteration    1 A*A^-1 deviation from unit magnitude is 3.33D-15 for   1138.
 Iteration    1 A*A^-1 deviation from orthogonality  is 1.90D-15 for   2023   1758.
 Iteration    1 A^-1*A deviation from unit magnitude is 3.11D-15 for   1128.
 Iteration    1 A^-1*A deviation from orthogonality  is 1.73D-15 for   2035   1760.
 Error on total polarization charges =  0.01174
 SCF Done:  E(RB3LYP) =  -544.375971728     A.U. after   10 cycles
            NFock= 10  Conv=0.98D-08     -V/T= 2.0096
 QCSCF skips out because SCF is already converged.
 DoSCS=F DFT=T ScalE2(SS,OS)=  1.000000  1.000000
 Range of M.O.s used for correlation:     1   325
 NBasis=   325 NAE=    53 NBE=    53 NFC=     0 NFV=     0
 NROrb=    325 NOA=    53 NOB=    53 NVA=   272 NVB=   272
 Symmetrizing basis deriv contribution to polar:
 IMax=3 JMax=2 DiffMx= 0.00D+00
 G2DrvN: will do    40 centers at a time, making    1 passes.
 Calling FoFCou, ICntrl=  3107 FMM=F I1Cent=   0 AccDes= 0.00D+00.
 NEqPCM:  Using equilibrium solvation (IEInf=0, Eps=  78.3553, EpsInf=   1.7778)
 G2PCM: DoFxE=T DoFxN=T DoGrad=T DoDP/DQ/DG/TGxP=FFFF NFrqRd=   0 IEInf=0 SqF1=F DoCFld=F IF1Alg=4.
 End of G2Drv F.D. properties file   721 does not exist.
 End of G2Drv F.D. properties file   722 does not exist.
 End of G2Drv F.D. properties file   788 does not exist.
          IDoAtm=111111111111111111111111111111111111111
 NEqPCM:  Using equilibrium solvation (IEInf=0, Eps=  78.3553, EpsInf=   1.7778)
          Differentiating once with respect to nuclear coordinates.
 Keep R1 ints in memory in canonical form, NReq=1420542915.
          There are   120 degrees of freedom in the 1st order CPHF.  IDoFFX=6 NUNeed=     0.
    114 vectors produced by pass  0 Test12= 1.44D-14 1.00D-09 XBig12= 8.45D-02 7.74D-02.
 AX will form   114 AO Fock derivatives at one time.
    114 vectors produced by pass  1 Test12= 1.44D-14 1.00D-09 XBig12= 4.13D-03 1.61D-02.
    114 vectors produced by pass  2 Test12= 1.44D-14 1.00D-09 XBig12= 5.86D-05 1.20D-03.
    114 vectors produced by pass  3 Test12= 1.44D-14 1.00D-09 XBig12= 1.60D-07 4.62D-05.
    114 vectors produced by pass  4 Test12= 1.44D-14 1.00D-09 XBig12= 1.18D-10 1.17D-06.
     41 vectors produced by pass  5 Test12= 1.44D-14 1.00D-09 XBig12= 6.21D-14 2.75D-08.
      1 vectors produced by pass  6 Test12= 1.44D-14 1.00D-09 XBig12= 2.27D-17 1.12D-09.
 InvSVY:  IOpt=1 It=  1 EMax= 3.61D-16
 Solved reduced A of dimension   612 with   120 vectors.
 End of Minotr F.D. properties file   721 does not exist.
 End of Minotr F.D. properties file   722 does not exist.
 End of Minotr F.D. properties file   788 does not exist.

 **********************************************************************

            Population analysis using the SCF density.

 **********************************************************************

 Orbital symmetries:
       Occupied  (A) (A) (A) (A) (A) (A) (A) (A) (A) (A) (A) (A)
                 (A) (A) (A) (A) (A) (A) (A) (A) (A) (A) (A) (A)
                 (A) (A) (A) (A) (A) (A) (A) (A) (A) (A) (A) (A)
                 (A) (A) (A) (A) (A) (A) (A) (A) (A) (A) (A) (A)
                 (A) (A) (A) (A) (A)
       Virtual   (A) (A) (A) (A) (A) (A) (A) (A) (A) (A) (A) (A)
                 (A) (A) (A) (A) (A) (A) (A) (A) (A) (A) (A) (A)
                 (A) (A) (A) (A) (A) (A) (A) (A) (A) (A) (A) (A)
                 (A) (A) (A) (A) (A) (A) (A) (A) (A) (A) (A) (A)
                 (A) (A) (A) (A) (A) (A) (A) (A) (A) (A) (A) (A)
                 (A) (A) (A) (A) (A) (A) (A) (A) (A) (A) (A) (A)
                 (A) (A) (A) (A) (A) (A) (A) (A) (A) (A) (A) (A)
                 (A) (A) (A) (A) (A) (A) (A) (A) (A) (A) (A) (A)
                 (A) (A) (A) (A) (A) (A) (A) (A) (A) (A) (A) (A)
                 (A) (A) (A) (A) (A) (A) (A) (A) (A) (A) (A) (A)
                 (A) (A) (A) (A) (A) (A) (A) (A) (A) (A) (A) (A)
                 (A) (A) (A) (A) (A) (A) (A) (A) (A) (A) (A) (A)
                 (A) (A) (A) (A) (A) (A) (A) (A) (A) (A) (A) (A)
                 (A) (A) (A) (A) (A) (A) (A) (A) (A) (A) (A) (A)
                 (A) (A) (A) (A) (A) (A) (A) (A) (A) (A) (A) (A)
                 (A) (A) (A) (A) (A) (A) (A) (A) (A) (A) (A) (A)
                 (A) (A) (A) (A) (A) (A) (A) (A) (A) (A) (A) (A)
                 (A) (A) (A) (A) (A) (A) (A) (A) (A) (A) (A) (A)
                 (A) (A) (A) (A) (A) (A) (A) (A) (A) (A) (A) (A)
                 (A) (A) (A) (A) (A) (A) (A) (A) (A) (A) (A) (A)
                 (A) (A) (A) (A) (A) (A) (A) (A) (A) (A) (A) (A)
                 (A) (A) (A) (A) (A) (A) (A) (A) (A) (A) (A) (A)
                 (A) (A) (A) (A) (A) (A) (A) (A)
 The electronic state is 1-A.
 Alpha  occ. eigenvalues --  -14.30459 -14.30380 -10.19796 -10.19694 -10.17283
 Alpha  occ. eigenvalues --  -10.17246 -10.17228 -10.17198 -10.17166 -10.17015
 Alpha  occ. eigenvalues --  -10.17009 -10.16982 -10.16966  -0.87440  -0.87365
 Alpha  occ. eigenvalues --   -0.80831  -0.78969  -0.75987  -0.72589  -0.68883
 Alpha  occ. eigenvalues --   -0.65153  -0.61998  -0.59004  -0.57747  -0.56356
 Alpha  occ. eigenvalues --   -0.54378  -0.48679  -0.47386  -0.47231  -0.46561
 Alpha  occ. eigenvalues --   -0.45597  -0.44721  -0.43581  -0.42202  -0.41044
 Alpha  occ. eigenvalues --   -0.40251  -0.39100  -0.38409  -0.38062  -0.36146
 Alpha  occ. eigenvalues --   -0.35766  -0.35007  -0.34012  -0.33642  -0.32751
 Alpha  occ. eigenvalues --   -0.32025  -0.31895  -0.31455  -0.30860  -0.30304
 Alpha  occ. eigenvalues --   -0.28656  -0.22978  -0.22794
 Alpha virt. eigenvalues --    0.07885   0.09170   0.09491   0.10475   0.10793
 Alpha virt. eigenvalues --    0.11836   0.12174   0.12815   0.13512   0.14332
 Alpha virt. eigenvalues --    0.14967   0.16465   0.16757   0.17293   0.17913
 Alpha virt. eigenvalues --    0.18491   0.18658   0.19114   0.19313   0.19645
 Alpha virt. eigenvalues --    0.19975   0.20503   0.21253   0.22010   0.22197
 Alpha virt. eigenvalues --    0.23076   0.23414   0.24196   0.24627   0.25741
 Alpha virt. eigenvalues --    0.26313   0.27080   0.27392   0.27523   0.28273
 Alpha virt. eigenvalues --    0.30172   0.31540   0.33064   0.49093   0.50510
 Alpha virt. eigenvalues --    0.51171   0.52119   0.53087   0.54096   0.54614
 Alpha virt. eigenvalues --    0.55163   0.56111   0.57364   0.57623   0.60170
 Alpha virt. eigenvalues --    0.60460   0.61522   0.65104   0.65307   0.66709
 Alpha virt. eigenvalues --    0.67950   0.68236   0.69124   0.69966   0.70012
 Alpha virt. eigenvalues --    0.70905   0.72131   0.72685   0.73363   0.75488
 Alpha virt. eigenvalues --    0.75901   0.76744   0.78274   0.79811   0.81737
 Alpha virt. eigenvalues --    0.82154   0.83075   0.84342   0.84549   0.85764
 Alpha virt. eigenvalues --    0.86603   0.87233   0.87813   0.88354   0.88521
 Alpha virt. eigenvalues --    0.88851   0.89403   0.91509   0.92116   0.92760
 Alpha virt. eigenvalues --    0.92905   0.93849   0.94223   0.94676   0.95050
 Alpha virt. eigenvalues --    0.95832   0.96010   0.96463   0.97188   0.98161
 Alpha virt. eigenvalues --    0.98866   1.00374   1.01103   1.03544   1.04567
 Alpha virt. eigenvalues --    1.04952   1.07295   1.13040   1.13556   1.19825
 Alpha virt. eigenvalues --    1.21967   1.26982   1.28365   1.29189   1.31895
 Alpha virt. eigenvalues --    1.34708   1.38211   1.38805   1.40086   1.43397
 Alpha virt. eigenvalues --    1.45398   1.48296   1.53261   1.53702   1.56061
 Alpha virt. eigenvalues --    1.57348   1.58674   1.62698   1.64234   1.66232
 Alpha virt. eigenvalues --    1.67922   1.68344   1.69387   1.71104   1.72801
 Alpha virt. eigenvalues --    1.74299   1.76341   1.77406   1.77960   1.79763
 Alpha virt. eigenvalues --    1.80388   1.83027   1.84990   1.86701   1.87150
 Alpha virt. eigenvalues --    1.87599   1.89201   1.90294   1.90336   1.92590
 Alpha virt. eigenvalues --    1.93522   1.95982   1.96853   1.98263   2.01060
 Alpha virt. eigenvalues --    2.01786   2.02477   2.05866   2.06764   2.08036
 Alpha virt. eigenvalues --    2.09747   2.09975   2.11294   2.12557   2.12974
 Alpha virt. eigenvalues --    2.13973   2.15520   2.16568   2.17367   2.18984
 Alpha virt. eigenvalues --    2.20506   2.21987   2.23302   2.23708   2.24343
 Alpha virt. eigenvalues --    2.25303   2.25850   2.26869   2.27525   2.27978
 Alpha virt. eigenvalues --    2.29595   2.30293   2.30963   2.32736   2.33888
 Alpha virt. eigenvalues --    2.34045   2.35910   2.36673   2.37781   2.39601
 Alpha virt. eigenvalues --    2.42034   2.42490   2.44859   2.45295   2.47348
 Alpha virt. eigenvalues --    2.48554   2.49967   2.51976   2.54790   2.55131
 Alpha virt. eigenvalues --    2.56011   2.59450   2.61000   2.61297   2.61980
 Alpha virt. eigenvalues --    2.64701   2.65235   2.66132   2.66513   2.69229
 Alpha virt. eigenvalues --    2.71748   2.72311   2.74415   2.74852   2.76010
 Alpha virt. eigenvalues --    2.79466   2.80232   2.80830   2.83706   2.84356
 Alpha virt. eigenvalues --    2.85007   2.85574   2.86833   2.89142   2.89562
 Alpha virt. eigenvalues --    2.91078   2.91354   2.91894   2.92488   2.92825
 Alpha virt. eigenvalues --    2.93686   2.94619   2.94786   2.95651   2.96935
 Alpha virt. eigenvalues --    2.98452   2.98655   2.99059   3.22784   3.24760
 Alpha virt. eigenvalues --    3.26381   3.28631   3.29940   3.30569   3.30868
 Alpha virt. eigenvalues --    3.31824   3.32211   3.33577   3.34311   3.35388
 Alpha virt. eigenvalues --    3.36336   3.39403   3.40977   3.44186   3.46858
 Alpha virt. eigenvalues --    3.49569   3.51974   3.53201   3.55145   3.55829
 Alpha virt. eigenvalues --    3.58070   3.58901   3.59492   3.60050   3.97383
 Alpha virt. eigenvalues --    4.00357   4.25457   4.31468   4.37208   4.44324
 Alpha virt. eigenvalues --    4.51524   4.56259   4.60936   4.64396   4.69745
 Alpha virt. eigenvalues --    4.73531   4.80708
          Condensed to atoms (all electrons):
               1          2          3          4          5          6
     1  N    6.815613   0.301252  -0.057183  -0.004883   0.000022  -0.000001
     2  C    0.301252   4.796916   0.373339  -0.037346   0.004087   0.000130
     3  C   -0.057183   0.373339   4.925614   0.383814  -0.041514  -0.004515
     4  C   -0.004883  -0.037346   0.383814   4.917589   0.374095  -0.044519
     5  C    0.000022   0.004087  -0.041514   0.374095   4.927323   0.366170
     6  C   -0.000001   0.000130  -0.004515  -0.044519   0.366170   4.920151
     7  C   -0.000000  -0.000002  -0.002112  -0.004423  -0.041769   0.372623
     8  C   -0.000000   0.000000   0.000003   0.000187   0.003934  -0.036850
     9  C    0.000000   0.000000   0.000000   0.000003  -0.000154   0.003861
    10  C   -0.000000   0.000000  -0.000000   0.000000   0.000001  -0.000143
    11  C    0.000000  -0.000000  -0.000000   0.000000  -0.000000   0.000001
    12  C   -0.000000  -0.000000   0.000000   0.000000  -0.000000   0.000000
    13  N    0.000000   0.000000   0.000000  -0.000000  -0.000000  -0.000000
    14  H    0.339132  -0.038783  -0.006833   0.005169  -0.000209   0.000002
    15  H    0.339881  -0.033328   0.005817   0.000208   0.000003   0.000000
    16  H   -0.042822   0.383440  -0.028939   0.004863  -0.000159  -0.000000
    17  H   -0.055546   0.382131  -0.044846  -0.011485   0.000046  -0.000021
    18  H    0.003563  -0.036602   0.370624  -0.043816  -0.003129  -0.001142
    19  H    0.004200  -0.032780   0.374405  -0.039414  -0.006394   0.003087
    20  H    0.002593  -0.005910  -0.040592   0.375943  -0.032418   0.005129
    21  H   -0.000556  -0.002960  -0.042195   0.381024  -0.037748  -0.007816
    22  H   -0.000001  -0.000167   0.005035  -0.035473   0.376070  -0.038895
    23  H   -0.000004   0.000068  -0.007241  -0.038781   0.373923  -0.034160
    24  H    0.000000  -0.000001   0.000073   0.005243  -0.033391   0.379843
    25  H   -0.000000  -0.000129   0.003680  -0.007745  -0.037337   0.382247
    26  H   -0.000000   0.000000   0.000131  -0.001293  -0.002509  -0.041426
    27  H    0.000001  -0.000059   0.000319   0.002590  -0.005184  -0.037443
    28  H    0.000000   0.000000   0.000005  -0.000020   0.000112  -0.003761
    29  H    0.000000  -0.000000  -0.000001   0.000003   0.000007  -0.004336
    30  H    0.000000  -0.000000  -0.000000   0.000000   0.000002   0.000073
    31  H   -0.000000  -0.000000   0.000000  -0.000004   0.000003   0.000078
    32  H    0.000000  -0.000000  -0.000000   0.000000   0.000000   0.000002
    33  H   -0.000000  -0.000000   0.000000  -0.000000   0.000000   0.000001
    34  H    0.000000  -0.000000  -0.000000   0.000000  -0.000000   0.000000
    35  H   -0.000000   0.000000  -0.000000  -0.000000   0.000000  -0.000000
    36  H    0.000000   0.000000  -0.000000   0.000000  -0.000000  -0.000000
    37  H   -0.000000  -0.000000   0.000000   0.000000   0.000000  -0.000000
    38  H    0.000000   0.000000  -0.000000   0.000000   0.000000  -0.000000
    39  H   -0.000000   0.000000   0.000000   0.000000   0.000000  -0.000000
               7          8          9         10         11         12
     1  N   -0.000000  -0.000000   0.000000  -0.000000   0.000000  -0.000000
     2  C   -0.000002   0.000000   0.000000   0.000000  -0.000000  -0.000000
     3  C   -0.002112   0.000003   0.000000  -0.000000  -0.000000   0.000000
     4  C   -0.004423   0.000187   0.000003   0.000000   0.000000   0.000000
     5  C   -0.041769   0.003934  -0.000154   0.000001  -0.000000  -0.000000
     6  C    0.372623  -0.036850   0.003861  -0.000143   0.000001   0.000000
     7  C    4.910003   0.371897  -0.039350   0.003881  -0.000149   0.000000
     8  C    0.371897   4.912091   0.367314  -0.037125   0.003651   0.000211
     9  C   -0.039350   0.367314   4.916447   0.371369  -0.039885  -0.005474
    10  C    0.003881  -0.037125   0.371369   4.923591   0.351168  -0.038917
    11  C   -0.000149   0.003651  -0.039885   0.351168   4.943420   0.382061
    12  C    0.000000   0.000211  -0.005474  -0.038917   0.382061   4.789928
    13  N   -0.000000  -0.000002   0.000107   0.003333  -0.053532   0.291998
    14  H    0.000000   0.000000  -0.000000   0.000000  -0.000000  -0.000000
    15  H    0.000000   0.000000  -0.000000   0.000000  -0.000000  -0.000000
    16  H    0.000000  -0.000000  -0.000000  -0.000000  -0.000000   0.000000
    17  H   -0.000008  -0.000000   0.000000  -0.000000  -0.000000  -0.000000
    18  H    0.000115   0.000000   0.000000  -0.000000   0.000000   0.000000
    19  H    0.000183  -0.000072  -0.000002  -0.000000   0.000000   0.000000
    20  H    0.000047  -0.000003  -0.000000  -0.000000  -0.000000  -0.000000
    21  H    0.004194  -0.000104   0.000009  -0.000000   0.000000   0.000000
    22  H   -0.007369   0.000035  -0.000001   0.000000   0.000000   0.000000
    23  H    0.004989  -0.000149   0.000002  -0.000000   0.000000   0.000000
    24  H   -0.041218  -0.005095   0.000103   0.000002   0.000000  -0.000000
    25  H   -0.039893  -0.003878   0.000045   0.000002   0.000000   0.000000
    26  H    0.383663  -0.039109  -0.004005   0.000070   0.000003   0.000000
    27  H    0.383735  -0.038368  -0.004089   0.000074   0.000003  -0.000003
    28  H   -0.038788   0.382978  -0.039256  -0.003670   0.000107  -0.000020
    29  H   -0.039008   0.382127  -0.038724  -0.004252   0.000020   0.000002
    30  H   -0.004029  -0.038693   0.383423  -0.040996  -0.003459  -0.000919
    31  H   -0.004048  -0.037826   0.384062  -0.038357  -0.004479   0.002380
    32  H    0.000042  -0.004062  -0.039492   0.382166  -0.037812  -0.008326
    33  H    0.000110  -0.005428  -0.040462   0.379045  -0.032163   0.004850
    34  H   -0.000001   0.000030  -0.007909  -0.036132   0.382490  -0.040190
    35  H    0.000002  -0.000132   0.004784  -0.028497   0.366910  -0.039594
    36  H   -0.000000  -0.000050  -0.000625  -0.003928  -0.033780   0.385388
    37  H    0.000006   0.000014   0.001904  -0.000645  -0.046902   0.390676
    38  H    0.000000  -0.000000  -0.000020  -0.000056  -0.005792  -0.038948
    39  H    0.000000  -0.000000   0.000004  -0.000240   0.005812  -0.033695
              13         14         15         16         17         18
     1  N    0.000000   0.339132   0.339881  -0.042822  -0.055546   0.003563
     2  C    0.000000  -0.038783  -0.033328   0.383440   0.382131  -0.036602
     3  C    0.000000  -0.006833   0.005817  -0.028939  -0.044846   0.370624
     4  C   -0.000000   0.005169   0.000208   0.004863  -0.011485  -0.043816
     5  C   -0.000000  -0.000209   0.000003  -0.000159   0.000046  -0.003129
     6  C   -0.000000   0.000002   0.000000  -0.000000  -0.000021  -0.001142
     7  C   -0.000000   0.000000   0.000000   0.000000  -0.000008   0.000115
     8  C   -0.000002   0.000000   0.000000  -0.000000  -0.000000   0.000000
     9  C    0.000107  -0.000000  -0.000000  -0.000000   0.000000   0.000000
    10  C    0.003333   0.000000   0.000000  -0.000000  -0.000000  -0.000000
    11  C   -0.053532  -0.000000  -0.000000  -0.000000  -0.000000   0.000000
    12  C    0.291998  -0.000000  -0.000000   0.000000  -0.000000   0.000000
    13  N    6.823346   0.000000   0.000000  -0.000000   0.000000  -0.000000
    14  H    0.000000   0.480159  -0.031886   0.006785  -0.005773  -0.000426
    15  H    0.000000  -0.031886   0.477409  -0.004750  -0.003418  -0.000092
    16  H   -0.000000   0.006785  -0.004750   0.642426  -0.047531  -0.004838
    17  H    0.000000  -0.005773  -0.003418  -0.047531   0.692432   0.007083
    18  H   -0.000000  -0.000426  -0.000092  -0.004838   0.007083   0.646346
    19  H   -0.000000  -0.000084  -0.000243  -0.004355   0.000071  -0.035386
    20  H   -0.000000   0.002366  -0.000196  -0.000046   0.000424  -0.004827
    21  H   -0.000000   0.000122  -0.000039  -0.000017   0.006238   0.006333
    22  H    0.000000   0.000010  -0.000000   0.000003   0.000000   0.000014
    23  H    0.000000   0.000008  -0.000000   0.000002   0.000008   0.005301
    24  H    0.000000  -0.000000  -0.000000  -0.000000  -0.000000  -0.000035
    25  H    0.000000  -0.000000  -0.000000   0.000011   0.000007   0.000517
    26  H   -0.000000  -0.000000  -0.000000   0.000000  -0.000001  -0.000002
    27  H    0.000000  -0.000001  -0.000000  -0.000003   0.000072  -0.000020
    28  H   -0.000000  -0.000000  -0.000000  -0.000000  -0.000000  -0.000001
    29  H    0.000000  -0.000000   0.000000  -0.000000   0.000000  -0.000000
    30  H   -0.000021  -0.000000  -0.000000  -0.000000  -0.000000   0.000000
    31  H   -0.000099   0.000000   0.000000   0.000000   0.000000   0.000000
    32  H    0.000034   0.000000   0.000000  -0.000000   0.000000   0.000000
    33  H   -0.000114   0.000000   0.000000   0.000000   0.000000  -0.000000
    34  H   -0.002996   0.000000   0.000000   0.000000   0.000000   0.000000
    35  H    0.005063   0.000000   0.000000  -0.000000   0.000000  -0.000000
    36  H   -0.041708   0.000000   0.000000   0.000000   0.000000  -0.000000
    37  H   -0.053412  -0.000000  -0.000000  -0.000000   0.000000  -0.000000
    38  H    0.341153   0.000000   0.000000  -0.000000  -0.000000  -0.000000
    39  H    0.337629   0.000000   0.000000  -0.000000   0.000000  -0.000000
              19         20         21         22         23         24
     1  N    0.004200   0.002593  -0.000556  -0.000001  -0.000004   0.000000
     2  C   -0.032780  -0.005910  -0.002960  -0.000167   0.000068  -0.000001
     3  C    0.374405  -0.040592  -0.042195   0.005035  -0.007241   0.000073
     4  C   -0.039414   0.375943   0.381024  -0.035473  -0.038781   0.005243
     5  C   -0.006394  -0.032418  -0.037748   0.376070   0.373923  -0.033391
     6  C    0.003087   0.005129  -0.007816  -0.038895  -0.034160   0.379843
     7  C    0.000183   0.000047   0.004194  -0.007369   0.004989  -0.041218
     8  C   -0.000072  -0.000003  -0.000104   0.000035  -0.000149  -0.005095
     9  C   -0.000002  -0.000000   0.000009  -0.000001   0.000002   0.000103
    10  C   -0.000000  -0.000000  -0.000000   0.000000  -0.000000   0.000002
    11  C    0.000000  -0.000000   0.000000   0.000000   0.000000   0.000000
    12  C    0.000000  -0.000000   0.000000   0.000000   0.000000  -0.000000
    13  N   -0.000000  -0.000000  -0.000000   0.000000   0.000000   0.000000
    14  H   -0.000084   0.002366   0.000122   0.000010   0.000008  -0.000000
    15  H   -0.000243  -0.000196  -0.000039  -0.000000  -0.000000  -0.000000
    16  H   -0.004355  -0.000046  -0.000017   0.000003   0.000002  -0.000000
    17  H    0.000071   0.000424   0.006238   0.000000   0.000008  -0.000000
    18  H   -0.035386  -0.004827   0.006333   0.000014   0.005301  -0.000035
    19  H    0.636920   0.006332  -0.005890  -0.000002  -0.000304  -0.000062
    20  H    0.006332   0.650305  -0.039455  -0.003750  -0.004904  -0.000157
    21  H   -0.005890  -0.039455   0.640093  -0.003818   0.006162  -0.000011
    22  H   -0.000002  -0.003750  -0.003818   0.653594  -0.037304  -0.005032
    23  H   -0.000304  -0.004904   0.006162  -0.037304   0.654770  -0.003649
    24  H   -0.000062  -0.000157  -0.000011  -0.005032  -0.003649   0.650098
    25  H    0.001428  -0.000019   0.000074   0.006171  -0.004009  -0.039117
    26  H   -0.000027  -0.000042   0.000627   0.005391   0.000030  -0.005335
    27  H    0.001359  -0.000012   0.001186  -0.000272  -0.000051   0.006106
    28  H    0.000024  -0.000000   0.000008   0.000006   0.000004  -0.000556
    29  H    0.000002   0.000000  -0.000001   0.000004  -0.000006   0.005613
    30  H    0.000000  -0.000000   0.000001  -0.000002   0.000000   0.000006
    31  H   -0.000000   0.000000  -0.000003   0.000001  -0.000000   0.000007
    32  H    0.000000   0.000000   0.000000  -0.000000   0.000000   0.000001
    33  H   -0.000000   0.000000  -0.000000   0.000000   0.000000  -0.000004
    34  H    0.000000   0.000000   0.000000  -0.000000   0.000000   0.000000
    35  H    0.000000   0.000000  -0.000000  -0.000000  -0.000000   0.000000
    36  H    0.000000   0.000000  -0.000000  -0.000000  -0.000000   0.000000
    37  H    0.000000   0.000000   0.000000  -0.000000  -0.000000  -0.000000
    38  H   -0.000000   0.000000  -0.000000  -0.000000  -0.000000  -0.000000
    39  H   -0.000000  -0.000000  -0.000000   0.000000  -0.000000  -0.000000
              25         26         27         28         29         30
     1  N   -0.000000  -0.000000   0.000001   0.000000   0.000000   0.000000
     2  C   -0.000129   0.000000  -0.000059   0.000000  -0.000000  -0.000000
     3  C    0.003680   0.000131   0.000319   0.000005  -0.000001  -0.000000
     4  C   -0.007745  -0.001293   0.002590  -0.000020   0.000003   0.000000
     5  C   -0.037337  -0.002509  -0.005184   0.000112   0.000007   0.000002
     6  C    0.382247  -0.041426  -0.037443  -0.003761  -0.004336   0.000073
     7  C   -0.039893   0.383663   0.383735  -0.038788  -0.039008  -0.004029
     8  C   -0.003878  -0.039109  -0.038368   0.382978   0.382127  -0.038693
     9  C    0.000045  -0.004005  -0.004089  -0.039256  -0.038724   0.383423
    10  C    0.000002   0.000070   0.000074  -0.003670  -0.004252  -0.040996
    11  C    0.000000   0.000003   0.000003   0.000107   0.000020  -0.003459
    12  C    0.000000   0.000000  -0.000003  -0.000020   0.000002  -0.000919
    13  N    0.000000  -0.000000   0.000000  -0.000000   0.000000  -0.000021
    14  H   -0.000000  -0.000000  -0.000001  -0.000000  -0.000000  -0.000000
    15  H   -0.000000  -0.000000  -0.000000  -0.000000   0.000000  -0.000000
    16  H    0.000011   0.000000  -0.000003  -0.000000  -0.000000  -0.000000
    17  H    0.000007  -0.000001   0.000072  -0.000000   0.000000  -0.000000
    18  H    0.000517  -0.000002  -0.000020  -0.000001  -0.000000   0.000000
    19  H    0.001428  -0.000027   0.001359   0.000024   0.000002   0.000000
    20  H   -0.000019  -0.000042  -0.000012  -0.000000   0.000000  -0.000000
    21  H    0.000074   0.000627   0.001186   0.000008  -0.000001   0.000001
    22  H    0.006171   0.005391  -0.000272   0.000006   0.000004  -0.000002
    23  H   -0.004009   0.000030  -0.000051   0.000004  -0.000006   0.000000
    24  H   -0.039117  -0.005335   0.006106  -0.000556   0.005613   0.000006
    25  H    0.641907   0.006160  -0.006762   0.004832  -0.000520   0.000004
    26  H    0.006160   0.645066  -0.040711   0.006019  -0.005968   0.004947
    27  H   -0.006762  -0.040711   0.637437  -0.006071   0.006018  -0.000561
    28  H    0.004832   0.006019  -0.006071   0.644137  -0.040213   0.006017
    29  H   -0.000520  -0.005968   0.006018  -0.040213   0.644828  -0.005945
    30  H    0.000004   0.004947  -0.000561   0.006017  -0.005945   0.643737
    31  H    0.000006  -0.000555   0.005404  -0.005967   0.005959  -0.040253
    32  H   -0.000003   0.000003   0.000005   0.004781  -0.000472   0.006075
    33  H    0.000001   0.000006   0.000007  -0.000555   0.005686  -0.005286
    34  H   -0.000000  -0.000002   0.000001   0.000007   0.000009   0.005780
    35  H    0.000000   0.000000  -0.000000   0.000005  -0.000008   0.000067
    36  H   -0.000000  -0.000000   0.000000  -0.000001   0.000001   0.000078
    37  H    0.000000   0.000001  -0.000006   0.000014  -0.000003   0.000617
    38  H    0.000000  -0.000000   0.000000  -0.000000   0.000000   0.000002
    39  H   -0.000000   0.000000  -0.000000   0.000000   0.000000  -0.000000
              31         32         33         34         35         36
     1  N   -0.000000   0.000000  -0.000000   0.000000  -0.000000   0.000000
     2  C   -0.000000  -0.000000  -0.000000  -0.000000   0.000000   0.000000
     3  C    0.000000  -0.000000   0.000000  -0.000000  -0.000000  -0.000000
     4  C   -0.000004   0.000000  -0.000000   0.000000  -0.000000   0.000000
     5  C    0.000003   0.000000   0.000000  -0.000000   0.000000  -0.000000
     6  C    0.000078   0.000002   0.000001   0.000000  -0.000000  -0.000000
     7  C   -0.004048   0.000042   0.000110  -0.000001   0.000002  -0.000000
     8  C   -0.037826  -0.004062  -0.005428   0.000030  -0.000132  -0.000050
     9  C    0.384062  -0.039492  -0.040462  -0.007909   0.004784  -0.000625
    10  C   -0.038357   0.382166   0.379045  -0.036132  -0.028497  -0.003928
    11  C   -0.004479  -0.037812  -0.032163   0.382490   0.366910  -0.033780
    12  C    0.002380  -0.008326   0.004850  -0.040190  -0.039594   0.385388
    13  N   -0.000099   0.000034  -0.000114  -0.002996   0.005063  -0.041708
    14  H    0.000000   0.000000   0.000000   0.000000   0.000000   0.000000
    15  H    0.000000   0.000000   0.000000   0.000000   0.000000   0.000000
    16  H    0.000000  -0.000000   0.000000   0.000000  -0.000000   0.000000
    17  H    0.000000   0.000000   0.000000   0.000000   0.000000   0.000000
    18  H    0.000000   0.000000  -0.000000   0.000000  -0.000000  -0.000000
    19  H   -0.000000   0.000000  -0.000000   0.000000   0.000000   0.000000
    20  H    0.000000   0.000000   0.000000   0.000000   0.000000   0.000000
    21  H   -0.000003   0.000000  -0.000000   0.000000  -0.000000  -0.000000
    22  H    0.000001  -0.000000   0.000000  -0.000000  -0.000000  -0.000000
    23  H   -0.000000   0.000000   0.000000   0.000000  -0.000000  -0.000000
    24  H    0.000007   0.000001  -0.000004   0.000000   0.000000   0.000000
    25  H    0.000006  -0.000003   0.000001  -0.000000   0.000000  -0.000000
    26  H   -0.000555   0.000003   0.000006  -0.000002   0.000000  -0.000000
    27  H    0.005404   0.000005   0.000007   0.000001  -0.000000   0.000000
    28  H   -0.005967   0.004781  -0.000555   0.000007   0.000005  -0.000001
    29  H    0.005959  -0.000472   0.005686   0.000009  -0.000008   0.000001
    30  H   -0.040253   0.006075  -0.005286   0.005780   0.000067   0.000078
    31  H    0.636084  -0.006326   0.005984  -0.000238  -0.000025   0.000268
    32  H   -0.006326   0.643118  -0.038707   0.006045  -0.003230   0.005711
    33  H    0.005984  -0.038707   0.647588  -0.003453  -0.005251   0.000014
    34  H   -0.000238   0.006045  -0.003453   0.641471  -0.039994   0.005961
    35  H   -0.000025  -0.003230  -0.005251  -0.039994   0.651925  -0.007023
    36  H    0.000268   0.005711   0.000014   0.005961  -0.007023   0.636901
    37  H    0.002840  -0.000213  -0.000108  -0.007610   0.006977  -0.049270
    38  H    0.000001   0.000017   0.000002   0.005498  -0.000718   0.006649
    39  H    0.000003  -0.000001   0.000004  -0.000036  -0.000041  -0.003259
              37         38         39
     1  N   -0.000000   0.000000  -0.000000
     2  C   -0.000000   0.000000   0.000000
     3  C    0.000000  -0.000000   0.000000
     4  C    0.000000   0.000000   0.000000
     5  C    0.000000   0.000000   0.000000
     6  C   -0.000000  -0.000000  -0.000000
     7  C    0.000006   0.000000   0.000000
     8  C    0.000014  -0.000000  -0.000000
     9  C    0.001904  -0.000020   0.000004
    10  C   -0.000645  -0.000056  -0.000240
    11  C   -0.046902  -0.005792   0.005812
    12  C    0.390676  -0.038948  -0.033695
    13  N   -0.053412   0.341153   0.337629
    14  H   -0.000000   0.000000   0.000000
    15  H   -0.000000   0.000000   0.000000
    16  H   -0.000000  -0.000000  -0.000000
    17  H    0.000000  -0.000000   0.000000
    18  H   -0.000000  -0.000000  -0.000000
    19  H    0.000000  -0.000000  -0.000000
    20  H    0.000000   0.000000  -0.000000
    21  H    0.000000  -0.000000  -0.000000
    22  H   -0.000000  -0.000000   0.000000
    23  H   -0.000000  -0.000000  -0.000000
    24  H   -0.000000  -0.000000  -0.000000
    25  H    0.000000   0.000000  -0.000000
    26  H    0.000001  -0.000000   0.000000
    27  H   -0.000006   0.000000  -0.000000
    28  H    0.000014  -0.000000   0.000000
    29  H   -0.000003   0.000000   0.000000
    30  H    0.000617   0.000002  -0.000000
    31  H    0.002840   0.000001   0.000003
    32  H   -0.000213   0.000017  -0.000001
    33  H   -0.000108   0.000002   0.000004
    34  H   -0.007610   0.005498  -0.000036
    35  H    0.006977  -0.000718  -0.000041
    36  H   -0.049270   0.006649  -0.003259
    37  H    0.676147  -0.004946  -0.003782
    38  H   -0.004946   0.482094  -0.032188
    39  H   -0.003782  -0.032188   0.482281
 Mulliken charges:
               1
     1  N   -0.645261
     2  C   -0.053297
     3  C   -0.166889
     4  C   -0.181530
     5  C   -0.183885
     6  C   -0.178367
     7  C   -0.173323
     8  C   -0.177525
     9  C   -0.173990
    10  C   -0.181743
    11  C   -0.177694
    12  C   -0.041408
    13  N   -0.650781
    14  H    0.250243
    15  H    0.250635
    16  H    0.095931
    17  H    0.080118
    18  H    0.090421
    19  H    0.097003
    20  H    0.089192
    21  H    0.094540
    22  H    0.085753
    23  H    0.085296
    24  H    0.086569
    25  H    0.092321
    26  H    0.088869
    27  H    0.095298
    28  H    0.089824
    29  H    0.089179
    30  H    0.089338
    31  H    0.095104
    32  H    0.090645
    33  H    0.088232
    34  H    0.091270
    35  H    0.088779
    36  H    0.098674
    37  H    0.087700
    38  H    0.247251
    39  H    0.247508
 Sum of Mulliken charges =  -0.00000
 Mulliken charges with hydrogens summed into heavy atoms:
               1
     1  N   -0.144383
     2  C    0.122753
     3  C    0.020536
     4  C    0.002202
     5  C   -0.012836
     6  C    0.000523
     7  C    0.010843
     8  C    0.001478
     9  C    0.010451
    10  C   -0.002866
    11  C    0.002356
    12  C    0.144966
    13  N   -0.156022
 APT charges:
               1
     1  N   -1.515670
     2  C   -0.362658
     3  C   -0.487357
     4  C   -0.735162
     5  C   -1.043816
     6  C   -0.732442
     7  C   -0.484900
     8  C   -0.729250
     9  C   -0.476954
    10  C   -0.739631
    11  C   -1.118753
    12  C    0.010723
    13  N   -1.452626
    14  H    0.296038
    15  H    0.994581
    16  H    0.479346
    17  H    0.121589
    18  H    0.567331
    19  H   -0.039249
    20  H    0.670831
    21  H    0.037189
    22  H    0.378987
    23  H    0.606624
    24  H    0.466309
    25  H    0.280537
    26  H    0.346125
    27  H    0.159593
    28  H    0.267557
    29  H    0.459298
    30  H    0.344963
    31  H    0.156569
    32  H    0.281630
    33  H    0.471224
    34  H    0.337447
    35  H    0.710718
    36  H    0.287220
    37  H   -0.000675
    38  H    0.525593
    39  H    0.661121
 Sum of APT charges =  -0.00000
 APT charges with hydrogens summed into heavy atoms:
               1
     1  N   -0.225051
     2  C    0.238277
     3  C    0.040725
     4  C   -0.027142
     5  C   -0.058205
     6  C    0.014404
     7  C    0.020819
     8  C   -0.002395
     9  C    0.024578
    10  C    0.013223
    11  C   -0.070589
    12  C    0.297267
    13  N   -0.265911
 Electronic spatial extent (au):  <R**2>=           6473.6683
 Charge=             -0.0000 electrons
 Dipole moment (field-independent basis, Debye):
    X=             -0.2241    Y=              1.4943    Z=             -1.9115  Tot=              2.4366
 Quadrupole moment (field-independent basis, Debye-Ang):
   XX=           -112.2179   YY=            -78.0537   ZZ=            -82.6559
   XY=             -3.0969   XZ=             -0.6469   YZ=             -2.6719
 Traceless Quadrupole moment (field-independent basis, Debye-Ang):
   XX=            -21.2421   YY=             12.9222   ZZ=              8.3199
   XY=             -3.0969   XZ=             -0.6469   YZ=             -2.6719
 Octapole moment (field-independent basis, Debye-Ang**2):
  XXX=            -46.6826  YYY=             40.4106  ZZZ=             -5.9490  XYY=             -5.6256
  XXY=             20.7523  XXZ=            -72.8103  XZZ=              4.9420  YZZ=              8.6036
  YYZ=             -7.3956  XYZ=             -1.9576
 Hexadecapole moment (field-independent basis, Debye-Ang**3):
 XXXX=          -8947.1966 YYYY=          -1009.4447 ZZZZ=           -278.3640 XXXY=           -177.6266
 XXXZ=            -31.5817 YYYX=            -14.8491 YYYZ=            -15.6672 ZZZX=            -14.5607
 ZZZY=             -5.3224 XXYY=          -1162.2009 XXZZ=          -1145.4544 YYZZ=           -227.7173
[...]
    69    C    5  pz     Val( 2p)     1.19846
    70    C    5  pz     Ryd( 3p)     0.00350
    71    C    5  dxy    Ryd( 3d)     0.00082
    72    C    5  dxz    Ryd( 3d)     0.00055
    73    C    5  dyz    Ryd( 3d)     0.00055
    74    C    5  dx2y2  Ryd( 3d)     0.00049
    75    C    5  dz2    Ryd( 3d)     0.00075

    76    C    6  S      Cor( 1S)     1.99934
    77    C    6  S      Val( 2S)     1.03174
    78    C    6  S      Ryd( 3S)     0.00079
    79    C    6  S      Ryd( 4S)     0.00002
    80    C    6  px     Val( 2p)     1.04312
    81    C    6  px     Ryd( 3p)     0.00184
    82    C    6  py     Val( 2p)     1.20057
    83    C    6  py     Ryd( 3p)     0.00356
    84    C    6  pz     Val( 2p)     1.17483
    85    C    6  pz     Ryd( 3p)     0.00182
    86    C    6  dxy    Ryd( 3d)     0.00053
    87    C    6  dxz    Ryd( 3d)     0.00055
    88    C    6  dyz    Ryd( 3d)     0.00027
    89    C    6  dx2y2  Ryd( 3d)     0.00087
    90    C    6  dz2    Ryd( 3d)     0.00098

    91    C    7  S      Cor( 1S)     1.99933
    92    C    7  S      Val( 2S)     1.03217
    93    C    7  S      Ryd( 3S)     0.00095
    94    C    7  S      Ryd( 4S)     0.00002
    95    C    7  px     Val( 2p)     1.04011
    96    C    7  px     Ryd( 3p)     0.00248
    97    C    7  py     Val( 2p)     1.20273
    98    C    7  py     Ryd( 3p)     0.00234
    99    C    7  pz     Val( 2p)     1.17554
   100    C    7  pz     Ryd( 3p)     0.00204
   101    C    7  dxy    Ryd( 3d)     0.00047
   102    C    7  dxz    Ryd( 3d)     0.00054
   103    C    7  dyz    Ryd( 3d)     0.00025
   104    C    7  dx2y2  Ryd( 3d)     0.00090
   105    C    7  dz2    Ryd( 3d)     0.00099

   106    C    8  S      Cor( 1S)     1.99934
   107    C    8  S      Val( 2S)     1.02967
   108    C    8  S      Ryd( 3S)     0.00091
   109    C    8  S      Ryd( 4S)     0.00002
   110    C    8  px     Val( 2p)     1.03978
   111    C    8  px     Ryd( 3p)     0.00237
   112    C    8  py     Val( 2p)     1.19745
   113    C    8  py     Ryd( 3p)     0.00241
   114    C    8  pz     Val( 2p)     1.17821
   115    C    8  pz     Ryd( 3p)     0.00200
   116    C    8  dxy    Ryd( 3d)     0.00050
   117    C    8  dxz    Ryd( 3d)     0.00053
   118    C    8  dyz    Ryd( 3d)     0.00025
   119    C    8  dx2y2  Ryd( 3d)     0.00090
   120    C    8  dz2    Ryd( 3d)     0.00101

   121    C    9  S      Cor( 1S)     1.99934
   122    C    9  S      Val( 2S)     1.03039
   123    C    9  S      Ryd( 3S)     0.00091
   124    C    9  S      Ryd( 4S)     0.00002
   125    C    9  px     Val( 2p)     1.04319
   126    C    9  px     Ryd( 3p)     0.00244
   127    C    9  py     Val( 2p)     1.19913
   128    C    9  py     Ryd( 3p)     0.00227
   129    C    9  pz     Val( 2p)     1.17687
   130    C    9  pz     Ryd( 3p)     0.00197
   131    C    9  dxy    Ryd( 3d)     0.00049
   132    C    9  dxz    Ryd( 3d)     0.00055
   133    C    9  dyz    Ryd( 3d)     0.00025
   134    C    9  dx2y2  Ryd( 3d)     0.00089
   135    C    9  dz2    Ryd( 3d)     0.00099

   136    C   10  S      Cor( 1S)     1.99934
   137    C   10  S      Val( 2S)     1.03100
   138    C   10  S      Ryd( 3S)     0.00077
   139    C   10  S      Ryd( 4S)     0.00002
   140    C   10  px     Val( 2p)     1.03447
   141    C   10  px     Ryd( 3p)     0.00172
   142    C   10  py     Val( 2p)     1.21003
   143    C   10  py     Ryd( 3p)     0.00347
   144    C   10  pz     Val( 2p)     1.17440
   145    C   10  pz     Ryd( 3p)     0.00179
   146    C   10  dxy    Ryd( 3d)     0.00045
   147    C   10  dxz    Ryd( 3d)     0.00056
   148    C   10  dyz    Ryd( 3d)     0.00028
   149    C   10  dx2y2  Ryd( 3d)     0.00092
   150    C   10  dz2    Ryd( 3d)     0.00098

   151    C   11  S      Cor( 1S)     1.99933
   152    C   11  S      Val( 2S)     1.03842
   153    C   11  S      Ryd( 3S)     0.00086
   154    C   11  S      Ryd( 4S)     0.00002
   155    C   11  px     Val( 2p)     1.14120
   156    C   11  px     Ryd( 3p)     0.00303
   157    C   11  py     Val( 2p)     1.06374
   158    C   11  py     Ryd( 3p)     0.00172
   159    C   11  pz     Val( 2p)     1.21809
   160    C   11  pz     Ryd( 3p)     0.00303
   161    C   11  dxy    Ryd( 3d)     0.00051
   162    C   11  dxz    Ryd( 3d)     0.00056
   163    C   11  dyz    Ryd( 3d)     0.00046
   164    C   11  dx2y2  Ryd( 3d)     0.00079
   165    C   11  dz2    Ryd( 3d)     0.00081

   166    C   12  S      Cor( 1S)     1.99936
   167    C   12  S      Val( 2S)     1.02170
   168    C   12  S      Ryd( 3S)     0.00205
   169    C   12  S      Ryd( 4S)     0.00004
   170    C   12  px     Val( 2p)     0.98649
   171    C   12  px     Ryd( 3p)     0.00307
   172    C   12  py     Val( 2p)     1.04923
   173    C   12  py     Ryd( 3p)     0.00101
   174    C   12  pz     Val( 2p)     1.19114
   175    C   12  pz     Ryd( 3p)     0.00195
   176    C   12  dxy    Ryd( 3d)     0.00091
   177    C   12  dxz    Ryd( 3d)     0.00088
   178    C   12  dyz    Ryd( 3d)     0.00063
   179    C   12  dx2y2  Ryd( 3d)     0.00138
   180    C   12  dz2    Ryd( 3d)     0.00106

   181    N   13  S      Cor( 1S)     1.99969
   182    N   13  S      Val( 2S)     1.44994
   183    N   13  S      Ryd( 3S)     0.00048
   184    N   13  S      Ryd( 4S)     0.00000
   185    N   13  px     Val( 2p)     1.55231
   186    N   13  px     Ryd( 3p)     0.00411
   187    N   13  py     Val( 2p)     1.43058
   188    N   13  py     Ryd( 3p)     0.00262
   189    N   13  pz     Val( 2p)     1.48195
   190    N   13  pz     Ryd( 3p)     0.00304
   191    N   13  dxy    Ryd( 3d)     0.00074
   192    N   13  dxz    Ryd( 3d)     0.00086
   193    N   13  dyz    Ryd( 3d)     0.00029
   194    N   13  dx2y2  Ryd( 3d)     0.00134
   195    N   13  dz2    Ryd( 3d)     0.00140

   196    H   14  S      Val( 1S)     0.72075
   197    H   14  S      Ryd( 2S)     0.07777
   198    H   14  px     Ryd( 2p)     0.00031
   199    H   14  py     Ryd( 2p)     0.00018
   200    H   14  pz     Ryd( 2p)     0.00073

   201    H   15  S      Val( 1S)     0.72666
   202    H   15  S      Ryd( 2S)     0.07888
   203    H   15  px     Ryd( 2p)     0.00026
   204    H   15  py     Ryd( 2p)     0.00070
   205    H   15  pz     Ryd( 2p)     0.00021

   206    H   16  S      Val( 1S)     0.75839
   207    H   16  S      Ryd( 2S)     0.02168
   208    H   16  px     Ryd( 2p)     0.00008
   209    H   16  py     Ryd( 2p)     0.00009
   210    H   16  pz     Ryd( 2p)     0.00035

   211    H   17  S      Val( 1S)     0.71167
   212    H   17  S      Ryd( 2S)     0.02916
   213    H   17  px     Ryd( 2p)     0.00026
   214    H   17  py     Ryd( 2p)     0.00020
   215    H   17  pz     Ryd( 2p)     0.00011

   216    H   18  S      Val( 1S)     0.75430
   217    H   18  S      Ryd( 2S)     0.00590
   218    H   18  px     Ryd( 2p)     0.00022
   219    H   18  py     Ryd( 2p)     0.00020
   220    H   18  pz     Ryd( 2p)     0.00014

   221    H   19  S      Val( 1S)     0.76771
   222    H   19  S      Ryd( 2S)     0.00971
   223    H   19  px     Ryd( 2p)     0.00025
   224    H   19  py     Ryd( 2p)     0.00011
   225    H   19  pz     Ryd( 2p)     0.00020

   226    H   20  S      Val( 1S)     0.79643
   227    H   20  S      Ryd( 2S)     0.02575
   228    H   20  px     Ryd( 2p)     0.00026
   229    H   20  py     Ryd( 2p)     0.00012
   230    H   20  pz     Ryd( 2p)     0.00020

   231    H   21  S      Val( 1S)     0.77768
   232    H   21  S      Ryd( 2S)     0.01295
   233    H   21  px     Ryd( 2p)     0.00021
   234    H   21  py     Ryd( 2p)     0.00018
   235    H   21  pz     Ryd( 2p)     0.00015

   236    H   22  S      Val( 1S)     0.76622
   237    H   22  S      Ryd( 2S)     0.00239
   238    H   22  px     Ryd( 2p)     0.00010
   239    H   22  py     Ryd( 2p)     0.00014
   240    H   22  pz     Ryd( 2p)     0.00032

   241    H   23  S      Val( 1S)     0.76718
   242    H   23  S      Ryd( 2S)     0.00215
   243    H   23  px     Ryd( 2p)     0.00023
   244    H   23  py     Ryd( 2p)     0.00020
   245    H   23  pz     Ryd( 2p)     0.00013

   246    H   24  S      Val( 1S)     0.77052
   247    H   24  S      Ryd( 2S)     0.00336
   248    H   24  px     Ryd( 2p)     0.00011
   249    H   24  py     Ryd( 2p)     0.00035
   250    H   24  pz     Ryd( 2p)     0.00010

   251    H   25  S      Val( 1S)     0.77424
   252    H   25  S      Ryd( 2S)     0.00416
   253    H   25  px     Ryd( 2p)     0.00010
   254    H   25  py     Ryd( 2p)     0.00012
   255    H   25  pz     Ryd( 2p)     0.00033

   256    H   26  S      Val( 1S)     0.77297
   257    H   26  S      Ryd( 2S)     0.00266
   258    H   26  px     Ryd( 2p)     0.00010
   259    H   26  py     Ryd( 2p)     0.00011
   260    H   26  pz     Ryd( 2p)     0.00034

   261    H   27  S      Val( 1S)     0.77698
   262    H   27  S      Ryd( 2S)     0.00680
   263    H   27  px     Ryd( 2p)     0.00012
   264    H   27  py     Ryd( 2p)     0.00035
   265    H   27  pz     Ryd( 2p)     0.00009

   266    H   28  S      Val( 1S)     0.77124
   267    H   28  S      Ryd( 2S)     0.00228
   268    H   28  px     Ryd( 2p)     0.00011
   269    H   28  py     Ryd( 2p)     0.00011
   270    H   28  pz     Ryd( 2p)     0.00034

   271    H   29  S      Val( 1S)     0.77121
   272    H   29  S      Ryd( 2S)     0.00199
   273    H   29  px     Ryd( 2p)     0.00011
   274    H   29  py     Ryd( 2p)     0.00035
   275    H   29  pz     Ryd( 2p)     0.00009

   276    H   30  S      Val( 1S)     0.77040
   277    H   30  S      Ryd( 2S)     0.00177
   278    H   30  px     Ryd( 2p)     0.00010
   279    H   30  py     Ryd( 2p)     0.00011
   280    H   30  pz     Ryd( 2p)     0.00034

   281    H   31  S      Val( 1S)     0.77021
   282    H   31  S      Ryd( 2S)     0.00167
   283    H   31  px     Ryd( 2p)     0.00012
   284    H   31  py     Ryd( 2p)     0.00035
   285    H   31  pz     Ryd( 2p)     0.00009

   286    H   32  S      Val( 1S)     0.76898
   287    H   32  S      Ryd( 2S)     0.00170
   288    H   32  px     Ryd( 2p)     0.00010
   289    H   32  py     Ryd( 2p)     0.00012
   290    H   32  pz     Ryd( 2p)     0.00034

   291    H   33  S      Val( 1S)     0.76219
   292    H   33  S      Ryd( 2S)     0.00147
   293    H   33  px     Ryd( 2p)     0.00011
   294    H   33  py     Ryd( 2p)     0.00036
   295    H   33  pz     Ryd( 2p)     0.00010

   296    H   34  S      Val( 1S)     0.77095
   297    H   34  S      Ryd( 2S)     0.00171
   298    H   34  px     Ryd( 2p)     0.00010
   299    H   34  py     Ryd( 2p)     0.00013
   300    H   34  pz     Ryd( 2p)     0.00033

   301    H   35  S      Val( 1S)     0.75932
   302    H   35  S      Ryd( 2S)     0.00217
   303    H   35  px     Ryd( 2p)     0.00027
   304    H   35  py     Ryd( 2p)     0.00012
   305    H   35  pz     Ryd( 2p)     0.00015

   306    H   36  S      Val( 1S)     0.77602
   307    H   36  S      Ryd( 2S)     0.00162
   308    H   36  px     Ryd( 2p)     0.00007
   309    H   36  py     Ryd( 2p)     0.00012
   310    H   36  pz     Ryd( 2p)     0.00037

   311    H   37  S      Val( 1S)     0.79464
   312    H   37  S      Ryd( 2S)     0.00180
   313    H   37  px     Ryd( 2p)     0.00025
   314    H   37  py     Ryd( 2p)     0.00015
   315    H   37  pz     Ryd( 2p)     0.00017

   316    H   38  S      Val( 1S)     0.61479
   317    H   38  S      Ryd( 2S)     0.00152
   318    H   38  px     Ryd( 2p)     0.00041
   319    H   38  py     Ryd( 2p)     0.00037
   320    H   38  pz     Ryd( 2p)     0.00065

   321    H   39  S      Val( 1S)     0.60829
   322    H   39  S      Ryd( 2S)     0.00125
   323    H   39  px     Ryd( 2p)     0.00041
   324    H   39  py     Ryd( 2p)     0.00061
   325    H   39  pz     Ryd( 2p)     0.00039


 Summary of Natural Population Analysis:                  
                                                          
                                       Natural Population 
                Natural  -----------------------------------------------
    Atom  No    Charge         Core      Valence    Rydberg      Total
 -----------------------------------------------------------------------
      N    1   -0.36650      1.99933     5.34465    0.02251     7.36650
      C    2   -0.35315      1.99929     4.33656    0.01730     6.35315
      C    3   -0.47675      1.99931     4.46612    0.01132     6.47675
      C    4   -0.48188      1.99932     4.46658    0.01597     6.48188
      C    5   -0.46148      1.99934     4.45016    0.01198     6.46148
      C    6   -0.46083      1.99934     4.45026    0.01123     6.46083
      C    7   -0.46087      1.99933     4.45055    0.01099     6.46087
      C    8   -0.45534      1.99934     4.44511    0.01090     6.45534
      C    9   -0.45969      1.99934     4.44958    0.01078     6.45969
      C   10   -0.46019      1.99934     4.44990    0.01095     6.46019
      C   11   -0.47259      1.99933     4.46145    0.01180     6.47259
      C   12   -0.26089      1.99936     4.24855    0.01299     6.26089
      N   13   -0.92937      1.99969     5.91479    0.01489     7.92937
      H   14    0.20026      0.00000     0.72075    0.07899     0.79974
      H   15    0.19329      0.00000     0.72666    0.08005     0.80671
      H   16    0.21942      0.00000     0.75839    0.02219     0.78058
      H   17    0.25861      0.00000     0.71167    0.02972     0.74139
      H   18    0.23925      0.00000     0.75430    0.00645     0.76075
      H   19    0.22202      0.00000     0.76771    0.01027     0.77798
      H   20    0.17724      0.00000     0.79643    0.02633     0.82276
      H   21    0.20883      0.00000     0.77768    0.01350     0.79117
      H   22    0.23084      0.00000     0.76622    0.00294     0.76916
      H   23    0.23011      0.00000     0.76718    0.00271     0.76989
      H   24    0.22556      0.00000     0.77052    0.00392     0.77444
      H   25    0.22103      0.00000     0.77424    0.00472     0.77897
      H   26    0.22381      0.00000     0.77297    0.00321     0.77619
      H   27    0.21565      0.00000     0.77698    0.00736     0.78435
      H   28    0.22592      0.00000     0.77124    0.00284     0.77408
      H   29    0.22624      0.00000     0.77121    0.00255     0.77376
      H   30    0.22727      0.00000     0.77040    0.00232     0.77273
      H   31    0.22755      0.00000     0.77021    0.00223     0.77245
      H   32    0.22877      0.00000     0.76898    0.00226     0.77123
      H   33    0.23579      0.00000     0.76219    0.00203     0.76421
      H   34    0.22678      0.00000     0.77095    0.00227     0.77322
      H   35    0.23797      0.00000     0.75932    0.00271     0.76203
      H   36    0.22181      0.00000     0.77602    0.00217     0.77819
      H   37    0.20299      0.00000     0.79464    0.00237     0.79701
      H   38    0.38227      0.00000     0.61479    0.00294     0.61773
      H   39    0.38904      0.00000     0.60829    0.00267     0.61096
 =======================================================================
   * Total *   -0.00119     25.99164    79.51420    0.49535   106.00119

                                 Natural Population      
 --------------------------------------------------------
   Core                      25.99164 ( 99.9679% of  26)
   Valence                   79.51420 ( 99.3927% of  80)
   Natural Minimal Basis    105.50584 ( 99.5338% of 106)
   Natural Rydberg Basis      0.49535 (  0.4673% of 106)
 --------------------------------------------------------

    Atom  No          Natural Electron Configuration
 ----------------------------------------------------------------------------
      N    1      [core]2S( 1.52)2p( 3.83)3S( 0.02)
      C    2      [core]2S( 1.06)2p( 3.28)3p( 0.01)
      C    3      [core]2S( 1.04)2p( 3.42)3p( 0.01)
      C    4      [core]2S( 1.05)2p( 3.42)3p( 0.01)
      C    5      [core]2S( 1.03)2p( 3.42)3p( 0.01)
      C    6      [core]2S( 1.03)2p( 3.42)3p( 0.01)
      C    7      [core]2S( 1.03)2p( 3.42)3p( 0.01)
      C    8      [core]2S( 1.03)2p( 3.42)3p( 0.01)
      C    9      [core]2S( 1.03)2p( 3.42)3p( 0.01)
      C   10      [core]2S( 1.03)2p( 3.42)3p( 0.01)
      C   11      [core]2S( 1.04)2p( 3.42)3p( 0.01)
      C   12      [core]2S( 1.02)2p( 3.23)3p( 0.01)
      N   13      [core]2S( 1.45)2p( 4.46)3p( 0.01)
      H   14            1S( 0.72)2S( 0.08)
      H   15            1S( 0.73)2S( 0.08)
      H   16            1S( 0.76)2S( 0.02)
      H   17            1S( 0.71)2S( 0.03)
      H   18            1S( 0.75)2S( 0.01)
      H   19            1S( 0.77)2S( 0.01)
      H   20            1S( 0.80)2S( 0.03)
      H   21            1S( 0.78)2S( 0.01)
      H   22            1S( 0.77)
      H   23            1S( 0.77)
      H   24            1S( 0.77)
      H   25            1S( 0.77)
      H   26            1S( 0.77)
      H   27            1S( 0.78)2S( 0.01)
      H   28            1S( 0.77)
      H   29            1S( 0.77)
      H   30            1S( 0.77)
      H   31            1S( 0.77)
      H   32            1S( 0.77)
      H   33            1S( 0.76)
      H   34            1S( 0.77)
      H   35            1S( 0.76)
      H   36            1S( 0.78)
      H   37            1S( 0.79)
      H   38            1S( 0.61)
      H   39            1S( 0.61)


 NBO analysis skipped by request.
 1\1\GINC-DRG2-W002\SP\RB3LYP TD-FC\6-31G(d,p)\C11H26N2\QDUEZ\18-Jul-20
 24\0\\# TD(NStates=10, Root=1) B3LYP/6-31G** SCRF=(Solvent=water) volu
 me pop=NPA density=current Geom=AllCheck Guess=Read\\KLNPWTHGTVSSEU-UH
 FFFAOYSA-N_conf_1\\0,1\N,0,5.7080427228,1.6952220178,0.5084514984\C,0,
 4.5214459376,1.6197795177,-0.3614306183\C,0,3.9124315632,0.2134171344,
 -0.3778377266\C,0,3.3492633792,-0.2401636043,0.9764151752\C,0,2.736648
 94,-1.6526422914,0.9692226397\C,0,1.4930101869,-1.8477494703,0.0840588
 577\C,0,0.2709441202,-1.0197507796,0.503949683\C,0,-0.9756142531,-1.30
 9044708,-0.341910257\C,0,-2.2031105177,-0.4868215466,0.0705834842\C,0,
 -3.4450764345,-0.7881828827,-0.7808120015\C,0,-4.7231835544,-0.0503849
 932,-0.3513678729\C,0,-4.685184232,1.4663400857,-0.5565624856\N,0,-5.9
 889043739,2.0661343964,-0.222311142\H,0,5.4112500702,1.6594863077,1.48
 17866766\H,0,6.135474761,2.613163139,0.4006150741\H,0,4.8425192315,1.8
 773448145,-1.3775917255\H,0,3.7348854071,2.3459021351,-0.0895677348\H,
 0,4.678682794,-0.4997358057,-0.7110143738\H,0,3.1175725794,0.199718988
 4,-1.1339643073\H,0,4.1541712638,-0.2286559449,1.7226314032\H,0,2.6046
 924228,0.4899524269,1.322065518\H,0,2.477299716,-1.9266213781,2.001030
 7828\H,0,3.5091127478,-2.3666335321,0.6521392943\H,0,1.2209319295,-2.9
 119079048,0.1057016406\H,0,1.7382075479,-1.6255366159,-0.9631575371\H,
 0,0.0459012733,-1.2192050403,1.5618291036\H,0,0.5038810106,0.051506963
 3,0.440041526\H,0,-0.7484017929,-1.1142429509,-1.3999632318\H,0,-1.218
 1013234,-2.3795348364,-0.2765998129\H,0,-2.4344235714,-0.6854137395,1.
 1271652559\H,0,-1.9544432158,0.5807757498,0.0093279953\H,0,-3.22899931
 13,-0.555076177,-1.8334124435\H,0,-3.6390180899,-1.8685819244,-0.74560
 86593\H,0,-4.9271017448,-0.2643103791,0.7083256253\H,0,-5.5780268773,-
 0.4454499681,-0.9142289578\H,0,-4.4791393014,1.6803861394,-1.613552186
 5\H,0,-3.8506814213,1.900327624,0.0178944037\H,0,-6.1512060842,1.95298
 51518,0.777880324\H,0,-5.9357535054,3.0732038815,-0.3662234737\\Versio
 n=ES64L-G16RevA.03\State=1-A\HF=-544.3796286\RMSD=5.275e-09\Dipole=0.8
 162016,0.6413002,-0.0985823\Quadrupole=-5.483823,4.8538028,0.6300203,-
 0.5374347,-9.0354438,0.1397894\PG=C01 [X(C11H26N2)]\\@


 TO ERR IS HUMAN - AND TO BLAME IT ON A COMPUTER IS EVEN MORE SO.
 Job cpu time:       0 days  0 hours 58 minutes 53.9 seconds.
 Elapsed time:       0 days  0 hours 19 minutes 46.3 seconds.
 File lengths (MBytes):  RWF=    869 Int=      0 D2E=      0 Chk=     56 Scr=      1
 Normal termination of Gaussian 16 at Thu Jul 18 06:44:18 2024.
