 Entering Gaussian System, Link 0=g16
 Initial command:
 /opt/sw/arch/manual/gaussian/G16_A03/g16/l1.exe "/scratch/1380906/Gau-111297.inp" -scrdir="/scratch/1380906/"
 Entering Link 1 = /opt/sw/arch/manual/gaussian/G16_A03/g16/l1.exe PID=    111298.
  
 Copyright (c) 1988,1990,1992,1993,1995,1998,2003,2009,2016,
            Gaussian, Inc.  All Rights Reserved.
  
 This is part of the Gaussian(R) 16 program.  It is based on
 the Gaussian(R) 09 system (copyright 2009, Gaussian, Inc.),
 the Gaussian(R) 03 system (copyright 2003, Gaussian, Inc.),
 the Gaussian(R) 98 system (copyright 1998, Gaussian, Inc.),
 the Gaussian(R) 94 system (copyright 1995, Gaussian, Inc.),
 the Gaussian 92(TM) system (copyright 1992, Gaussian, Inc.),
 the Gaussian 90(TM) system (copyright 1990, Gaussian, Inc.),
 the Gaussian 88(TM) system (copyright 1988, Gaussian, Inc.),
 the Gaussian 86(TM) system (copyright 1986, Carnegie Mellon
 University), and the Gaussian 82(TM) system (copyright 1983,
 Carnegie Mellon University). Gaussian is a federally registered
 trademark of Gaussian, Inc.
  
 This software contains proprietary and confidential information,
 including trade secrets, belonging to Gaussian, Inc.
  
 This software is provided under written license and may be
 used, copied, transmitted, or stored only in accord with that
 written license.
  
 The following legend is applicable only to US Government
 contracts under FAR:
  
                    RESTRICTED RIGHTS LEGEND
  
 Use, reproduction and disclosure by the US Government is
 subject to restrictions as set forth in subparagraphs (a)
 and (c) of the Commercial Computer Software - Restricted
 Rights clause in FAR 52.227-19.
  
 Gaussian, Inc.
 340 Quinnipiac St., Bldg. 40, Wallingford CT 06492
  
  
 ---------------------------------------------------------------
 Warning -- This program may not be used in any manner that
 competes with the business of Gaussian, Inc. or will provide
 assistance to any competitor of Gaussian, Inc.  The licensee
 of this program is prohibited from giving any competitor of
 Gaussian, Inc. access to this program.  By using this program,
 the user acknowledges that Gaussian, Inc. is engaged in the
 business of creating and licensing software in the field of
 computational chemistry and represents and warrants to the
 licensee that it is not a competitor of Gaussian, Inc. and that
 it will not use this program in any manner prohibited above.
 ---------------------------------------------------------------
  

 Cite this work as:
 Gaussian 16, Revision A.03,
 M. J. Frisch, G. W. Trucks, H. B. Schlegel, G. E. Scuseria, 
 M. A. Robb, J. R. Cheeseman, G. Scalmani, V. Barone, 
 G. A. Petersson, H. Nakatsuji, X. Li, M. Caricato, A. V. Marenich, 
 J. Bloino, B. G. Janesko, R. Gomperts, B. Mennucci, H. P. Hratchian, 
 J. V. Ortiz, A. F. Izmaylov, J. L. Sonnenberg, D. Williams-Young, 
 F. Ding, F. Lipparini, F. Egidi, J. Goings, B. Peng, A. Petrone, 
 T. Henderson, D. Ranasinghe, V. G. Zakrzewski, J. Gao, N. Rega, 
 G. Zheng, W. Liang, M. Hada, M. Ehara, K. Toyota, R. Fukuda, 
 J. Hasegawa, M. Ishida, T. Nakajima, Y. Honda, O. Kitao, H. Nakai, 
 T. Vreven, K. Throssell, J. A. Montgomery, Jr., J. E. Peralta, 
 F. Ogliaro, M. J. Bearpark, J. J. Heyd, E. N. Brothers, K. N. Kudin, 
 V. N. Staroverov, T. A. Keith, R. Kobayashi, J. Normand, 
 K. Raghavachari, A. P. Rendell, J. C. Burant, S. S. Iyengar, 
 J. Tomasi, M. Cossi, J. M. Millam, M. Klene, C. Adamo, R. Cammi, 
 J. W. Ochterski, R. L. Martin, K. Morokuma, O. Farkas, 
 J. B. Foresman, and D. J. Fox, Gaussian, Inc., Wallingford CT, 2016.
 
 ******************************************
 Gaussian 16:  ES64L-G16RevA.03 25-Dec-2016
                18-Jul-2024 
 ******************************************
 %nprocshared=6
 Will use up to    6 processors via shared memory.
 %mem=12GB
 %Chk=KLNPWTHGTVSSEU-UHFFFAOYSA-N_conf_2_0.chk
 -------------------------------------------------------
 # opt=CalcFc B3LYP/6-31G** SCRF=(Solvent=water) scf=xqc
 -------------------------------------------------------
 1/10=4,18=20,19=15,26=3,38=1/1,3;
 2/9=110,12=2,17=6,18=5,40=1/2;
 3/5=1,6=6,7=101,11=2,25=1,30=1,70=2201,71=2,72=1,74=-5,140=1/1,2,3;
 4//1;
 5/5=2,8=3,13=1,38=5,53=1/2,8;
 8/6=4,10=90,11=11/1;
 11/6=1,8=1,9=11,15=111,16=1/1,2,10;
 10/6=1,13=1/2;
 6/7=2,8=2,9=2,10=2,28=1/1;
 7/10=1,18=20,25=1/1,2,3,16;
 1/10=4,18=20,19=15,26=3/3(2);
 2/9=110/2;
 99//99;
 2/9=110/2;
 3/5=1,6=6,7=101,11=2,25=1,30=1,70=2205,71=1,72=1,74=-5/1,2,3;
 4/5=5,16=3,69=1/1;
 5/5=2,8=3,13=1,38=5,53=1/2,8;
 7//1,2,3,16;
 1/18=20,19=15,26=3/3(-5);
 2/9=110/2;
 6/7=2,8=2,9=2,10=2,19=2,28=1/1;
 99/9=1/99;
 ----------------------------------
 KLNPWTHGTVSSEU-UHFFFAOYSA-N_conf_2
 ----------------------------------
 Symbolic Z-matrix:
 Charge =  0 Multiplicity = 1
 N                    -4.93651   1.98185  -1.6785 
 C                    -4.22007   1.38383  -0.55677 
 C                    -4.21257  -0.13866  -0.68631 
 C                    -3.55923  -0.84646   0.50558 
 C                    -2.09722  -0.48137   0.78663 
 C                    -1.15547  -0.8045   -0.37611 
 C                     0.30795  -0.44463  -0.09313 
 C                     0.96335  -1.34141   0.95836 
 C                     2.41848  -0.96869   1.274 
 C                     3.38815  -1.14962   0.09935 
 C                     3.6826    0.13349  -0.69086 
 C                     4.87487   0.93967  -0.16447 
 N                     4.64666   1.4871    1.16522 
 H                    -5.90132   1.6532   -1.6838 
 H                    -4.98012   2.99203  -1.55087 
 H                    -4.70026   1.68246   0.38135 
 H                    -3.19841   1.77542  -0.55163 
 H                    -5.24607  -0.50131  -0.76472 
 H                    -3.71482  -0.43506  -1.61724 
 H                    -4.14677  -0.63177   1.40717 
 H                    -3.6289   -1.92967   0.3451 
 H                    -2.01784   0.58025   1.04641 
 H                    -1.78763  -1.03939   1.67732 
 H                    -1.23126  -1.86777  -0.63341 
 H                    -1.46632  -0.23989  -1.26245 
 H                     0.37602   0.60538   0.21529 
 H                     0.85596  -0.5385   -1.0375 
 H                     0.91798  -2.3869    0.62961 
 H                     0.40052  -1.28414   1.89651 
 H                     2.45513   0.04913   1.67426 
 H                     2.74895  -1.63006   2.08538 
 H                     4.33347  -1.55907   0.47703 
 H                     2.98737  -1.90589  -0.5869 
 H                     3.9221   -0.1572   -1.72189 
 H                     2.79575   0.77355  -0.75062 
 H                     5.07805   1.76523  -0.8559 
 H                     5.77037   0.30899  -0.14418 
 H                     3.83602   2.10451   1.14641 
 H                     5.44105   2.06587   1.43441 
 

 GradGradGradGradGradGradGradGradGradGradGradGradGradGradGradGradGradGrad
 Berny optimization.
 Initialization pass.
                           ----------------------------
                           !    Initial Parameters    !
                           ! (Angstroms and Degrees)  !
 --------------------------                            --------------------------
 ! Name  Definition              Value          Derivative Info.                !
 --------------------------------------------------------------------------------
 ! R1    R(1,2)                  1.4592         calculate D2E/DX2 analytically  !
 ! R2    R(1,14)                 1.0193         calculate D2E/DX2 analytically  !
 ! R3    R(1,15)                 1.0191         calculate D2E/DX2 analytically  !
 ! R4    R(2,3)                  1.528          calculate D2E/DX2 analytically  !
 ! R5    R(2,16)                 1.0954         calculate D2E/DX2 analytically  !
 ! R6    R(2,17)                 1.0941         calculate D2E/DX2 analytically  !
 ! R7    R(3,4)                  1.5325         calculate D2E/DX2 analytically  !
 ! R8    R(3,18)                 1.0981         calculate D2E/DX2 analytically  !
 ! R9    R(3,19)                 1.0965         calculate D2E/DX2 analytically  !
 ! R10   R(4,5)                  1.5329         calculate D2E/DX2 analytically  !
 ! R11   R(4,20)                 1.0973         calculate D2E/DX2 analytically  !
 ! R12   R(4,21)                 1.0972         calculate D2E/DX2 analytically  !
 ! R13   R(5,6)                  1.5308         calculate D2E/DX2 analytically  !
 ! R14   R(5,22)                 1.0958         calculate D2E/DX2 analytically  !
 ! R15   R(5,23)                 1.0957         calculate D2E/DX2 analytically  !
 ! R16   R(6,7)                  1.5334         calculate D2E/DX2 analytically  !
 ! R17   R(6,24)                 1.0966         calculate D2E/DX2 analytically  !
 ! R18   R(6,25)                 1.0959         calculate D2E/DX2 analytically  !
 ! R19   R(7,8)                  1.5295         calculate D2E/DX2 analytically  !
 ! R20   R(7,26)                 1.0965         calculate D2E/DX2 analytically  !
 ! R21   R(7,27)                 1.0959         calculate D2E/DX2 analytically  !
 ! R22   R(8,9)                  1.5349         calculate D2E/DX2 analytically  !
 ! R23   R(8,28)                 1.0969         calculate D2E/DX2 analytically  !
 ! R24   R(8,29)                 1.0955         calculate D2E/DX2 analytically  !
 ! R25   R(9,10)                 1.5339         calculate D2E/DX2 analytically  !
 ! R26   R(9,30)                 1.0943         calculate D2E/DX2 analytically  !
 ! R27   R(9,31)                 1.0977         calculate D2E/DX2 analytically  !
 ! R28   R(10,11)                1.5354         calculate D2E/DX2 analytically  !
 ! R29   R(10,32)                1.0972         calculate D2E/DX2 analytically  !
 ! R30   R(10,33)                1.097          calculate D2E/DX2 analytically  !
 ! R31   R(11,12)                1.5325         calculate D2E/DX2 analytically  !
 ! R32   R(11,34)                1.0977         calculate D2E/DX2 analytically  !
 ! R33   R(11,35)                1.0953         calculate D2E/DX2 analytically  !
 ! R34   R(12,13)                1.456          calculate D2E/DX2 analytically  !
 ! R35   R(12,36)                1.0959         calculate D2E/DX2 analytically  !
 ! R36   R(12,37)                1.0955         calculate D2E/DX2 analytically  !
 ! R37   R(13,38)                1.0192         calculate D2E/DX2 analytically  !
 ! R38   R(13,39)                1.0191         calculate D2E/DX2 analytically  !
 ! A1    A(2,1,14)             109.6702         calculate D2E/DX2 analytically  !
 ! A2    A(2,1,15)             109.3275         calculate D2E/DX2 analytically  !
 ! A3    A(14,1,15)            106.2453         calculate D2E/DX2 analytically  !
 ! A4    A(1,2,3)              110.2183         calculate D2E/DX2 analytically  !
 ! A5    A(1,2,16)             109.3543         calculate D2E/DX2 analytically  !
 ! A6    A(1,2,17)             108.3842         calculate D2E/DX2 analytically  !
 ! A7    A(3,2,16)             110.2678         calculate D2E/DX2 analytically  !
 ! A8    A(3,2,17)             110.6353         calculate D2E/DX2 analytically  !
 ! A9    A(16,2,17)            107.9232         calculate D2E/DX2 analytically  !
 ! A10   A(2,3,4)              113.3508         calculate D2E/DX2 analytically  !
 ! A11   A(2,3,18)             109.2988         calculate D2E/DX2 analytically  !
 ! A12   A(2,3,19)             110.0934         calculate D2E/DX2 analytically  !
 ! A13   A(4,3,18)             107.7138         calculate D2E/DX2 analytically  !
 ! A14   A(4,3,19)             109.9961         calculate D2E/DX2 analytically  !
 ! A15   A(18,3,19)            106.1021         calculate D2E/DX2 analytically  !
 ! A16   A(3,4,5)              116.0538         calculate D2E/DX2 analytically  !
 ! A17   A(3,4,20)             108.6867         calculate D2E/DX2 analytically  !
 ! A18   A(3,4,21)             108.3693         calculate D2E/DX2 analytically  !
 ! A19   A(5,4,20)             108.2659         calculate D2E/DX2 analytically  !
 ! A20   A(5,4,21)             108.814          calculate D2E/DX2 analytically  !
 ! A21   A(20,4,21)            106.219          calculate D2E/DX2 analytically  !
 ! A22   A(4,5,6)              113.4047         calculate D2E/DX2 analytically  !
 ! A23   A(4,5,22)             110.0774         calculate D2E/DX2 analytically  !
 ! A24   A(4,5,23)             107.2914         calculate D2E/DX2 analytically  !
 ! A25   A(6,5,22)             109.8776         calculate D2E/DX2 analytically  !
 ! A26   A(6,5,23)             109.6409         calculate D2E/DX2 analytically  !
 ! A27   A(22,5,23)            106.2723         calculate D2E/DX2 analytically  !
 ! A28   A(5,6,7)              113.4179         calculate D2E/DX2 analytically  !
 ! A29   A(5,6,24)             109.9006         calculate D2E/DX2 analytically  !
 ! A30   A(5,6,25)             109.3337         calculate D2E/DX2 analytically  !
 ! A31   A(7,6,24)             109.6839         calculate D2E/DX2 analytically  !
 ! A32   A(7,6,25)             107.4006         calculate D2E/DX2 analytically  !
 ! A33   A(24,6,25)            106.8679         calculate D2E/DX2 analytically  !
 ! A34   A(6,7,8)              113.4672         calculate D2E/DX2 analytically  !
 ! A35   A(6,7,26)             109.6278         calculate D2E/DX2 analytically  !
 ! A36   A(6,7,27)             107.3449         calculate D2E/DX2 analytically  !
 ! A37   A(8,7,26)             109.9673         calculate D2E/DX2 analytically  !
 ! A38   A(8,7,27)             109.1428         calculate D2E/DX2 analytically  !
 ! A39   A(26,7,27)            107.0602         calculate D2E/DX2 analytically  !
 ! A40   A(7,8,9)              113.9055         calculate D2E/DX2 analytically  !
 ! A41   A(7,8,28)             109.5768         calculate D2E/DX2 analytically  !
 ! A42   A(7,8,29)             109.7503         calculate D2E/DX2 analytically  !
 ! A43   A(9,8,28)             109.4076         calculate D2E/DX2 analytically  !
 ! A44   A(9,8,29)             107.353          calculate D2E/DX2 analytically  !
 ! A45   A(28,8,29)            106.5728         calculate D2E/DX2 analytically  !
 ! A46   A(8,9,10)             114.4052         calculate D2E/DX2 analytically  !
 ! A47   A(8,9,30)             109.44           calculate D2E/DX2 analytically  !
 ! A48   A(8,9,31)             106.9242         calculate D2E/DX2 analytically  !
 ! A49   A(10,9,30)            111.6318         calculate D2E/DX2 analytically  !
 ! A50   A(10,9,31)            107.7383         calculate D2E/DX2 analytically  !
 ! A51   A(30,9,31)            106.2567         calculate D2E/DX2 analytically  !
 ! A52   A(9,10,11)            114.6319         calculate D2E/DX2 analytically  !
 ! A53   A(9,10,32)            108.9695         calculate D2E/DX2 analytically  !
 ! A54   A(9,10,33)            109.2332         calculate D2E/DX2 analytically  !
 ! A55   A(11,10,32)           108.8909         calculate D2E/DX2 analytically  !
 ! A56   A(11,10,33)           108.9179         calculate D2E/DX2 analytically  !
 ! A57   A(32,10,33)           105.8315         calculate D2E/DX2 analytically  !
 ! A58   A(10,11,12)           114.3329         calculate D2E/DX2 analytically  !
 ! A59   A(10,11,34)           107.6946         calculate D2E/DX2 analytically  !
 ! A60   A(10,11,35)           111.1699         calculate D2E/DX2 analytically  !
 ! A61   A(12,11,34)           106.9899         calculate D2E/DX2 analytically  !
 ! A62   A(12,11,35)           109.9533         calculate D2E/DX2 analytically  !
 ! A63   A(34,11,35)           106.2695         calculate D2E/DX2 analytically  !
 ! A64   A(11,12,13)           112.9267         calculate D2E/DX2 analytically  !
 ! A65   A(11,12,36)           108.8944         calculate D2E/DX2 analytically  !
 ! A66   A(11,12,37)           109.8447         calculate D2E/DX2 analytically  !
 ! A67   A(13,12,36)           108.7862         calculate D2E/DX2 analytically  !
 ! A68   A(13,12,37)           109.1277         calculate D2E/DX2 analytically  !
 ! A69   A(36,12,37)           107.0873         calculate D2E/DX2 analytically  !
 ! A70   A(12,13,38)           109.6085         calculate D2E/DX2 analytically  !
 ! A71   A(12,13,39)           109.4274         calculate D2E/DX2 analytically  !
 ! A72   A(38,13,39)           106.3111         calculate D2E/DX2 analytically  !
 ! D1    D(14,1,2,3)            60.6279         calculate D2E/DX2 analytically  !
 ! D2    D(14,1,2,16)          -60.7467         calculate D2E/DX2 analytically  !
 ! D3    D(14,1,2,17)         -178.1633         calculate D2E/DX2 analytically  !
 ! D4    D(15,1,2,3)           176.7448         calculate D2E/DX2 analytically  !
 ! D5    D(15,1,2,16)           55.3702         calculate D2E/DX2 analytically  !
 ! D6    D(15,1,2,17)          -62.0464         calculate D2E/DX2 analytically  !
 ! D7    D(1,2,3,4)           -176.1046         calculate D2E/DX2 analytically  !
 ! D8    D(1,2,3,18)           -55.9514         calculate D2E/DX2 analytically  !
 ! D9    D(1,2,3,19)            60.2169         calculate D2E/DX2 analytically  !
 ! D10   D(16,2,3,4)           -55.2755         calculate D2E/DX2 analytically  !
 ! D11   D(16,2,3,18)           64.8777         calculate D2E/DX2 analytically  !
 ! D12   D(16,2,3,19)         -178.9541         calculate D2E/DX2 analytically  !
 ! D13   D(17,2,3,4)            64.039          calculate D2E/DX2 analytically  !
 ! D14   D(17,2,3,18)         -175.8078         calculate D2E/DX2 analytically  !
 ! D15   D(17,2,3,19)          -59.6396         calculate D2E/DX2 analytically  !
 ! D16   D(2,3,4,5)            -59.2063         calculate D2E/DX2 analytically  !
 ! D17   D(2,3,4,20)            63.0461         calculate D2E/DX2 analytically  !
 ! D18   D(2,3,4,21)           178.0698         calculate D2E/DX2 analytically  !
 ! D19   D(18,3,4,5)           179.7435         calculate D2E/DX2 analytically  !
 ! D20   D(18,3,4,20)          -58.0041         calculate D2E/DX2 analytically  !
 ! D21   D(18,3,4,21)           57.0196         calculate D2E/DX2 analytically  !
 ! D22   D(19,3,4,5)            64.5255         calculate D2E/DX2 analytically  !
 ! D23   D(19,3,4,20)         -173.2221         calculate D2E/DX2 analytically  !
 ! D24   D(19,3,4,21)          -58.1984         calculate D2E/DX2 analytically  !
 ! D25   D(3,4,5,6)            -60.5423         calculate D2E/DX2 analytically  !
 ! D26   D(3,4,5,22)            63.008          calculate D2E/DX2 analytically  !
 ! D27   D(3,4,5,23)           178.2368         calculate D2E/DX2 analytically  !
 ! D28   D(20,4,5,6)           176.9834         calculate D2E/DX2 analytically  !
 ! D29   D(20,4,5,22)          -59.4663         calculate D2E/DX2 analytically  !
 ! D30   D(20,4,5,23)           55.7626         calculate D2E/DX2 analytically  !
 ! D31   D(21,4,5,6)            61.9477         calculate D2E/DX2 analytically  !
 ! D32   D(21,4,5,22)         -174.5019         calculate D2E/DX2 analytically  !
 ! D33   D(21,4,5,23)          -59.2731         calculate D2E/DX2 analytically  !
 ! D34   D(4,5,6,7)           -179.7675         calculate D2E/DX2 analytically  !
 ! D35   D(4,5,6,24)           -56.5947         calculate D2E/DX2 analytically  !
 ! D36   D(4,5,6,25)            60.409          calculate D2E/DX2 analytically  !
 ! D37   D(22,5,6,7)            56.5729         calculate D2E/DX2 analytically  !
 ! D38   D(22,5,6,24)          179.7457         calculate D2E/DX2 analytically  !
 ! D39   D(22,5,6,25)          -63.2507         calculate D2E/DX2 analytically  !
 ! D40   D(23,5,6,7)           -59.8757         calculate D2E/DX2 analytically  !
 ! D41   D(23,5,6,24)           63.2971         calculate D2E/DX2 analytically  !
 ! D42   D(23,5,6,25)         -179.6993         calculate D2E/DX2 analytically  !
 ! D43   D(5,6,7,8)             69.6243         calculate D2E/DX2 analytically  !
 ! D44   D(5,6,7,26)           -53.7472         calculate D2E/DX2 analytically  !
 ! D45   D(5,6,7,27)          -169.7043         calculate D2E/DX2 analytically  !
 ! D46   D(24,6,7,8)           -53.6675         calculate D2E/DX2 analytically  !
 ! D47   D(24,6,7,26)         -177.039          calculate D2E/DX2 analytically  !
 ! D48   D(24,6,7,27)           67.0039         calculate D2E/DX2 analytically  !
 ! D49   D(25,6,7,8)          -169.4569         calculate D2E/DX2 analytically  !
 ! D50   D(25,6,7,26)           67.1716         calculate D2E/DX2 analytically  !
 ! D51   D(25,6,7,27)          -48.7855         calculate D2E/DX2 analytically  !
 ! D52   D(6,7,8,9)           -178.6107         calculate D2E/DX2 analytically  !
 ! D53   D(6,7,8,28)            58.4739         calculate D2E/DX2 analytically  !
 ! D54   D(6,7,8,29)           -58.2274         calculate D2E/DX2 analytically  !
 ! D55   D(26,7,8,9)           -55.4254         calculate D2E/DX2 analytically  !
 ! D56   D(26,7,8,28)         -178.3407         calculate D2E/DX2 analytically  !
 ! D57   D(26,7,8,29)           64.9579         calculate D2E/DX2 analytically  !
 ! D58   D(27,7,8,9)            61.7378         calculate D2E/DX2 analytically  !
 ! D59   D(27,7,8,28)          -61.1776         calculate D2E/DX2 analytically  !
 ! D60   D(27,7,8,29)         -177.879          calculate D2E/DX2 analytically  !
 ! D61   D(7,8,9,10)           -64.8463         calculate D2E/DX2 analytically  !
 ! D62   D(7,8,9,30)            61.27           calculate D2E/DX2 analytically  !
 ! D63   D(7,8,9,31)           175.9594         calculate D2E/DX2 analytically  !
 ! D64   D(28,8,9,10)           58.1614         calculate D2E/DX2 analytically  !
 ! D65   D(28,8,9,30)         -175.7223         calculate D2E/DX2 analytically  !
 ! D66   D(28,8,9,31)          -61.0329         calculate D2E/DX2 analytically  !
 ! D67   D(29,8,9,10)          173.4341         calculate D2E/DX2 analytically  !
 ! D68   D(29,8,9,30)          -60.4497         calculate D2E/DX2 analytically  !
 ! D69   D(29,8,9,31)           54.2397         calculate D2E/DX2 analytically  !
 ! D70   D(8,9,10,11)           97.405          calculate D2E/DX2 analytically  !
 ! D71   D(8,9,10,32)         -140.3028         calculate D2E/DX2 analytically  !
 ! D72   D(8,9,10,33)          -25.1236         calculate D2E/DX2 analytically  !
 ! D73   D(30,9,10,11)         -27.5618         calculate D2E/DX2 analytically  !
 ! D74   D(30,9,10,32)          94.7303         calculate D2E/DX2 analytically  !
 ! D75   D(30,9,10,33)        -150.0904         calculate D2E/DX2 analytically  !
 ! D76   D(31,9,10,11)        -143.8597         calculate D2E/DX2 analytically  !
 ! D77   D(31,9,10,32)         -21.5675         calculate D2E/DX2 analytically  !
 ! D78   D(31,9,10,33)          93.6117         calculate D2E/DX2 analytically  !
 ! D79   D(9,10,11,12)          89.6537         calculate D2E/DX2 analytically  !
 ! D80   D(9,10,11,34)        -151.6029         calculate D2E/DX2 analytically  !
 ! D81   D(9,10,11,35)         -35.5689         calculate D2E/DX2 analytically  !
 ! D82   D(32,10,11,12)        -32.681          calculate D2E/DX2 analytically  !
 ! D83   D(32,10,11,34)         86.0624         calculate D2E/DX2 analytically  !
 ! D84   D(32,10,11,35)       -157.9036         calculate D2E/DX2 analytically  !
 ! D85   D(33,10,11,12)       -147.6473         calculate D2E/DX2 analytically  !
 ! D86   D(33,10,11,34)        -28.9039         calculate D2E/DX2 analytically  !
 ! D87   D(33,10,11,35)         87.1301         calculate D2E/DX2 analytically  !
 ! D88   D(10,11,12,13)        -65.622          calculate D2E/DX2 analytically  !
 ! D89   D(10,11,12,36)        173.4246         calculate D2E/DX2 analytically  !
 ! D90   D(10,11,12,37)         56.4437         calculate D2E/DX2 analytically  !
 ! D91   D(34,11,12,13)        175.2366         calculate D2E/DX2 analytically  !
 ! D92   D(34,11,12,36)         54.2832         calculate D2E/DX2 analytically  !
 ! D93   D(34,11,12,37)        -62.6977         calculate D2E/DX2 analytically  !
 ! D94   D(35,11,12,13)         60.2394         calculate D2E/DX2 analytically  !
 ! D95   D(35,11,12,36)        -60.714          calculate D2E/DX2 analytically  !
 ! D96   D(35,11,12,37)       -177.6949         calculate D2E/DX2 analytically  !
 ! D97   D(11,12,13,38)        -59.7399         calculate D2E/DX2 analytically  !
 ! D98   D(11,12,13,39)       -175.9581         calculate D2E/DX2 analytically  !
 ! D99   D(36,12,13,38)         61.2749         calculate D2E/DX2 analytically  !
 ! D100  D(36,12,13,39)        -54.9433         calculate D2E/DX2 analytically  !
 ! D101  D(37,12,13,38)        177.7925         calculate D2E/DX2 analytically  !
 ! D102  D(37,12,13,39)         61.5744         calculate D2E/DX2 analytically  !
 --------------------------------------------------------------------------------
 Trust Radius=3.00D-01 FncErr=1.00D-07 GrdErr=1.00D-06 EigMax=2.50D+02 EigMin=1.00D-04
 Number of steps in this run=    222 maximum allowed number of steps=    234.
 GradGradGradGradGradGradGradGradGradGradGradGradGradGradGradGradGradGrad

                          Input orientation:                          
 ---------------------------------------------------------------------
 Center     Atomic      Atomic             Coordinates (Angstroms)
 Number     Number       Type             X           Y           Z
 ---------------------------------------------------------------------
      1          7           0       -4.936510    1.981854   -1.678504
      2          6           0       -4.220071    1.383827   -0.556770
      3          6           0       -4.212567   -0.138662   -0.686309
      4          6           0       -3.559232   -0.846458    0.505581
      5          6           0       -2.097219   -0.481368    0.786629
      6          6           0       -1.155472   -0.804503   -0.376107
      7          6           0        0.307947   -0.444634   -0.093135
      8          6           0        0.963346   -1.341408    0.958364
      9          6           0        2.418482   -0.968694    1.274000
     10          6           0        3.388146   -1.149620    0.099351
     11          6           0        3.682602    0.133495   -0.690860
     12          6           0        4.874867    0.939672   -0.164469
     13          7           0        4.646665    1.487103    1.165215
     14          1           0       -5.901321    1.653199   -1.683804
     15          1           0       -4.980123    2.992033   -1.550867
     16          1           0       -4.700259    1.682461    0.381347
     17          1           0       -3.198413    1.775421   -0.551633
     18          1           0       -5.246070   -0.501312   -0.764725
     19          1           0       -3.714819   -0.435061   -1.617244
     20          1           0       -4.146767   -0.631770    1.407166
     21          1           0       -3.628901   -1.929671    0.345104
     22          1           0       -2.017841    0.580247    1.046412
     23          1           0       -1.787626   -1.039385    1.677324
     24          1           0       -1.231263   -1.867766   -0.633413
     25          1           0       -1.466322   -0.239894   -1.262451
     26          1           0        0.376022    0.605378    0.215291
     27          1           0        0.855957   -0.538504   -1.037500
     28          1           0        0.917979   -2.386905    0.629610
     29          1           0        0.400521   -1.284138    1.896509
     30          1           0        2.455134    0.049128    1.674263
     31          1           0        2.748952   -1.630061    2.085384
     32          1           0        4.333472   -1.559069    0.477027
     33          1           0        2.987372   -1.905894   -0.586900
     34          1           0        3.922096   -0.157196   -1.721892
     35          1           0        2.795753    0.773551   -0.750623
     36          1           0        5.078048    1.765231   -0.855904
     37          1           0        5.770369    0.308989   -0.144184
     38          1           0        3.836018    2.104513    1.146407
     39          1           0        5.441049    2.065870    1.434411
 ---------------------------------------------------------------------
                    Distance matrix (angstroms):
                    1          2          3          4          5
     1  N    0.000000
     2  C    1.459180   0.000000
     3  C    2.450537   1.528009   0.000000
     4  C    3.829682   2.557239   1.532456   0.000000
     5  C    4.495099   3.128926   2.600325   1.532893   0.000000
     6  C    4.874041   3.770040   3.144105   2.560702   1.530771
     7  C    5.992125   4.905219   4.569520   3.933827   2.561280
     8  C    7.266736   6.048997   5.562520   4.572057   3.183743
     9  C    8.456886   7.277119   6.964379   6.028140   4.567994
    10  C    9.070104   8.045733   7.707797   6.965844   5.568495
    11  C    8.870229   8.002097   7.899859   7.405129   5.997279
    12  C    9.982062   9.114223   9.166055   8.647152   7.178713
    13  N   10.008435   9.032990   9.195501   8.556714   7.035494
    14  H    1.019265   2.041903   2.656625   4.065350   5.013044
    15  H    1.019144   2.037703   3.337343   4.580602   5.083261
    16  H    2.094859   1.095366   2.166616   2.777194   3.409139
    17  H    2.081690   1.094147   2.170337   2.849937   2.845465
    18  H    2.664007   2.156309   1.098086   2.139679   3.510322
    19  H    2.708830   2.165234   1.096469   2.167911   2.897824
    20  H    4.120205   2.815147   2.151773   1.097336   2.146704
    21  H    4.594002   3.484556   2.147601   1.097250   2.153735
    22  H    4.231820   2.840027   2.887209   2.168841   1.095817
    23  H    5.504992   4.096331   3.504055   2.132789   1.095705
    24  H    5.444322   4.417206   3.446849   2.785644   2.165294
    25  H    4.141433   3.273773   2.807854   2.806087   2.157561
    26  H    5.805526   4.725054   4.735147   4.204558   2.761225
    27  H    6.349470   5.449085   5.096385   4.687198   3.471593
    28  H    7.660841   6.482706   5.754019   4.736431   3.570314
    29  H    7.206339   5.872520   5.409588   4.219702   2.848680
    30  H    8.343433   7.163609   7.075719   6.191969   4.668322
    31  H    9.288655   8.039390   7.639980   6.550038   5.147002
    32  H   10.154655   9.104530   8.741034   7.924859   6.527716
    33  H    8.893486   7.922778   7.414318   6.721156   5.456090
    34  H    9.113304   8.368222   8.200336   7.836260   6.529159
    35  H    7.880917   7.044984   7.067730   6.677447   5.280070
    36  H   10.050621   9.310745   9.485204   9.125632   7.696076
    37  H   10.944856  10.056560  10.007662   9.423307   7.961785
    38  H    9.216964   8.265639   8.553970   7.988029   6.482247
    39  H   10.834714   9.887731  10.126683   9.505231   7.983328
                    6          7          8          9         10
     6  C    0.000000
     7  C    1.533353   0.000000
     8  C    2.560951   1.529510   0.000000
     9  C    3.939918   2.568668   1.534914   0.000000
    10  C    4.581444   3.165704   2.579601   1.533878   0.000000
    11  C    4.938205   3.475601   3.505657   2.583311   1.535422
    12  C    6.281076   4.772646   4.665198   3.427080   2.577805
    13  N    6.425879   4.913199   4.648666   3.317766   3.110023
    14  H    5.502132   6.744341   7.941813   9.210974   9.865578
    15  H    5.515587   6.472970   7.771730   8.854749   9.481795
    16  H    4.395935   5.461849   6.446174   7.648655   8.574526
    17  H    3.295516   4.175335   5.414329   6.512496   7.236187
    18  H    4.120187   5.594761   6.498588   7.944822   8.701529
    19  H    2.868304   4.301819   5.416683   6.801576   7.342303
    20  H    3.486797   4.704296   5.178636   6.575238   7.665081
    21  H    2.811406   4.230385   4.670212   6.193316   7.064547
    22  H    2.164434   2.785361   3.547956   4.704463   5.754482
    23  H    2.161335   2.807077   2.859366   4.225993   5.412095
    24  H    1.096576   2.164803   2.761724   4.215115   4.731979
    25  H    1.095909   2.134771   3.471115   4.696428   5.123277
    26  H    2.164021   1.096487   2.164967   2.787510   3.488030
    27  H    2.134020   1.095880   2.153987   2.823044   2.842160
    28  H    2.795471   2.160304   1.096905   2.162885   2.813143
    29  H    2.795701   2.161485   1.095522   2.135226   3.489094
    30  H    4.239006   2.824519   2.161373   1.094310   2.188117
    31  H    4.688817   3.479898   2.131169   1.097707   2.140962
    32  H    5.605863   4.215673   3.411276   2.156594   1.097237
    33  H    4.291929   3.091667   2.608288   2.159844   1.097046
    34  H    5.292621   3.974612   4.164172   3.448877   2.141712
    35  H    4.271146   2.847006   3.278933   2.697563   2.184484
    36  H    6.759475   5.312173   5.465670   4.368538   3.502090
    37  H    7.018613   5.514400   5.200663   3.857314   2.803897
    38  H    5.974562   4.525693   4.490209   3.386781   3.447651
    39  H    7.418294   5.914791   5.646768   4.286049   4.041802
                   11         12         13         14         15
    11  C    0.000000
    12  C    1.532483   0.000000
    13  N    2.491322   1.455959   0.000000
    14  H    9.754333  10.906132  10.927237   0.000000
    15  H    9.162623  10.161452  10.115185   1.630568   0.000000
    16  H    8.591931   9.619391   9.381770   2.389196   2.350905
    17  H    7.075568   8.125651   8.035916   2.932996   2.377626
    18  H    8.951515  10.240610  10.273493   2.432279   3.590572
    19  H    7.476850   8.819476   9.019491   3.024244   3.653816
    20  H    8.141644   9.291359   9.048349   4.225357   4.751462
    21  H    7.667330   8.989263   8.990657   4.702905   5.444600
    22  H    5.976015   7.007484   6.726971   4.866901   4.619273
    23  H    6.075141   7.190110   6.931486   5.955643   6.071704
    24  H    5.306074   6.736946   7.002874   5.942218   6.205910
    25  H    5.193992   6.542753   6.800345   4.840512   4.782817
    26  H    3.460817   4.527204   4.462980   6.641500   6.124028
    27  H    2.926032   4.370220   4.829545   7.133168   6.840181
    28  H    3.967265   5.230070   5.403509   8.256947   8.274966
    29  H    4.413187   5.404880   5.122920   7.820474   7.689042
    30  H    2.666008   3.166877   2.670152   9.147677   8.622366
    31  H    3.418971   4.023043   3.763606   9.990686   9.712089
    32  H    2.156934   2.635969   3.138608  10.942524  10.562572
    33  H    2.157141   3.440687   4.163602   9.637386   9.402122
    34  H    1.097672   2.129896   3.400604   9.988919   9.444384
    35  H    1.095328   2.166538   2.757802   8.791115   8.125657
    36  H    2.153386   1.095861   2.085275  11.011109  10.156517
    37  H    2.165277   1.095490   2.089304  11.849291  11.169180
    38  H    2.698889   2.038248   1.019165  10.150348   9.262145
    39  H    3.367935   2.036001   1.019060  11.770425  10.879820
                   16         17         18         19         20
    16  H    0.000000
    17  H    1.770491   0.000000
    18  H    2.525917   3.069499   0.000000
    19  H    3.073981   2.507675   1.753826   0.000000
    20  H    2.591202   3.245127   2.437744   3.061426   0.000000
    21  H    3.767840   3.836296   2.426348   2.468208   1.755194
    22  H    2.975324   2.318608   3.856352   3.317476   2.476178
    23  H    4.191829   3.857682   4.267781   3.864383   2.409291
    24  H    5.066338   4.141157   4.243007   3.031273   3.767202
    25  H    4.105590   2.750799   3.821330   2.284668   3.803316
    26  H    5.191947   3.838457   5.813184   4.601704   4.838049
    27  H    6.149581   4.693424   6.108234   4.608557   5.568873
    28  H    6.941612   5.972016   6.595083   5.506438   5.416341
    29  H    6.092158   5.320398   6.291182   5.477537   4.619835
    30  H    7.452453   6.316430   8.096924   7.009763   6.642294
    31  H    8.328703   7.343182   8.562568   7.544390   7.000537
    32  H    9.598175   8.300979   9.717428   8.391922   8.581346
    33  H    8.538938   7.198421   8.354283   6.938612   7.516358
    34  H    9.063827   7.470352   9.224416   7.642685   8.667340
    35  H    7.635291   6.080573   8.142259   6.678272   7.404699
    36  H    9.856619   8.282058  10.570381   9.095903   9.796138
    37  H   10.573394   9.097004  11.063616   9.627685  10.081732
    38  H    8.580879   7.243954   9.639869   8.432221   8.442755
    39  H   10.203042   8.869556  11.208975   9.969813   9.960132
                   21         22         23         24         25
    21  H    0.000000
    22  H    3.063827   0.000000
    23  H    2.440842   1.753356   0.000000
    24  H    2.590366   3.071365   2.516995   0.000000
    25  H    3.180617   2.511504   3.063446   1.760939   0.000000
    26  H    4.741595   2.534161   3.086124   3.069218   2.508473
    27  H    4.894986   3.721963   3.822262   2.507332   2.352180
    28  H    4.578659   4.194848   3.199034   2.546365   3.724841
    29  H    4.365754   3.169712   2.212676   3.066569   3.815046
    30  H    6.534354   4.547943   4.380169   4.752828   4.907712
    31  H    6.617806   5.356047   4.593033   4.826021   5.559595
    32  H    7.972084   6.726072   6.259283   5.682838   6.197065
    33  H    6.681637   5.822436   5.355199   4.219064   4.802845
    34  H    8.026935   6.594708   6.703272   5.537864   5.408602
    35  H    7.055792   5.141730   5.494455   4.817380   4.410705
    36  H    9.534447   7.441414   7.837130   7.283926   6.856719
    37  H    9.674569   7.883357   7.890457   7.348501   7.343126
    38  H    8.523013   6.049880   6.464623   6.680127   6.278030
    39  H    9.970703   7.615291   7.871173   8.016803   7.765397
                   26         27         28         29         30
    26  H    0.000000
    27  H    1.763034   0.000000
    28  H    3.069060   2.489917   0.000000
    29  H    2.529301   3.061340   1.757524   0.000000
    30  H    2.600138   3.202551   3.064050   2.459355   0.000000
    31  H    3.758355   3.811474   2.458568   2.381274   1.753575
    32  H    4.518268   3.927907   3.517696   4.190300   2.747331
    33  H    3.710680   2.572105   2.448195   3.639464   3.036156
    34  H    4.112036   3.164648   4.418809   5.173423   3.705187
    35  H    2.610818   2.359363   3.926774   4.120501   2.553602
    36  H    4.960017   4.813131   6.062438   6.225246   4.028205
    37  H    5.414430   5.066331   5.604667   5.961355   3.790127
    38  H    3.884065   4.542659   5.380973   4.883467   2.531813
    39  H    5.410526   5.823759   6.397896   6.069844   3.611158
                   31         32         33         34         35
    31  H    0.000000
    32  H    2.258884   0.000000
    33  H    2.697041   1.750488   0.000000
    34  H    4.247463   2.640023   2.284701   0.000000
    35  H    3.717859   3.051691   2.691272   1.754508   0.000000
    36  H    5.060027   3.658151   4.233254   2.404555   2.490660
    37  H    4.226092   2.437257   3.584240   2.474390   3.071145
    38  H    4.001304   3.757308   4.450608   3.653748   2.540146
    39  H    4.618555   3.909411   5.087350   4.148673   3.666341
                   36         37         38         39
    36  H    0.000000
    37  H    1.762525   0.000000
    38  H    2.380546   2.937898   0.000000
    39  H    2.338310   2.384752   1.631123   0.000000
 Stoichiometry    C11H26N2
 Framework group  C1[X(C11H26N2)]
 Deg. of freedom   111
 Full point group                 C1      NOp   1
 Largest Abelian subgroup         C1      NOp   1
 Largest concise Abelian subgroup C1      NOp   1
                         Standard orientation:                         
 ---------------------------------------------------------------------
 Center     Atomic      Atomic             Coordinates (Angstroms)
 Number     Number       Type             X           Y           Z
 ---------------------------------------------------------------------
      1          7           0       -5.183023    2.053710   -0.313501
      2          6           0       -4.317481    1.114635    0.392320
      3          6           0       -4.258911   -0.215479   -0.357466
      4          6           0       -3.443198   -1.288421    0.371802
      5          6           0       -1.975807   -0.944399    0.651397
      6          6           0       -1.160448   -0.681778   -0.617255
      7          6           0        0.308785   -0.343164   -0.338205
      8          6           0        1.118641   -1.530375    0.185307
      9          6           0        2.582841   -1.194136    0.499988
     10          6           0        3.418379   -0.794991   -0.722854
     11          6           0        3.564430    0.719154   -0.931549
     12          6           0        4.773118    1.340489   -0.223367
     13          7           0        4.675345    1.275522    1.227852
     14          1           0       -6.126928    1.673431   -0.371236
     15          1           0       -5.255448    2.915880    0.225083
     16          1           0       -4.699448    0.961489    1.407442
     17          1           0       -3.319903    1.557116    0.471108
     18          1           0       -5.277899   -0.602778   -0.489588
     19          1           0       -3.858790   -0.061708   -1.366674
     20          1           0       -3.932254   -1.512268    1.328286
     21          1           0       -3.483801   -2.213396   -0.217035
     22          1           0       -1.913249   -0.078736    1.320374
     23          1           0       -1.542264   -1.788145    1.199759
     24          1           0       -1.219092   -1.549637   -1.284982
     25          1           0       -1.595027    0.166074   -1.158831
     26          1           0        0.366204    0.491120    0.370990
     27          1           0        0.748474    0.004509   -1.279878
     28          1           0        1.081232   -2.350288   -0.542390
     29          1           0        0.665122   -1.910057    1.107440
     30          1           0        2.620997   -0.429313    1.281720
     31          1           0        3.032492   -2.097627    0.931822
     32          1           0        4.417616   -1.239159   -0.632473
     33          1           0        2.974729   -1.237018   -1.623573
     34          1           0        3.696522    0.896542   -2.006709
     35          1           0        2.649681    1.248230   -0.643354
     36          1           0        4.859733    2.390574   -0.524584
     37          1           0        5.691524    0.836794   -0.544177
     38          1           0        3.841899    1.773919    1.537152
     39          1           0        5.469521    1.760609    1.643133
 ---------------------------------------------------------------------
 Rotational constants (GHZ):           1.3779556           0.2078388           0.1931438
 Standard basis: 6-31G(d,p) (6D, 7F)
 There are   325 symmetry adapted cartesian basis functions of A   symmetry.
 There are   325 symmetry adapted basis functions of A   symmetry.
   325 basis functions,   546 primitive gaussians,   325 cartesian basis functions
    53 alpha electrons       53 beta electrons
       nuclear repulsion energy       816.4378748098 Hartrees.
 NAtoms=   39 NActive=   39 NUniq=   39 SFac= 1.00D+00 NAtFMM=   60 NAOKFM=F Big=F
 Integral buffers will be    131072 words long.
 Raffenetti 2 integral format.
 Two-electron integral symmetry is turned on.
 Force inversion solution in PCM.
 ------------------------------------------------------------------------------
 Polarizable Continuum Model (PCM)
 =================================
 Model                : PCM.
 Atomic radii         : UFF (Universal Force Field).
 Polarization charges : Total charges.
 Charge compensation  : None.
 Solution method      : Matrix inversion.
 Cavity type          : Scaled VdW (van der Waals Surface) (Alpha=1.100).
 Cavity algorithm     : GePol (No added spheres)
                        Default sphere list used, NSphG=   39.
                        Lebedev-Laikov grids with approx.  5.0 points / Ang**2.
                        Smoothing algorithm: York/Karplus (Gamma=1.0000).
                        Polarization charges: spherical gaussians, with
                                              point-specific exponents (IZeta= 3).
                        Self-potential: point-specific (ISelfS= 7).
                        Self-field    : sphere-specific E.n sum rule (ISelfD= 2).
 1st derivatives      : Analytical E(r).r(x)/FMM algorithm (CHGder, D1EAlg=3).
                        Cavity 1st derivative terms included.
 2nd derivatives      : Analytical E(r).r(xy)/FMM algorithm (CHGder, D2EAlg=3).
                        Cavity 2nd derivative terms included.
 Solvent              : Water, Eps=  78.355300 Eps(inf)=   1.777849
 ------------------------------------------------------------------------------
 One-electron integrals computed using PRISM.
 NBasis=   325 RedAO= T EigKep=  2.97D-03  NBF=   325
 NBsUse=   325 1.00D-06 EigRej= -1.00D+00 NBFU=   325
 ExpMin= 1.61D-01 ExpMax= 4.17D+03 ExpMxC= 6.27D+02 IAcc=3 IRadAn=         5 AccDes= 0.00D+00
 Harris functional with IExCor=  402 and IRadAn=       5 diagonalized for initial guess.
 HarFok:  IExCor=  402 AccDes= 0.00D+00 IRadAn=         5 IDoV= 1 UseB2=F ITyADJ=14
 ICtDFT=  3500011 ScaDFX=  1.000000  1.000000  1.000000  1.000000
 FoFCou: FMM=F IPFlag=           0 FMFlag=      100000 FMFlg1=           0
         NFxFlg=           0 DoJE=T BraDBF=F KetDBF=T FulRan=T
         wScrn=  0.000000 ICntrl=       500 IOpCl=  0 I1Cent=   200000004 NGrid=           0
         NMat0=    1 NMatS0=      1 NMatT0=    0 NMatD0=    1 NMtDS0=    0 NMtDT0=    0
 Petite list used in FoFCou.
 Requested convergence on RMS density matrix=1.00D-08 within  32 cycles.
 Requested convergence on MAX density matrix=1.00D-06.
 Requested convergence on             energy=1.00D-06.
 No special actions if energy rises.
 Inv3:  Mode=1 IEnd=    18735003.
 Iteration    1 A*A^-1 deviation from unit magnitude is 3.22D-15 for   1092.
 Iteration    1 A*A^-1 deviation from orthogonality  is 2.22D-15 for   2222    715.
 Iteration    1 A^-1*A deviation from unit magnitude is 3.00D-15 for   1092.
 Iteration    1 A^-1*A deviation from orthogonality  is 1.25D-15 for   2129   1897.
 Error on total polarization charges =  0.01159
 SCF Done:  E(RB3LYP) =  -544.367930839     A.U. after   11 cycles
            NFock= 11  Conv=0.17D-08     -V/T= 2.0096
 QCSCF skips out because SCF is already converged.
 DoSCS=F DFT=T ScalE2(SS,OS)=  1.000000  1.000000
 Range of M.O.s used for correlation:     1   325
 NBasis=   325 NAE=    53 NBE=    53 NFC=     0 NFV=     0
 NROrb=    325 NOA=    53 NOB=    53 NVA=   272 NVB=   272
 Symmetrizing basis deriv contribution to polar:
 IMax=3 JMax=2 DiffMx= 0.00D+00
 G2DrvN: will do    40 centers at a time, making    1 passes.
 Calling FoFCou, ICntrl=  3107 FMM=F I1Cent=   0 AccDes= 0.00D+00.
 NEqPCM:  Using equilibrium solvation (IEInf=0, Eps=  78.3553, EpsInf=   1.7778)
 G2PCM: DoFxE=T DoFxN=T DoGrad=T DoDP/DQ/DG/TGxP=FFFF NFrqRd=   0 IEInf=0 SqF1=F DoCFld=F IF1Alg=4.
 End of G2Drv F.D. properties file   721 does not exist.
 End of G2Drv F.D. properties file   722 does not exist.
 End of G2Drv F.D. properties file   788 does not exist.
          IDoAtm=111111111111111111111111111111111111111
 NEqPCM:  Using equilibrium solvation (IEInf=0, Eps=  78.3553, EpsInf=   1.7778)
          Differentiating once with respect to nuclear coordinates.
 Keep R1 ints in memory in canonical form, NReq=1420542908.
          There are   120 degrees of freedom in the 1st order CPHF.  IDoFFX=6 NUNeed=     0.
    114 vectors produced by pass  0 Test12= 1.44D-14 1.00D-09 XBig12= 7.34D-02 8.86D-02.
 AX will form   114 AO Fock derivatives at one time.
    114 vectors produced by pass  1 Test12= 1.44D-14 1.00D-09 XBig12= 6.44D-03 2.13D-02.
    114 vectors produced by pass  2 Test12= 1.44D-14 1.00D-09 XBig12= 9.52D-05 1.96D-03.
    114 vectors produced by pass  3 Test12= 1.44D-14 1.00D-09 XBig12= 3.82D-07 7.36D-05.
    114 vectors produced by pass  4 Test12= 1.44D-14 1.00D-09 XBig12= 3.17D-10 1.70D-06.
     41 vectors produced by pass  5 Test12= 1.44D-14 1.00D-09 XBig12= 1.80D-13 3.73D-08.
      1 vectors produced by pass  6 Test12= 1.44D-14 1.00D-09 XBig12= 1.23D-16 1.25D-09.
 InvSVY:  IOpt=1 It=  1 EMax= 2.78D-16
 Solved reduced A of dimension   612 with   120 vectors.
 End of Minotr F.D. properties file   721 does not exist.
 End of Minotr F.D. properties file   722 does not exist.
 End of Minotr F.D. properties file   788 does not exist.

 **********************************************************************

            Population analysis using the SCF density.

 **********************************************************************

 Orbital symmetries:
       Occupied  (A) (A) (A) (A) (A) (A) (A) (A) (A) (A) (A) (A)
                 (A) (A) (A) (A) (A) (A) (A) (A) (A) (A) (A) (A)
                 (A) (A) (A) (A) (A) (A) (A) (A) (A) (A) (A) (A)
                 (A) (A) (A) (A) (A) (A) (A) (A) (A) (A) (A) (A)
                 (A) (A) (A) (A) (A)
       Virtual   (A) (A) (A) (A) (A) (A) (A) (A) (A) (A) (A) (A)
                 (A) (A) (A) (A) (A) (A) (A) (A) (A) (A) (A) (A)
                 (A) (A) (A) (A) (A) (A) (A) (A) (A) (A) (A) (A)
                 (A) (A) (A) (A) (A) (A) (A) (A) (A) (A) (A) (A)
                 (A) (A) (A) (A) (A) (A) (A) (A) (A) (A) (A) (A)
                 (A) (A) (A) (A) (A) (A) (A) (A) (A) (A) (A) (A)
                 (A) (A) (A) (A) (A) (A) (A) (A) (A) (A) (A) (A)
                 (A) (A) (A) (A) (A) (A) (A) (A) (A) (A) (A) (A)
                 (A) (A) (A) (A) (A) (A) (A) (A) (A) (A) (A) (A)
                 (A) (A) (A) (A) (A) (A) (A) (A) (A) (A) (A) (A)
                 (A) (A) (A) (A) (A) (A) (A) (A) (A) (A) (A) (A)
                 (A) (A) (A) (A) (A) (A) (A) (A) (A) (A) (A) (A)
                 (A) (A) (A) (A) (A) (A) (A) (A) (A) (A) (A) (A)
                 (A) (A) (A) (A) (A) (A) (A) (A) (A) (A) (A) (A)
                 (A) (A) (A) (A) (A) (A) (A) (A) (A) (A) (A) (A)
                 (A) (A) (A) (A) (A) (A) (A) (A) (A) (A) (A) (A)
                 (A) (A) (A) (A) (A) (A) (A) (A) (A) (A) (A) (A)
                 (A) (A) (A) (A) (A) (A) (A) (A) (A) (A) (A) (A)
                 (A) (A) (A) (A) (A) (A) (A) (A) (A) (A) (A) (A)
                 (A) (A) (A) (A) (A) (A) (A) (A) (A) (A) (A) (A)
                 (A) (A) (A) (A) (A) (A) (A) (A) (A) (A) (A) (A)
                 (A) (A) (A) (A) (A) (A) (A) (A) (A) (A) (A) (A)
                 (A) (A) (A) (A) (A) (A) (A) (A)
 The electronic state is 1-A.
 Alpha  occ. eigenvalues --  -14.30437 -14.30421 -10.19730 -10.19729 -10.17275
 Alpha  occ. eigenvalues --  -10.17238 -10.17186 -10.17042 -10.17001 -10.16936
 Alpha  occ. eigenvalues --  -10.16917 -10.16819 -10.16579  -0.87424  -0.87386
 Alpha  occ. eigenvalues --   -0.80677  -0.78658  -0.75725  -0.72352  -0.68791
 Alpha  occ. eigenvalues --   -0.65227  -0.62306  -0.59846  -0.57142  -0.55610
 Alpha  occ. eigenvalues --   -0.54577  -0.48134  -0.47698  -0.46446  -0.46176
 Alpha  occ. eigenvalues --   -0.45008  -0.44563  -0.43325  -0.42346  -0.41137
 Alpha  occ. eigenvalues --   -0.40873  -0.39615  -0.38349  -0.37765  -0.36951
 Alpha  occ. eigenvalues --   -0.35676  -0.34491  -0.34273  -0.33334  -0.32600
 Alpha  occ. eigenvalues --   -0.31535  -0.31380  -0.31105  -0.31007  -0.29241
 Alpha  occ. eigenvalues --   -0.28994  -0.22949  -0.22594
 Alpha virt. eigenvalues --    0.08235   0.08595   0.09792   0.10445   0.11015
 Alpha virt. eigenvalues --    0.11263   0.12503   0.13262   0.13450   0.14480
 Alpha virt. eigenvalues --    0.15528   0.15648   0.16766   0.17654   0.17686
 Alpha virt. eigenvalues --    0.17937   0.18551   0.18733   0.19165   0.19578
 Alpha virt. eigenvalues --    0.19976   0.20406   0.21423   0.21527   0.22241
 Alpha virt. eigenvalues --    0.23528   0.23920   0.24920   0.25760   0.25931
 Alpha virt. eigenvalues --    0.27023   0.27341   0.27901   0.28924   0.29957
 Alpha virt. eigenvalues --    0.30454   0.31489   0.31982   0.49899   0.50447
 Alpha virt. eigenvalues --    0.51861   0.52542   0.53690   0.53993   0.55027
 Alpha virt. eigenvalues --    0.55504   0.56232   0.56469   0.58136   0.59195
 Alpha virt. eigenvalues --    0.60051   0.62035   0.65024   0.65618   0.66090
 Alpha virt. eigenvalues --    0.66737   0.68606   0.68810   0.69946   0.70647
 Alpha virt. eigenvalues --    0.71419   0.72314   0.73252   0.74016   0.74275
 Alpha virt. eigenvalues --    0.76099   0.77647   0.78673   0.80202   0.80531
 Alpha virt. eigenvalues --    0.82184   0.83730   0.84646   0.84936   0.86121
 Alpha virt. eigenvalues --    0.86947   0.87203   0.87373   0.88306   0.88652
 Alpha virt. eigenvalues --    0.89007   0.89273   0.90172   0.90604   0.91675
 Alpha virt. eigenvalues --    0.93032   0.93443   0.94385   0.95068   0.95328
 Alpha virt. eigenvalues --    0.95818   0.96284   0.97029   0.98423   0.98611
 Alpha virt. eigenvalues --    1.00194   1.01272   1.02050   1.03886   1.05421
 Alpha virt. eigenvalues --    1.06521   1.09655   1.10375   1.12995   1.16223
 Alpha virt. eigenvalues --    1.18328   1.25261   1.28187   1.30272   1.31623
 Alpha virt. eigenvalues --    1.34057   1.35435   1.36822   1.42708   1.43719
 Alpha virt. eigenvalues --    1.46694   1.48987   1.49929   1.53633   1.55867
 Alpha virt. eigenvalues --    1.56874   1.62800   1.64055   1.64804   1.65990
 Alpha virt. eigenvalues --    1.66509   1.69642   1.69848   1.72410   1.73738
 Alpha virt. eigenvalues --    1.75420   1.77460   1.78053   1.79377   1.80504
 Alpha virt. eigenvalues --    1.81524   1.82678   1.85019   1.86495   1.87481
 Alpha virt. eigenvalues --    1.88417   1.89097   1.89679   1.91351   1.92111
 Alpha virt. eigenvalues --    1.93609   1.94440   1.94848   1.98228   1.99159
 Alpha virt. eigenvalues --    2.01919   2.04522   2.05632   2.06204   2.09597
 Alpha virt. eigenvalues --    2.10567   2.10845   2.12661   2.12834   2.13393
 Alpha virt. eigenvalues --    2.14635   2.16399   2.17324   2.18364   2.19488
 Alpha virt. eigenvalues --    2.20221   2.23152   2.23819   2.24273   2.25299
 Alpha virt. eigenvalues --    2.25639   2.26286   2.27659   2.28083   2.28961
 Alpha virt. eigenvalues --    2.29026   2.30141   2.31108   2.31920   2.32330
 Alpha virt. eigenvalues --    2.33738   2.34953   2.35445   2.37357   2.39906
 Alpha virt. eigenvalues --    2.40631   2.41557   2.44314   2.45467   2.47245
 Alpha virt. eigenvalues --    2.48934   2.49666   2.52856   2.53985   2.55760
 Alpha virt. eigenvalues --    2.56915   2.58897   2.61004   2.61355   2.62610
 Alpha virt. eigenvalues --    2.63067   2.64432   2.65959   2.67705   2.69917
 Alpha virt. eigenvalues --    2.71229   2.72453   2.73682   2.74703   2.75965
 Alpha virt. eigenvalues --    2.78248   2.79143   2.79261   2.81314   2.82060
 Alpha virt. eigenvalues --    2.83300   2.84098   2.86112   2.87087   2.88060
 Alpha virt. eigenvalues --    2.89496   2.89828   2.90400   2.91920   2.92458
 Alpha virt. eigenvalues --    2.93303   2.93843   2.94895   2.96150   2.97140
 Alpha virt. eigenvalues --    2.98340   2.98571   2.99115   3.23322   3.25282
 Alpha virt. eigenvalues --    3.26546   3.29088   3.29898   3.30579   3.32501
 Alpha virt. eigenvalues --    3.32709   3.33682   3.35067   3.35341   3.36322
 Alpha virt. eigenvalues --    3.37789   3.40471   3.43266   3.44473   3.45948
 Alpha virt. eigenvalues --    3.47992   3.50727   3.52209   3.55153   3.56334
 Alpha virt. eigenvalues --    3.57742   3.58154   3.59931   3.61231   3.99749
 Alpha virt. eigenvalues --    4.00682   4.25957   4.32296   4.37691   4.44500
 Alpha virt. eigenvalues --    4.53757   4.59292   4.64679   4.68736   4.71125
 Alpha virt. eigenvalues --    4.73081   4.79647
          Condensed to atoms (all electrons):
               1          2          3          4          5          6
     1  N    6.823462   0.292708  -0.051556   0.003520   0.000057   0.000016
     2  C    0.292708   4.789122   0.379564  -0.039926  -0.004624  -0.001941
     3  C   -0.051556   0.379564   4.946635   0.353365  -0.042934  -0.004850
     4  C    0.003520  -0.039926   0.353365   4.931196   0.369538  -0.042495
     5  C    0.000057  -0.004624  -0.042934   0.369538   4.912803   0.382769
     6  C    0.000016  -0.001941  -0.004850  -0.042495   0.382769   4.917339
     7  C   -0.000000  -0.000005   0.000157   0.004062  -0.039543   0.366325
     8  C   -0.000000  -0.000000  -0.000001   0.000148  -0.006059  -0.039583
     9  C    0.000000   0.000000   0.000000  -0.000000   0.000153   0.004129
    10  C   -0.000000  -0.000000  -0.000000   0.000000   0.000001  -0.000023
    11  C    0.000000   0.000000  -0.000000   0.000000  -0.000001   0.000061
    12  C   -0.000000  -0.000000   0.000000  -0.000000   0.000000  -0.000002
    13  N    0.000000   0.000000  -0.000000   0.000000   0.000000   0.000000
    14  H    0.340462  -0.038707  -0.006022  -0.000194   0.000014  -0.000002
    15  H    0.337225  -0.033024   0.005806  -0.000260   0.000009  -0.000001
    16  H   -0.053538   0.387765  -0.051752   0.002467  -0.001512   0.000141
    17  H   -0.041984   0.386776  -0.030404  -0.006180   0.003654   0.000240
    18  H   -0.004114  -0.040660   0.380346  -0.031776   0.005150   0.000090
    19  H    0.005239  -0.039063   0.373199  -0.032872  -0.007927   0.003771
    20  H   -0.000004  -0.007181  -0.039620   0.375855  -0.035303   0.005038
    21  H   -0.000104   0.005051  -0.034741   0.378082  -0.038833  -0.007091
    22  H   -0.000057   0.003747  -0.008359  -0.037474   0.383071  -0.041732
    23  H   -0.000001   0.000046   0.005273  -0.032529   0.380270  -0.041045
    24  H    0.000000   0.000113  -0.001064  -0.002701  -0.041601   0.380179
    25  H   -0.000082   0.000281   0.003172  -0.006407  -0.040070   0.378443
    26  H   -0.000000   0.000001  -0.000018   0.000117  -0.008194  -0.038983
    27  H   -0.000000   0.000000  -0.000001  -0.000176   0.004814  -0.034075
    28  H    0.000000  -0.000000   0.000001  -0.000020  -0.000502  -0.004266
    29  H    0.000000  -0.000000  -0.000001  -0.000186   0.001742  -0.005415
    30  H    0.000000  -0.000000   0.000000  -0.000000  -0.000016   0.000074
    31  H   -0.000000  -0.000000   0.000000  -0.000000  -0.000003  -0.000176
    32  H   -0.000000   0.000000   0.000000  -0.000000   0.000000   0.000002
    33  H   -0.000000  -0.000000   0.000000  -0.000000   0.000000  -0.000144
    34  H   -0.000000  -0.000000  -0.000000   0.000000   0.000000  -0.000000
    35  H   -0.000000  -0.000000   0.000000  -0.000000  -0.000000  -0.000002
    36  H   -0.000000   0.000000  -0.000000   0.000000  -0.000000   0.000000
    37  H    0.000000  -0.000000   0.000000   0.000000  -0.000000   0.000000
    38  H    0.000000   0.000000  -0.000000   0.000000  -0.000000   0.000000
    39  H   -0.000000  -0.000000   0.000000  -0.000000   0.000000  -0.000000
               7          8          9         10         11         12
     1  N   -0.000000  -0.000000   0.000000  -0.000000   0.000000  -0.000000
     2  C   -0.000005  -0.000000   0.000000  -0.000000   0.000000  -0.000000
     3  C    0.000157  -0.000001   0.000000  -0.000000  -0.000000   0.000000
     4  C    0.004062   0.000148  -0.000000   0.000000   0.000000  -0.000000
     5  C   -0.039543  -0.006059   0.000153   0.000001  -0.000001   0.000000
     6  C    0.366325  -0.039583   0.004129  -0.000023   0.000061  -0.000002
     7  C    4.913494   0.384165  -0.044857  -0.003550  -0.000400   0.000065
     8  C    0.384165   4.917717   0.363014  -0.039542  -0.001869   0.000056
     9  C   -0.044857   0.363014   4.933209   0.367616  -0.033457  -0.003055
    10  C   -0.003550  -0.039542   0.367616   4.918140   0.360272  -0.039637
    11  C   -0.000400  -0.001869  -0.033457   0.360272   4.939573   0.382253
    12  C    0.000065   0.000056  -0.003055  -0.039637   0.382253   4.782811
    13  N   -0.000007   0.000307  -0.003555   0.003927  -0.058934   0.303947
    14  H    0.000000   0.000000   0.000000   0.000000   0.000000  -0.000000
    15  H    0.000000  -0.000000  -0.000000   0.000000   0.000000   0.000000
    16  H   -0.000000  -0.000000  -0.000000   0.000000  -0.000000   0.000000
    17  H   -0.000050   0.000002  -0.000000   0.000000   0.000000  -0.000000
    18  H   -0.000001   0.000000  -0.000000   0.000000   0.000000  -0.000000
    19  H   -0.000132  -0.000001  -0.000000   0.000000  -0.000000   0.000000
    20  H   -0.000165  -0.000003  -0.000000   0.000000  -0.000000   0.000000
    21  H    0.000069  -0.000018  -0.000000   0.000000   0.000000   0.000000
    22  H   -0.003728  -0.000578  -0.000019   0.000001  -0.000000   0.000000
    23  H   -0.004517   0.001726  -0.000184  -0.000001  -0.000000  -0.000000
    24  H   -0.037309  -0.008013   0.000085  -0.000011  -0.000002   0.000000
    25  H   -0.033503   0.004775  -0.000176  -0.000000   0.000005   0.000000
    26  H    0.381828  -0.041764  -0.002553  -0.001217  -0.000422  -0.000009
    27  H    0.377913  -0.038782  -0.005485   0.004343  -0.001909   0.000075
    28  H   -0.041506   0.378175  -0.035989  -0.007829  -0.000122  -0.000006
    29  H   -0.042213   0.378592  -0.034135   0.005253  -0.000122   0.000004
    30  H   -0.007406  -0.035782   0.381719  -0.041853  -0.008905  -0.000732
    31  H    0.005381  -0.034179   0.369644  -0.036799   0.004578   0.000180
    32  H    0.000076   0.004016  -0.032874   0.381807  -0.043847  -0.009482
    33  H   -0.001126  -0.009062  -0.046865   0.383242  -0.035080   0.004249
    34  H   -0.000182   0.000018   0.004726  -0.034101   0.369976  -0.033508
    35  H    0.001035  -0.000385  -0.006671  -0.046585   0.386804  -0.036512
    36  H    0.000005   0.000010  -0.000146   0.006290  -0.045712   0.385357
    37  H   -0.000002  -0.000012  -0.000190  -0.009382  -0.031057   0.384390
    38  H   -0.000012  -0.000079   0.000444  -0.001182  -0.004448  -0.039445
    39  H    0.000000  -0.000003   0.000064  -0.000104   0.006139  -0.033817
              13         14         15         16         17         18
     1  N    0.000000   0.340462   0.337225  -0.053538  -0.041984  -0.004114
     2  C    0.000000  -0.038707  -0.033024   0.387765   0.386776  -0.040660
     3  C   -0.000000  -0.006022   0.005806  -0.051752  -0.030404   0.380346
     4  C    0.000000  -0.000194  -0.000260   0.002467  -0.006180  -0.031776
     5  C    0.000000   0.000014   0.000009  -0.001512   0.003654   0.005150
     6  C    0.000000  -0.000002  -0.000001   0.000141   0.000240   0.000090
     7  C   -0.000007   0.000000   0.000000  -0.000000  -0.000050  -0.000001
     8  C    0.000307   0.000000  -0.000000  -0.000000   0.000002   0.000000
     9  C   -0.003555   0.000000  -0.000000  -0.000000  -0.000000  -0.000000
    10  C    0.003927   0.000000   0.000000   0.000000   0.000000   0.000000
    11  C   -0.058934   0.000000   0.000000  -0.000000   0.000000   0.000000
    12  C    0.303947  -0.000000   0.000000   0.000000  -0.000000  -0.000000
    13  N    6.801066   0.000000   0.000000   0.000000  -0.000000  -0.000000
    14  H    0.000000   0.482815  -0.032304  -0.005191   0.006676   0.006281
    15  H    0.000000  -0.032304   0.482116  -0.004092  -0.003224   0.000036
    16  H    0.000000  -0.005191  -0.004092   0.687875  -0.049802  -0.006886
    17  H   -0.000000   0.006676  -0.003224  -0.049802   0.630565   0.005917
    18  H   -0.000000   0.006281   0.000036  -0.006886   0.005917   0.645629
    19  H   -0.000000  -0.000746  -0.000115   0.007012  -0.008024  -0.039790
    20  H   -0.000000  -0.000004  -0.000002   0.005588  -0.000314  -0.004980
    21  H   -0.000000  -0.000009   0.000004   0.000006  -0.000099  -0.004131
    22  H   -0.000000  -0.000002   0.000010   0.000642   0.000579  -0.000034
    23  H    0.000000   0.000000  -0.000000  -0.000051  -0.000028  -0.000156
    24  H   -0.000000  -0.000000   0.000000  -0.000002  -0.000024  -0.000037
    25  H   -0.000000   0.000002  -0.000001  -0.000045   0.001288  -0.000046
    26  H   -0.000019   0.000000  -0.000000  -0.000001   0.000052  -0.000000
    27  H    0.000005  -0.000000  -0.000000   0.000000  -0.000003  -0.000000
    28  H   -0.000003  -0.000000  -0.000000  -0.000000   0.000000  -0.000000
    29  H   -0.000001  -0.000000  -0.000000   0.000000  -0.000000  -0.000000
    30  H    0.010107  -0.000000  -0.000000   0.000000   0.000000  -0.000000
    31  H    0.000076  -0.000000  -0.000000   0.000000   0.000000   0.000000
    32  H    0.000952   0.000000  -0.000000  -0.000000  -0.000000  -0.000000
    33  H   -0.000018  -0.000000   0.000000   0.000000   0.000000   0.000000
    34  H    0.004342  -0.000000   0.000000   0.000000   0.000000   0.000000
    35  H   -0.005362  -0.000000  -0.000000   0.000000  -0.000000  -0.000000
    36  H   -0.056567  -0.000000  -0.000000  -0.000000  -0.000000  -0.000000
    37  H   -0.044464   0.000000   0.000000  -0.000000   0.000000   0.000000
    38  H    0.337925   0.000000  -0.000000  -0.000000   0.000000   0.000000
    39  H    0.337770  -0.000000   0.000000   0.000000   0.000000   0.000000
              19         20         21         22         23         24
     1  N    0.005239  -0.000004  -0.000104  -0.000057  -0.000001   0.000000
     2  C   -0.039063  -0.007181   0.005051   0.003747   0.000046   0.000113
     3  C    0.373199  -0.039620  -0.034741  -0.008359   0.005273  -0.001064
     4  C   -0.032872   0.375855   0.378082  -0.037474  -0.032529  -0.002701
     5  C   -0.007927  -0.035303  -0.038833   0.383071   0.380270  -0.041601
     6  C    0.003771   0.005038  -0.007091  -0.041732  -0.041045   0.380179
     7  C   -0.000132  -0.000165   0.000069  -0.003728  -0.004517  -0.037309
     8  C   -0.000001  -0.000003  -0.000018  -0.000578   0.001726  -0.008013
     9  C   -0.000000  -0.000000  -0.000000  -0.000019  -0.000184   0.000085
    10  C    0.000000   0.000000   0.000000   0.000001  -0.000001  -0.000011
    11  C   -0.000000  -0.000000   0.000000  -0.000000  -0.000000  -0.000002
    12  C    0.000000   0.000000   0.000000   0.000000  -0.000000   0.000000
    13  N   -0.000000  -0.000000  -0.000000  -0.000000   0.000000  -0.000000
    14  H   -0.000746  -0.000004  -0.000009  -0.000002   0.000000  -0.000000
    15  H   -0.000115  -0.000002   0.000004   0.000010  -0.000000   0.000000
    16  H    0.007012   0.005588   0.000006   0.000642  -0.000051  -0.000002
    17  H   -0.008024  -0.000314  -0.000099   0.000579  -0.000028  -0.000024
    18  H   -0.039790  -0.004980  -0.004131  -0.000034  -0.000156  -0.000037
    19  H    0.638679   0.006189  -0.004051   0.000091  -0.000020   0.000470
    20  H    0.006189   0.653209  -0.037046  -0.003699  -0.003946   0.000014
    21  H   -0.004051  -0.037046   0.648450   0.006082  -0.004745   0.005241
    22  H    0.000091  -0.003699   0.006082   0.641449  -0.038904   0.006195
    23  H   -0.000020  -0.003946  -0.004745  -0.038904   0.642390  -0.005692
    24  H    0.000470   0.000014   0.005241   0.006195  -0.005692   0.646996
    25  H    0.001569  -0.000013  -0.000286  -0.006119   0.006224  -0.039277
    26  H    0.000006  -0.000001   0.000009   0.005741  -0.000147   0.006041
    27  H    0.000010   0.000003   0.000002   0.000067  -0.000006  -0.002632
    28  H    0.000000  -0.000000  -0.000001   0.000052   0.000392   0.005786
    29  H   -0.000000   0.000013   0.000016   0.000438   0.003466  -0.000139
    30  H   -0.000000  -0.000000  -0.000000  -0.000002   0.000015   0.000008
    31  H    0.000000   0.000000   0.000000  -0.000000   0.000012  -0.000000
    32  H   -0.000000   0.000000  -0.000000  -0.000000  -0.000000  -0.000000
    33  H    0.000000   0.000000  -0.000000  -0.000000   0.000000   0.000007
    34  H    0.000000   0.000000   0.000000   0.000000   0.000000   0.000000
    35  H    0.000000   0.000000  -0.000000  -0.000001  -0.000000   0.000005
    36  H    0.000000   0.000000  -0.000000  -0.000000  -0.000000  -0.000000
    37  H   -0.000000  -0.000000  -0.000000  -0.000000  -0.000000  -0.000000
    38  H   -0.000000  -0.000000   0.000000   0.000000  -0.000000   0.000000
    39  H    0.000000   0.000000   0.000000   0.000000  -0.000000   0.000000
              25         26         27         28         29         30
     1  N   -0.000082  -0.000000  -0.000000   0.000000   0.000000   0.000000
     2  C    0.000281   0.000001   0.000000  -0.000000  -0.000000  -0.000000
     3  C    0.003172  -0.000018  -0.000001   0.000001  -0.000001   0.000000
     4  C   -0.006407   0.000117  -0.000176  -0.000020  -0.000186  -0.000000
     5  C   -0.040070  -0.008194   0.004814  -0.000502   0.001742  -0.000016
     6  C    0.378443  -0.038983  -0.034075  -0.004266  -0.005415   0.000074
     7  C   -0.033503   0.381828   0.377913  -0.041506  -0.042213  -0.007406
     8  C    0.004775  -0.041764  -0.038782   0.378175   0.378592  -0.035782
     9  C   -0.000176  -0.002553  -0.005485  -0.035989  -0.034135   0.381719
    10  C   -0.000000  -0.001217   0.004343  -0.007829   0.005253  -0.041853
    11  C    0.000005  -0.000422  -0.001909  -0.000122  -0.000122  -0.008905
    12  C    0.000000  -0.000009   0.000075  -0.000006   0.000004  -0.000732
    13  N   -0.000000  -0.000019   0.000005  -0.000003  -0.000001   0.010107
    14  H    0.000002   0.000000  -0.000000  -0.000000  -0.000000  -0.000000
    15  H   -0.000001  -0.000000  -0.000000  -0.000000  -0.000000  -0.000000
    16  H   -0.000045  -0.000001   0.000000  -0.000000   0.000000   0.000000
    17  H    0.001288   0.000052  -0.000003   0.000000  -0.000000   0.000000
    18  H   -0.000046  -0.000000  -0.000000  -0.000000  -0.000000  -0.000000
    19  H    0.001569   0.000006   0.000010   0.000000  -0.000000  -0.000000
    20  H   -0.000013  -0.000001   0.000003  -0.000000   0.000013  -0.000000
    21  H   -0.000286   0.000009   0.000002  -0.000001   0.000016  -0.000000
    22  H   -0.006119   0.005741   0.000067   0.000052   0.000438  -0.000002
    23  H    0.006224  -0.000147  -0.000006   0.000392   0.003466   0.000015
    24  H   -0.039277   0.006041  -0.002632   0.005786  -0.000139   0.000008
    25  H    0.647098  -0.002528  -0.005212   0.000044   0.000018   0.000002
    26  H   -0.002528   0.646912  -0.040676   0.006335  -0.005399   0.005092
    27  H   -0.005212  -0.040676   0.648205  -0.006593   0.006400  -0.000324
    28  H    0.000044   0.006335  -0.006593   0.652093  -0.039453   0.005783
    29  H    0.000018  -0.005399   0.006400  -0.039453   0.651842  -0.003916
    30  H    0.000002   0.005092  -0.000324   0.005783  -0.003916   0.626894
    31  H    0.000003   0.000004  -0.000033  -0.004164  -0.004594  -0.036202
    32  H   -0.000000  -0.000013  -0.000058   0.000178  -0.000235   0.002132
    33  H    0.000005   0.000190   0.001561   0.005578   0.000305   0.005237
    34  H   -0.000000   0.000002   0.000612   0.000011   0.000005   0.000282
    35  H   -0.000006   0.002310   0.000968   0.000119  -0.000090   0.001559
    36  H   -0.000000  -0.000003  -0.000004  -0.000000  -0.000000   0.000087
    37  H    0.000000   0.000000  -0.000000   0.000000  -0.000000  -0.000023
    38  H   -0.000000   0.000081  -0.000007   0.000001  -0.000001  -0.000097
    39  H    0.000000   0.000000  -0.000000   0.000000   0.000000  -0.000042
              31         32         33         34         35         36
     1  N   -0.000000  -0.000000  -0.000000  -0.000000  -0.000000  -0.000000
     2  C   -0.000000   0.000000  -0.000000  -0.000000  -0.000000   0.000000
     3  C    0.000000   0.000000   0.000000  -0.000000   0.000000  -0.000000
     4  C   -0.000000  -0.000000  -0.000000   0.000000  -0.000000   0.000000
     5  C   -0.000003   0.000000   0.000000   0.000000  -0.000000  -0.000000
     6  C   -0.000176   0.000002  -0.000144  -0.000000  -0.000002   0.000000
     7  C    0.005381   0.000076  -0.001126  -0.000182   0.001035   0.000005
     8  C   -0.034179   0.004016  -0.009062   0.000018  -0.000385   0.000010
     9  C    0.369644  -0.032874  -0.046865   0.004726  -0.006671  -0.000146
    10  C   -0.036799   0.381807   0.383242  -0.034101  -0.046585   0.006290
    11  C    0.004578  -0.043847  -0.035080   0.369976   0.386804  -0.045712
    12  C    0.000180  -0.009482   0.004249  -0.033508  -0.036512   0.385357
    13  N    0.000076   0.000952  -0.000018   0.004342  -0.005362  -0.056567
    14  H   -0.000000   0.000000  -0.000000  -0.000000  -0.000000  -0.000000
    15  H   -0.000000  -0.000000   0.000000   0.000000  -0.000000  -0.000000
    16  H    0.000000  -0.000000   0.000000   0.000000   0.000000  -0.000000
    17  H    0.000000  -0.000000   0.000000   0.000000  -0.000000  -0.000000
    18  H    0.000000  -0.000000   0.000000   0.000000  -0.000000  -0.000000
    19  H    0.000000  -0.000000   0.000000   0.000000   0.000000   0.000000
    20  H    0.000000   0.000000   0.000000   0.000000   0.000000   0.000000
    21  H    0.000000  -0.000000  -0.000000   0.000000  -0.000000  -0.000000
    22  H   -0.000000  -0.000000  -0.000000   0.000000  -0.000001  -0.000000
    23  H    0.000012  -0.000000   0.000000   0.000000  -0.000000  -0.000000
    24  H   -0.000000  -0.000000   0.000007   0.000000   0.000005  -0.000000
    25  H    0.000003  -0.000000   0.000005  -0.000000  -0.000006  -0.000000
    26  H    0.000004  -0.000013   0.000190   0.000002   0.002310  -0.000003
    27  H   -0.000033  -0.000058   0.001561   0.000612   0.000968  -0.000004
    28  H   -0.004164   0.000178   0.005578   0.000011   0.000119  -0.000000
    29  H   -0.004594  -0.000235   0.000305   0.000005  -0.000090  -0.000000
    30  H   -0.036202   0.002132   0.005237   0.000282   0.001559   0.000087
    31  H    0.667391  -0.011076   0.002196  -0.000230   0.000145   0.000006
    32  H   -0.011076   0.646868  -0.038068   0.001020   0.005506   0.000326
    33  H    0.002196  -0.038068   0.648130  -0.009497   0.000799  -0.000213
    34  H   -0.000230   0.001020  -0.009497   0.648274  -0.035543  -0.001900
    35  H    0.000145   0.005506   0.000799  -0.035543   0.628244  -0.005501
    36  H    0.000006   0.000326  -0.000213  -0.001900  -0.005501   0.702723
    37  H    0.000003   0.005541   0.000109  -0.003331   0.005718  -0.049339
    38  H   -0.000001   0.000104  -0.000007  -0.000144   0.005536  -0.005890
    39  H   -0.000002  -0.000115   0.000006  -0.000256   0.000022  -0.005272
              37         38         39
     1  N    0.000000   0.000000  -0.000000
     2  C   -0.000000   0.000000  -0.000000
     3  C    0.000000  -0.000000   0.000000
     4  C    0.000000   0.000000  -0.000000
     5  C   -0.000000  -0.000000   0.000000
     6  C    0.000000   0.000000  -0.000000
     7  C   -0.000002  -0.000012   0.000000
     8  C   -0.000012  -0.000079  -0.000003
     9  C   -0.000190   0.000444   0.000064
    10  C   -0.009382  -0.001182  -0.000104
    11  C   -0.031057  -0.004448   0.006139
    12  C    0.384390  -0.039445  -0.033817
    13  N   -0.044464   0.337925   0.337770
    14  H    0.000000   0.000000  -0.000000
    15  H    0.000000  -0.000000   0.000000
    16  H   -0.000000  -0.000000   0.000000
    17  H    0.000000   0.000000   0.000000
    18  H    0.000000   0.000000   0.000000
    19  H   -0.000000  -0.000000   0.000000
    20  H   -0.000000  -0.000000   0.000000
    21  H   -0.000000   0.000000   0.000000
    22  H   -0.000000   0.000000   0.000000
    23  H   -0.000000  -0.000000  -0.000000
    24  H   -0.000000   0.000000   0.000000
    25  H    0.000000  -0.000000   0.000000
    26  H    0.000000   0.000081   0.000000
    27  H   -0.000000  -0.000007  -0.000000
    28  H    0.000000   0.000001   0.000000
    29  H   -0.000000  -0.000001   0.000000
    30  H   -0.000023  -0.000097  -0.000042
    31  H    0.000003  -0.000001  -0.000002
    32  H    0.005541   0.000104  -0.000115
    33  H    0.000109  -0.000007   0.000006
    34  H   -0.003331  -0.000144  -0.000256
    35  H    0.005718   0.005536   0.000022
    36  H   -0.049339  -0.005890  -0.005272
    37  H    0.640062   0.006909  -0.003272
    38  H    0.006909   0.484220  -0.031219
    39  H   -0.003272  -0.031219   0.480777
 Mulliken charges:
               1
     1  N   -0.651248
     2  C   -0.040041
     3  C   -0.176195
     4  C   -0.185155
     5  C   -0.176924
     6  C   -0.176792
     7  C   -0.174361
     8  C   -0.177005
     9  C   -0.174593
    10  C   -0.169074
    11  C   -0.183373
    12  C   -0.047184
    13  N   -0.631494
    14  H    0.246934
    15  H    0.247817
    16  H    0.081377
    17  H    0.104388
    18  H    0.089165
    19  H    0.096507
    20  H    0.086372
    21  H    0.088142
    22  H    0.092544
    23  H    0.092159
    24  H    0.087363
    25  H    0.090844
    26  H    0.087226
    27  H    0.091001
    28  H    0.085904
    29  H    0.087807
    30  H    0.096310
    31  H    0.077841
    32  H    0.087240
    33  H    0.088466
    34  H    0.089424
    35  H    0.097886
    36  H    0.075743
    37  H    0.098339
    38  H    0.247314
    39  H    0.249325
 Sum of Mulliken charges =  -0.00000
 Mulliken charges with hydrogens summed into heavy atoms:
               1
     1  N   -0.156498
     2  C    0.145724
     3  C    0.009476
     4  C   -0.010641
     5  C    0.007780
     6  C    0.001415
     7  C    0.003865
     8  C   -0.003294
     9  C   -0.000442
    10  C    0.006632
    11  C    0.003938
    12  C    0.126898
    13  N   -0.134855
 APT charges:
               1
     1  N   -2.021843
     2  C   -0.159162
     3  C   -0.880683
     4  C   -1.004231
     5  C   -0.523277
     6  C   -0.701201
     7  C   -0.524356
     8  C   -0.710495
     9  C   -0.797865
    10  C   -0.931958
    11  C   -0.401876
    12  C   -1.095856
    13  N   -1.233799
    14  H    1.067229
    15  H    0.726220
    16  H    0.550353
    17  H   -0.148860
    18  H    0.775500
    19  H    0.112301
    20  H    0.533119
    21  H    0.416058
    22  H    0.230224
    23  H    0.329913
    24  H    0.390610
    25  H    0.305082
    26  H    0.213312
    27  H    0.323559
    28  H    0.400394
    29  H    0.314685
    30  H    0.206463
    31  H    0.553642
    32  H    0.695998
    33  H    0.233285
    34  H    0.461766
    35  H   -0.082007
    36  H    0.456289
    37  H    0.752147
    38  H   -0.022801
    39  H    1.192122
 Sum of APT charges =  -0.00000
 APT charges with hydrogens summed into heavy atoms:
               1
     1  N   -0.228394
     2  C    0.242332
     3  C    0.007117
     4  C   -0.055054
     5  C    0.036860
     6  C   -0.005509
     7  C    0.012515
     8  C    0.004584
     9  C   -0.037760
    10  C   -0.002675
    11  C   -0.022117
    12  C    0.112580
    13  N   -0.064478
 Electronic spatial extent (au):  <R**2>=           5793.1566
 Charge=             -0.0000 electrons
 Dipole moment (field-independent basis, Debye):
    X=             -0.5278    Y=              1.3893    Z=              1.1529  Tot=              1.8810
 Quadrupole moment (field-independent basis, Debye-Ang):
   XX=            -76.3579   YY=            -82.2792   ZZ=            -87.5444
   XY=              6.9064   XZ=             -8.3695   YZ=              6.7441
 Traceless Quadrupole moment (field-independent basis, Debye-Ang):
   XX=              5.7026   YY=             -0.2187   ZZ=             -5.4839
   XY=              6.9064   XZ=             -8.3695   YZ=              6.7441
 Octapole moment (field-independent basis, Debye-Ang**2):
  XXX=            -52.0701  YYY=             20.8324  ZZZ=              4.4844  XYY=             10.4454
  XXY=             49.6180  XXZ=             30.6932  XZZ=              7.4344  YZZ=              4.1497
  YYZ=             16.8927  XYZ=             -5.8337
 Hexadecapole moment (field-independent basis, Debye-Ang**3):
 XXXX=          -5661.4903 YYYY=           -842.0915 ZZZZ=           -375.7178 XXXY=             62.5085
 XXXZ=           -127.4997 YYYX=            -12.8143 YYYZ=             45.2029 ZZZX=              6.2947
 ZZZY=             18.1576 XXYY=          -1107.3145 XXZZ=          -1178.7572 YYZZ=           -205.1881
[...]
    70    C    5  pz     Ryd( 3p)     0.00152
    71    C    5  dxy    Ryd( 3d)     0.00044
    72    C    5  dxz    Ryd( 3d)     0.00066
    73    C    5  dyz    Ryd( 3d)     0.00105
    74    C    5  dx2y2  Ryd( 3d)     0.00071
    75    C    5  dz2    Ryd( 3d)     0.00032

    76    C    6  S      Cor( 1S)     1.99934
    77    C    6  S      Val( 2S)     1.03057
    78    C    6  S      Ryd( 3S)     0.00084
    79    C    6  S      Ryd( 4S)     0.00002
    80    C    6  px     Val( 2p)     1.05785
    81    C    6  px     Ryd( 3p)     0.00218
    82    C    6  py     Val( 2p)     1.23222
    83    C    6  py     Ryd( 3p)     0.00356
    84    C    6  pz     Val( 2p)     1.13057
    85    C    6  pz     Ryd( 3p)     0.00152
    86    C    6  dxy    Ryd( 3d)     0.00045
    87    C    6  dxz    Ryd( 3d)     0.00066
    88    C    6  dyz    Ryd( 3d)     0.00104
    89    C    6  dx2y2  Ryd( 3d)     0.00071
    90    C    6  dz2    Ryd( 3d)     0.00032

    91    C    7  S      Cor( 1S)     1.99933
    92    C    7  S      Val( 2S)     1.03178
    93    C    7  S      Ryd( 3S)     0.00090
    94    C    7  S      Ryd( 4S)     0.00002
    95    C    7  px     Val( 2p)     1.05892
    96    C    7  px     Ryd( 3p)     0.00243
    97    C    7  py     Val( 2p)     1.14708
    98    C    7  py     Ryd( 3p)     0.00137
    99    C    7  pz     Val( 2p)     1.21364
   100    C    7  pz     Ryd( 3p)     0.00351
   101    C    7  dxy    Ryd( 3d)     0.00053
   102    C    7  dxz    Ryd( 3d)     0.00060
   103    C    7  dyz    Ryd( 3d)     0.00084
   104    C    7  dx2y2  Ryd( 3d)     0.00070
   105    C    7  dz2    Ryd( 3d)     0.00049

   106    C    8  S      Cor( 1S)     1.99933
   107    C    8  S      Val( 2S)     1.03259
   108    C    8  S      Ryd( 3S)     0.00083
   109    C    8  S      Ryd( 4S)     0.00002
   110    C    8  px     Val( 2p)     1.06199
   111    C    8  px     Ryd( 3p)     0.00225
   112    C    8  py     Val( 2p)     1.14218
   113    C    8  py     Ryd( 3p)     0.00153
   114    C    8  pz     Val( 2p)     1.21239
   115    C    8  pz     Ryd( 3p)     0.00335
   116    C    8  dxy    Ryd( 3d)     0.00054
   117    C    8  dxz    Ryd( 3d)     0.00062
   118    C    8  dyz    Ryd( 3d)     0.00092
   119    C    8  dx2y2  Ryd( 3d)     0.00068
   120    C    8  dz2    Ryd( 3d)     0.00044

   121    C    9  S      Cor( 1S)     1.99932
   122    C    9  S      Val( 2S)     1.03486
   123    C    9  S      Ryd( 3S)     0.00071
   124    C    9  S      Ryd( 4S)     0.00002
   125    C    9  px     Val( 2p)     1.05233
   126    C    9  px     Ryd( 3p)     0.00137
   127    C    9  py     Val( 2p)     1.22639
   128    C    9  py     Ryd( 3p)     0.00446
   129    C    9  pz     Val( 2p)     1.13676
   130    C    9  pz     Ryd( 3p)     0.00178
   131    C    9  dxy    Ryd( 3d)     0.00048
   132    C    9  dxz    Ryd( 3d)     0.00062
   133    C    9  dyz    Ryd( 3d)     0.00095
   134    C    9  dx2y2  Ryd( 3d)     0.00071
   135    C    9  dz2    Ryd( 3d)     0.00037

   136    C   10  S      Cor( 1S)     1.99933
   137    C   10  S      Val( 2S)     1.04150
   138    C   10  S      Ryd( 3S)     0.00073
   139    C   10  S      Ryd( 4S)     0.00002
   140    C   10  px     Val( 2p)     1.19682
   141    C   10  px     Ryd( 3p)     0.00420
   142    C   10  py     Val( 2p)     1.07653
   143    C   10  py     Ryd( 3p)     0.00195
   144    C   10  pz     Val( 2p)     1.14461
   145    C   10  pz     Ryd( 3p)     0.00247
   146    C   10  dxy    Ryd( 3d)     0.00054
   147    C   10  dxz    Ryd( 3d)     0.00050
   148    C   10  dyz    Ryd( 3d)     0.00075
   149    C   10  dx2y2  Ryd( 3d)     0.00070
   150    C   10  dz2    Ryd( 3d)     0.00064

   151    C   11  S      Cor( 1S)     1.99931
   152    C   11  S      Val( 2S)     1.04189
   153    C   11  S      Ryd( 3S)     0.00100
   154    C   11  S      Ryd( 4S)     0.00002
   155    C   11  px     Val( 2p)     1.16477
   156    C   11  px     Ryd( 3p)     0.00286
   157    C   11  py     Val( 2p)     1.06109
   158    C   11  py     Ryd( 3p)     0.00174
   159    C   11  pz     Val( 2p)     1.19815
   160    C   11  pz     Ryd( 3p)     0.00424
   161    C   11  dxy    Ryd( 3d)     0.00081
   162    C   11  dxz    Ryd( 3d)     0.00039
   163    C   11  dyz    Ryd( 3d)     0.00043
   164    C   11  dx2y2  Ryd( 3d)     0.00057
   165    C   11  dz2    Ryd( 3d)     0.00091

   166    C   12  S      Cor( 1S)     1.99930
   167    C   12  S      Val( 2S)     1.06199
   168    C   12  S      Ryd( 3S)     0.00221
   169    C   12  S      Ryd( 4S)     0.00003
   170    C   12  px     Val( 2p)     1.18366
   171    C   12  px     Ryd( 3p)     0.00104
   172    C   12  py     Val( 2p)     1.19122
   173    C   12  py     Ryd( 3p)     0.00307
   174    C   12  pz     Val( 2p)     0.89967
   175    C   12  pz     Ryd( 3p)     0.00731
   176    C   12  dxy    Ryd( 3d)     0.00065
   177    C   12  dxz    Ryd( 3d)     0.00066
   178    C   12  dyz    Ryd( 3d)     0.00056
   179    C   12  dx2y2  Ryd( 3d)     0.00082
   180    C   12  dz2    Ryd( 3d)     0.00174

   181    N   13  S      Cor( 1S)     1.99934
   182    N   13  S      Val( 2S)     1.51758
   183    N   13  S      Ryd( 3S)     0.01691
   184    N   13  S      Ryd( 4S)     0.00003
   185    N   13  px     Val( 2p)     1.42278
   186    N   13  px     Ryd( 3p)     0.00077
   187    N   13  py     Val( 2p)     1.17362
   188    N   13  py     Ryd( 3p)     0.00215
   189    N   13  pz     Val( 2p)     1.25506
   190    N   13  pz     Ryd( 3p)     0.00077
   191    N   13  dxy    Ryd( 3d)     0.00099
   192    N   13  dxz    Ryd( 3d)     0.00043
   193    N   13  dyz    Ryd( 3d)     0.00034
   194    N   13  dx2y2  Ryd( 3d)     0.00000
   195    N   13  dz2    Ryd( 3d)     0.00074

   196    H   14  S      Val( 1S)     0.61486
   197    H   14  S      Ryd( 2S)     0.00154
   198    H   14  px     Ryd( 2p)     0.00058
   199    H   14  py     Ryd( 2p)     0.00033
   200    H   14  pz     Ryd( 2p)     0.00051

   201    H   15  S      Val( 1S)     0.60816
   202    H   15  S      Ryd( 2S)     0.00126
   203    H   15  px     Ryd( 2p)     0.00035
   204    H   15  py     Ryd( 2p)     0.00049
   205    H   15  pz     Ryd( 2p)     0.00057

   206    H   16  S      Val( 1S)     0.79657
   207    H   16  S      Ryd( 2S)     0.00218
   208    H   16  px     Ryd( 2p)     0.00012
   209    H   16  py     Ryd( 2p)     0.00010
   210    H   16  pz     Ryd( 2p)     0.00034

   211    H   17  S      Val( 1S)     0.77524
   212    H   17  S      Ryd( 2S)     0.00146
   213    H   17  px     Ryd( 2p)     0.00032
   214    H   17  py     Ryd( 2p)     0.00014
   215    H   17  pz     Ryd( 2p)     0.00009

   216    H   18  S      Val( 1S)     0.76405
   217    H   18  S      Ryd( 2S)     0.00146
   218    H   18  px     Ryd( 2p)     0.00031
   219    H   18  py     Ryd( 2p)     0.00015
   220    H   18  pz     Ryd( 2p)     0.00011

   221    H   19  S      Val( 1S)     0.76570
   222    H   19  S      Ryd( 2S)     0.00202
   223    H   19  px     Ryd( 2p)     0.00013
   224    H   19  py     Ryd( 2p)     0.00010
   225    H   19  pz     Ryd( 2p)     0.00031

   226    H   20  S      Val( 1S)     0.76321
   227    H   20  S      Ryd( 2S)     0.00156
   228    H   20  px     Ryd( 2p)     0.00015
   229    H   20  py     Ryd( 2p)     0.00011
   230    H   20  pz     Ryd( 2p)     0.00030

   231    H   21  S      Val( 1S)     0.76214
   232    H   21  S      Ryd( 2S)     0.00152
   233    H   21  px     Ryd( 2p)     0.00009
   234    H   21  py     Ryd( 2p)     0.00030
   235    H   21  pz     Ryd( 2p)     0.00016

   236    H   22  S      Val( 1S)     0.77115
   237    H   22  S      Ryd( 2S)     0.00172
   238    H   22  px     Ryd( 2p)     0.00010
   239    H   22  py     Ryd( 2p)     0.00027
   240    H   22  pz     Ryd( 2p)     0.00019

   241    H   23  S      Val( 1S)     0.76377
   242    H   23  S      Ryd( 2S)     0.00137
   243    H   23  px     Ryd( 2p)     0.00015
   244    H   23  py     Ryd( 2p)     0.00023
   245    H   23  pz     Ryd( 2p)     0.00018

   246    H   24  S      Val( 1S)     0.77144
   247    H   24  S      Ryd( 2S)     0.00184
   248    H   24  px     Ryd( 2p)     0.00010
   249    H   24  py     Ryd( 2p)     0.00027
   250    H   24  pz     Ryd( 2p)     0.00019

   251    H   25  S      Val( 1S)     0.76448
   252    H   25  S      Ryd( 2S)     0.00135
   253    H   25  px     Ryd( 2p)     0.00014
   254    H   25  py     Ryd( 2p)     0.00023
   255    H   25  pz     Ryd( 2p)     0.00018

   256    H   26  S      Val( 1S)     0.77986
   257    H   26  S      Ryd( 2S)     0.01313
   258    H   26  px     Ryd( 2p)     0.00010
   259    H   26  py     Ryd( 2p)     0.00027
   260    H   26  pz     Ryd( 2p)     0.00018

   261    H   27  S      Val( 1S)     0.76658
   262    H   27  S      Ryd( 2S)     0.00160
   263    H   27  px     Ryd( 2p)     0.00015
   264    H   27  py     Ryd( 2p)     0.00012
   265    H   27  pz     Ryd( 2p)     0.00029

   266    H   28  S      Val( 1S)     0.77012
   267    H   28  S      Ryd( 2S)     0.00191
   268    H   28  px     Ryd( 2p)     0.00010
   269    H   28  py     Ryd( 2p)     0.00027
   270    H   28  pz     Ryd( 2p)     0.00019

   271    H   29  S      Val( 1S)     0.76790
   272    H   29  S      Ryd( 2S)     0.00219
   273    H   29  px     Ryd( 2p)     0.00016
   274    H   29  py     Ryd( 2p)     0.00012
   275    H   29  pz     Ryd( 2p)     0.00028

   276    H   30  S      Val( 1S)     0.78486
   277    H   30  S      Ryd( 2S)     0.01384
   278    H   30  px     Ryd( 2p)     0.00010
   279    H   30  py     Ryd( 2p)     0.00025
   280    H   30  pz     Ryd( 2p)     0.00023

   281    H   31  S      Val( 1S)     0.76055
   282    H   31  S      Ryd( 2S)     0.00317
   283    H   31  px     Ryd( 2p)     0.00013
   284    H   31  py     Ryd( 2p)     0.00026
   285    H   31  pz     Ryd( 2p)     0.00017

   286    H   32  S      Val( 1S)     0.76130
   287    H   32  S      Ryd( 2S)     0.00436
   288    H   32  px     Ryd( 2p)     0.00031
   289    H   32  py     Ryd( 2p)     0.00014
   290    H   32  pz     Ryd( 2p)     0.00011

   291    H   33  S      Val( 1S)     0.76271
   292    H   33  S      Ryd( 2S)     0.00515
   293    H   33  px     Ryd( 2p)     0.00012
   294    H   33  py     Ryd( 2p)     0.00018
   295    H   33  pz     Ryd( 2p)     0.00026

   296    H   34  S      Val( 1S)     0.77775
   297    H   34  S      Ryd( 2S)     0.01250
   298    H   34  px     Ryd( 2p)     0.00010
   299    H   34  py     Ryd( 2p)     0.00009
   300    H   34  pz     Ryd( 2p)     0.00035

   301    H   35  S      Val( 1S)     0.76421
   302    H   35  S      Ryd( 2S)     0.01724
   303    H   35  px     Ryd( 2p)     0.00030
   304    H   35  py     Ryd( 2p)     0.00015
   305    H   35  pz     Ryd( 2p)     0.00012

   306    H   36  S      Val( 1S)     0.71548
   307    H   36  S      Ryd( 2S)     0.03208
   308    H   36  px     Ryd( 2p)     0.00011
   309    H   36  py     Ryd( 2p)     0.00030
   310    H   36  pz     Ryd( 2p)     0.00016

   311    H   37  S      Val( 1S)     0.75016
   312    H   37  S      Ryd( 2S)     0.01837
   313    H   37  px     Ryd( 2p)     0.00029
   314    H   37  py     Ryd( 2p)     0.00015
   315    H   37  pz     Ryd( 2p)     0.00007

   316    H   38  S      Val( 1S)     0.73185
   317    H   38  S      Ryd( 2S)     0.08950
   318    H   38  px     Ryd( 2p)     0.00059
   319    H   38  py     Ryd( 2p)     0.00034
   320    H   38  pz     Ryd( 2p)     0.00025

   321    H   39  S      Val( 1S)     0.72310
   322    H   39  S      Ryd( 2S)     0.07785
   323    H   39  px     Ryd( 2p)     0.00051
   324    H   39  py     Ryd( 2p)     0.00037
   325    H   39  pz     Ryd( 2p)     0.00031


 Summary of Natural Population Analysis:                  
                                                          
                                       Natural Population 
                Natural  -----------------------------------------------
    Atom  No    Charge         Core      Valence    Rydberg      Total
 -----------------------------------------------------------------------
      N    1   -0.92843      1.99968     5.91393    0.01482     7.92843
      C    2   -0.26181      1.99936     4.24928    0.01317     6.26181
      C    3   -0.47697      1.99933     4.46571    0.01194     6.47697
      C    4   -0.46183      1.99934     4.45111    0.01138     6.46183
      C    5   -0.46474      1.99933     4.45441    0.01099     6.46474
      C    6   -0.46185      1.99934     4.45122    0.01130     6.46185
      C    7   -0.46214      1.99933     4.45142    0.01139     6.46214
      C    8   -0.45967      1.99933     4.44915    0.01119     6.45967
      C    9   -0.46115      1.99932     4.45034    0.01148     6.46115
      C   10   -0.47130      1.99933     4.45946    0.01251     6.47130
      C   11   -0.47818      1.99931     4.46590    0.01297     6.47818
      C   12   -0.35394      1.99930     4.33654    0.01810     6.35394
      N   13   -0.39152      1.99934     5.36904    0.02314     7.39152
      H   14    0.38218      0.00000     0.61486    0.00296     0.61782
      H   15    0.38916      0.00000     0.60816    0.00267     0.61084
      H   16    0.20068      0.00000     0.79657    0.00275     0.79932
      H   17    0.22275      0.00000     0.77524    0.00201     0.77725
      H   18    0.23393      0.00000     0.76405    0.00202     0.76607
      H   19    0.23174      0.00000     0.76570    0.00256     0.76826
      H   20    0.23467      0.00000     0.76321    0.00211     0.76533
      H   21    0.23579      0.00000     0.76214    0.00208     0.76421
      H   22    0.22658      0.00000     0.77115    0.00228     0.77342
      H   23    0.23430      0.00000     0.76377    0.00193     0.76570
      H   24    0.22616      0.00000     0.77144    0.00240     0.77384
      H   25    0.23361      0.00000     0.76448    0.00190     0.76639
      H   26    0.20646      0.00000     0.77986    0.01368     0.79354
      H   27    0.23126      0.00000     0.76658    0.00216     0.76874
      H   28    0.22740      0.00000     0.77012    0.00248     0.77260
      H   29    0.22935      0.00000     0.76790    0.00275     0.77065
      H   30    0.20073      0.00000     0.78486    0.01441     0.79927
      H   31    0.23572      0.00000     0.76055    0.00373     0.76428
      H   32    0.23378      0.00000     0.76130    0.00492     0.76622
      H   33    0.23158      0.00000     0.76271    0.00571     0.76842
      H   34    0.20921      0.00000     0.77775    0.01305     0.79079
      H   35    0.21798      0.00000     0.76421    0.01781     0.78202
      H   36    0.25187      0.00000     0.71548    0.03265     0.74813
      H   37    0.23096      0.00000     0.75016    0.01888     0.76904
      H   38    0.17746      0.00000     0.73185    0.09068     0.82254
      H   39    0.19786      0.00000     0.72310    0.07904     0.80214
 =======================================================================
   * Total *   -0.00038     25.99163    79.50472    0.50402   106.00038

                                 Natural Population      
 --------------------------------------------------------
   Core                      25.99163 ( 99.9678% of  26)
   Valence                   79.50472 ( 99.3809% of  80)
   Natural Minimal Basis    105.49635 ( 99.5249% of 106)
   Natural Rydberg Basis      0.50402 (  0.4755% of 106)
 --------------------------------------------------------

    Atom  No          Natural Electron Configuration
 ----------------------------------------------------------------------------
      N    1      [core]2S( 1.45)2p( 4.47)3p( 0.01)
      C    2      [core]2S( 1.02)2p( 3.23)3p( 0.01)
      C    3      [core]2S( 1.04)2p( 3.43)3p( 0.01)
      C    4      [core]2S( 1.03)2p( 3.42)3p( 0.01)
      C    5      [core]2S( 1.03)2p( 3.42)3p( 0.01)
      C    6      [core]2S( 1.03)2p( 3.42)3p( 0.01)
      C    7      [core]2S( 1.03)2p( 3.42)3p( 0.01)
      C    8      [core]2S( 1.03)2p( 3.42)3p( 0.01)
      C    9      [core]2S( 1.03)2p( 3.42)3p( 0.01)
      C   10      [core]2S( 1.04)2p( 3.42)3p( 0.01)
      C   11      [core]2S( 1.04)2p( 3.42)3p( 0.01)
      C   12      [core]2S( 1.06)2p( 3.27)3p( 0.01)
      N   13      [core]2S( 1.52)2p( 3.85)3S( 0.02)
      H   14            1S( 0.61)
      H   15            1S( 0.61)
      H   16            1S( 0.80)
      H   17            1S( 0.78)
      H   18            1S( 0.76)
      H   19            1S( 0.77)
      H   20            1S( 0.76)
      H   21            1S( 0.76)
      H   22            1S( 0.77)
      H   23            1S( 0.76)
      H   24            1S( 0.77)
      H   25            1S( 0.76)
      H   26            1S( 0.78)2S( 0.01)
      H   27            1S( 0.77)
      H   28            1S( 0.77)
      H   29            1S( 0.77)
      H   30            1S( 0.78)2S( 0.01)
      H   31            1S( 0.76)
      H   32            1S( 0.76)
      H   33            1S( 0.76)2S( 0.01)
      H   34            1S( 0.78)2S( 0.01)
      H   35            1S( 0.76)2S( 0.02)
      H   36            1S( 0.72)2S( 0.03)
      H   37            1S( 0.75)2S( 0.02)
      H   38            1S( 0.73)2S( 0.09)
      H   39            1S( 0.72)2S( 0.08)


 NBO analysis skipped by request.
 1\1\GINC-DRG2-W002\SP\RB3LYP TD-FC\6-31G(d,p)\C11H26N2\QDUEZ\18-Jul-20
 24\0\\# TD(NStates=10, Root=1) B3LYP/6-31G** SCRF=(Solvent=water) volu
 me pop=NPA density=current Geom=AllCheck Guess=Read\\KLNPWTHGTVSSEU-UH
 FFFAOYSA-N_conf_2\\0,1\N,0,-5.0329647374,2.0778534184,-1.6083810474\C,
 0,-4.3352002808,1.4400481791,-0.4800432361\C,0,-4.2245848812,-0.070823
 4033,-0.7003155979\C,0,-3.5574357492,-0.8324468242,0.4574573047\C,0,-2
 .0856399243,-0.4803759666,0.7425776379\C,0,-1.1196231855,-0.8143865494
 ,-0.403702128\C,0,0.3572433487,-0.4888173231,-0.1143273574\C,0,1.00760
 88735,-1.379233345,0.954648123\C,0,2.4670901668,-1.0430565615,1.312100
 9933\C,0,3.4951773501,-1.2267813641,0.1714241347\C,0,3.7950446533,0.00
 72244257,-0.7062121386\C,0,4.8497943296,0.9749024472,-0.1545251503\N,0
 ,4.4234753786,1.6347489747,1.0905882836\H,0,-6.0016062227,1.7603041817
 ,-1.6149215441\H,0,-5.0848647232,3.0814685239,-1.4429573625\H,0,-4.817
 8581438,1.6241551191,0.4963063291\H,0,-3.3344493965,1.8837894543,-0.41
 81380016\H,0,-5.2369959573,-0.4750587161,-0.8411088662\H,0,-3.69349194
 05,-0.252187109,-1.6424846594\H,0,-4.1418523397,-0.6622204591,1.371991
 5936\H,0,-3.6266828404,-1.9091980368,0.2522370845\H,0,-1.9954077953,0.
 5865966217,0.9884697591\H,0,-1.7812436839,-1.0207202683,1.6472532622\H
 ,0,-1.2124831368,-1.8813142788,-0.6549765083\H,0,-1.423552901,-0.26524
 19442,-1.3036015768\H,0,0.4414744483,0.5655036286,0.1875902059\H,0,0.9
 191294191,-0.5821796331,-1.0515581658\H,0,0.9546889027,-2.4260728025,0
 .6198419093\H,0,0.4151667121,-1.3289728259,1.8772004847\H,0,2.53481745
 68,-0.0200029459,1.6972510434\H,0,2.754847206,-1.6965728693,2.14607002
 56\H,0,4.4465452533,-1.5701397708,0.5991493989\H,0,3.1530441574,-2.046
 5272009,-0.4753191209\H,0,4.1615162759,-0.3349306348,-1.6828528859\H,0
 ,2.8728565821,0.5651263331,-0.9130939165\H,0,5.1096267634,1.6913525387
 ,-0.9531154107\H,0,5.767140864,0.4128471752,0.0655227143\H,0,3.6217592
 001,2.2299795811,0.8865196109\H,0,5.1578904978,2.2713602301,1.39553811
 34\\Version=ES64L-G16RevA.03\State=1-A\HF=-544.3718229\RMSD=7.793e-09\
 Dipole=0.2444267,0.0135841,0.3801715\Quadrupole=10.309529,-2.6551391,-
 7.6543899,-3.0983791,-4.8862461,0.6603227\PG=C01 [X(C11H26N2)]\\@


 We find comfort among those who agree with us -- growth among those who don't.
 -- Frank A. Clark
 Job cpu time:       0 days  1 hours  0 minutes 12.4 seconds.
 Elapsed time:       0 days  0 hours 20 minutes  7.8 seconds.
 File lengths (MBytes):  RWF=    865 Int=      0 D2E=      0 Chk=     56 Scr=      1
 Normal termination of Gaussian 16 at Thu Jul 18 06:44:09 2024.
