 Entering Gaussian System, Link 0=g16
 Initial command:
 /opt/sw/arch/manual/gaussian/G16_A03/g16/l1.exe "/scratch/1380945/Gau-162527.inp" -scrdir="/scratch/1380945/"
 Entering Link 1 = /opt/sw/arch/manual/gaussian/G16_A03/g16/l1.exe PID=    162528.
  
 Copyright (c) 1988,1990,1992,1993,1995,1998,2003,2009,2016,
            Gaussian, Inc.  All Rights Reserved.
  
 This is part of the Gaussian(R) 16 program.  It is based on
 the Gaussian(R) 09 system (copyright 2009, Gaussian, Inc.),
 the Gaussian(R) 03 system (copyright 2003, Gaussian, Inc.),
 the Gaussian(R) 98 system (copyright 1998, Gaussian, Inc.),
 the Gaussian(R) 94 system (copyright 1995, Gaussian, Inc.),
 the Gaussian 92(TM) system (copyright 1992, Gaussian, Inc.),
 the Gaussian 90(TM) system (copyright 1990, Gaussian, Inc.),
 the Gaussian 88(TM) system (copyright 1988, Gaussian, Inc.),
 the Gaussian 86(TM) system (copyright 1986, Carnegie Mellon
 University), and the Gaussian 82(TM) system (copyright 1983,
 Carnegie Mellon University). Gaussian is a federally registered
 trademark of Gaussian, Inc.
  
 This software contains proprietary and confidential information,
 including trade secrets, belonging to Gaussian, Inc.
  
 This software is provided under written license and may be
 used, copied, transmitted, or stored only in accord with that
 written license.
  
 The following legend is applicable only to US Government
 contracts under FAR:
  
                    RESTRICTED RIGHTS LEGEND
  
 Use, reproduction and disclosure by the US Government is
 subject to restrictions as set forth in subparagraphs (a)
 and (c) of the Commercial Computer Software - Restricted
 Rights clause in FAR 52.227-19.
  
 Gaussian, Inc.
 340 Quinnipiac St., Bldg. 40, Wallingford CT 06492
  
  
 ---------------------------------------------------------------
 Warning -- This program may not be used in any manner that
 competes with the business of Gaussian, Inc. or will provide
 assistance to any competitor of Gaussian, Inc.  The licensee
 of this program is prohibited from giving any competitor of
 Gaussian, Inc. access to this program.  By using this program,
 the user acknowledges that Gaussian, Inc. is engaged in the
 business of creating and licensing software in the field of
 computational chemistry and represents and warrants to the
 licensee that it is not a competitor of Gaussian, Inc. and that
 it will not use this program in any manner prohibited above.
 ---------------------------------------------------------------
  

 Cite this work as:
 Gaussian 16, Revision A.03,
 M. J. Frisch, G. W. Trucks, H. B. Schlegel, G. E. Scuseria, 
 M. A. Robb, J. R. Cheeseman, G. Scalmani, V. Barone, 
 G. A. Petersson, H. Nakatsuji, X. Li, M. Caricato, A. V. Marenich, 
 J. Bloino, B. G. Janesko, R. Gomperts, B. Mennucci, H. P. Hratchian, 
 J. V. Ortiz, A. F. Izmaylov, J. L. Sonnenberg, D. Williams-Young, 
 F. Ding, F. Lipparini, F. Egidi, J. Goings, B. Peng, A. Petrone, 
 T. Henderson, D. Ranasinghe, V. G. Zakrzewski, J. Gao, N. Rega, 
 G. Zheng, W. Liang, M. Hada, M. Ehara, K. Toyota, R. Fukuda, 
 J. Hasegawa, M. Ishida, T. Nakajima, Y. Honda, O. Kitao, H. Nakai, 
 T. Vreven, K. Throssell, J. A. Montgomery, Jr., J. E. Peralta, 
 F. Ogliaro, M. J. Bearpark, J. J. Heyd, E. N. Brothers, K. N. Kudin, 
 V. N. Staroverov, T. A. Keith, R. Kobayashi, J. Normand, 
 K. Raghavachari, A. P. Rendell, J. C. Burant, S. S. Iyengar, 
 J. Tomasi, M. Cossi, J. M. Millam, M. Klene, C. Adamo, R. Cammi, 
 J. W. Ochterski, R. L. Martin, K. Morokuma, O. Farkas, 
 J. B. Foresman, and D. J. Fox, Gaussian, Inc., Wallingford CT, 2016.
 
 ******************************************
 Gaussian 16:  ES64L-G16RevA.03 25-Dec-2016
                18-Jul-2024 
 ******************************************
 %nprocshared=5
 Will use up to    5 processors via shared memory.
 %mem=10GB
 %Chk=NIQFAJBKEHPUAM-UHFFFAOYSA-N_conf_0_0.chk
 -------------------------------------------------------
 # opt=CalcFc B3LYP/6-31G** SCRF=(Solvent=water) scf=xqc
 -------------------------------------------------------
 1/10=4,18=20,19=15,26=3,38=1/1,3;
 2/9=110,12=2,17=6,18=5,40=1/2;
 3/5=1,6=6,7=101,11=2,25=1,30=1,70=2201,71=2,72=1,74=-5,140=1/1,2,3;
 4//1;
 5/5=2,8=3,13=1,38=5,53=1/2,8;
 8/6=4,10=90,11=11/1;
 11/6=1,8=1,9=11,15=111,16=1/1,2,10;
 10/6=1,13=1/2;
 6/7=2,8=2,9=2,10=2,28=1/1;
 7/10=1,18=20,25=1/1,2,3,16;
 1/10=4,18=20,19=15,26=3/3(2);
 2/9=110/2;
 99//99;
 2/9=110/2;
 3/5=1,6=6,7=101,11=2,25=1,30=1,70=2205,71=1,72=1,74=-5/1,2,3;
 4/5=5,16=3,69=1/1;
 5/5=2,8=3,13=1,38=5,53=1/2,8;
 7//1,2,3,16;
 1/18=20,19=15,26=3/3(-5);
 2/9=110/2;
 6/7=2,8=2,9=2,10=2,19=2,28=1/1;
 99/9=1/99;
 ----------------------------------
 NIQFAJBKEHPUAM-UHFFFAOYSA-N_conf_0
 ----------------------------------
 Symbolic Z-matrix:
 Charge =  0 Multiplicity = 1
 N                     5.71272   1.77999  -2.0991 
 C                     4.27189   1.58459  -1.94624 
 C                     3.89966   1.0881   -0.54249 
 O                     2.48234   1.05132  -0.35201 
 C                     1.8765   -0.1121   -0.91551 
 C                     0.38132  -0.09206  -0.61234 
 O                    -0.22876  -1.25669  -1.16681 
 C                    -1.63805  -1.30693  -0.94212 
 C                    -1.97989  -1.86074   0.44346 
 O                    -3.39228  -1.94693   0.63306 
 C                    -3.98599  -0.73943   1.11751 
 C                    -3.9475   -0.69122   2.65113 
 N                    -4.54071   0.53499   3.18122 
 H                     6.02589   2.51178  -1.46142 
 H                     5.90377   2.12734  -3.0388 
 H                     3.74717   2.52356  -2.15634 
 H                     3.93273   0.86605  -2.69918 
 H                     4.29259   1.78829   0.20367 
 H                     4.34234   0.10716  -0.33093 
 H                     2.32661  -1.01655  -0.48905 
 H                     2.02919  -0.14052  -1.99954 
 H                    -0.06952   0.80929  -1.04425 
 H                     0.22787  -0.05466   0.47152 
 H                    -2.06575  -1.97312  -1.70006 
 H                    -2.09325  -0.32513  -1.11495 
 H                    -1.509    -1.28107   1.2439 
 H                    -1.57444  -2.87545   0.52539 
 H                    -3.50192   0.13964   0.67628 
 H                    -5.02955  -0.74084   0.78294 
 H                    -2.91713  -0.7807    3.01114 
 H                    -4.48604  -1.55836   3.05033 
 H                    -3.97447   1.33846   2.91143 
 H                    -4.51834   0.50194   4.20025 
 

 GradGradGradGradGradGradGradGradGradGradGradGradGradGradGradGradGradGrad
 Berny optimization.
 Initialization pass.
                           ----------------------------
                           !    Initial Parameters    !
                           ! (Angstroms and Degrees)  !
 --------------------------                            --------------------------
 ! Name  Definition              Value          Derivative Info.                !
 --------------------------------------------------------------------------------
 ! R1    R(1,2)                  1.462          calculate D2E/DX2 analytically  !
 ! R2    R(1,14)                 1.0199         calculate D2E/DX2 analytically  !
 ! R3    R(1,15)                 1.0199         calculate D2E/DX2 analytically  !
 ! R4    R(2,3)                  1.5348         calculate D2E/DX2 analytically  !
 ! R5    R(2,16)                 1.096          calculate D2E/DX2 analytically  !
 ! R6    R(2,17)                 1.0947         calculate D2E/DX2 analytically  !
 ! R7    R(3,4)                  1.4305         calculate D2E/DX2 analytically  !
 ! R8    R(3,18)                 1.0961         calculate D2E/DX2 analytically  !
 ! R9    R(3,19)                 1.0968         calculate D2E/DX2 analytically  !
 ! R10   R(4,5)                  1.4276         calculate D2E/DX2 analytically  !
 ! R11   R(5,6)                  1.5257         calculate D2E/DX2 analytically  !
 ! R12   R(5,20)                 1.0966         calculate D2E/DX2 analytically  !
 ! R13   R(5,21)                 1.0951         calculate D2E/DX2 analytically  !
 ! R14   R(6,7)                  1.4269         calculate D2E/DX2 analytically  !
 ! R15   R(6,22)                 1.0965         calculate D2E/DX2 analytically  !
 ! R16   R(6,23)                 1.0953         calculate D2E/DX2 analytically  !
 ! R17   R(7,8)                  1.428          calculate D2E/DX2 analytically  !
 ! R18   R(8,9)                  1.5308         calculate D2E/DX2 analytically  !
 ! R19   R(8,24)                 1.096          calculate D2E/DX2 analytically  !
 ! R20   R(8,25)                 1.0959         calculate D2E/DX2 analytically  !
 ! R21   R(9,10)                 1.4277         calculate D2E/DX2 analytically  !
 ! R22   R(9,26)                 1.0947         calculate D2E/DX2 analytically  !
 ! R23   R(9,27)                 1.0958         calculate D2E/DX2 analytically  !
 ! R24   R(10,11)                1.4301         calculate D2E/DX2 analytically  !
 ! R25   R(11,12)                1.5349         calculate D2E/DX2 analytically  !
 ! R26   R(11,28)                1.0963         calculate D2E/DX2 analytically  !
 ! R27   R(11,29)                1.0959         calculate D2E/DX2 analytically  !
 ! R28   R(12,13)                1.4617         calculate D2E/DX2 analytically  !
 ! R29   R(12,30)                1.0951         calculate D2E/DX2 analytically  !
 ! R30   R(12,31)                1.096          calculate D2E/DX2 analytically  !
 ! R31   R(13,32)                1.0193         calculate D2E/DX2 analytically  !
 ! R32   R(13,33)                1.0198         calculate D2E/DX2 analytically  !
 ! A1    A(2,1,14)             109.4591         calculate D2E/DX2 analytically  !
 ! A2    A(2,1,15)             109.0541         calculate D2E/DX2 analytically  !
 ! A3    A(14,1,15)            105.9133         calculate D2E/DX2 analytically  !
 ! A4    A(1,2,3)              112.2022         calculate D2E/DX2 analytically  !
 ! A5    A(1,2,16)             109.7115         calculate D2E/DX2 analytically  !
 ! A6    A(1,2,17)             108.7328         calculate D2E/DX2 analytically  !
 ! A7    A(3,2,16)             109.6561         calculate D2E/DX2 analytically  !
 ! A8    A(3,2,17)             109.9759         calculate D2E/DX2 analytically  !
 ! A9    A(16,2,17)            106.3901         calculate D2E/DX2 analytically  !
 ! A10   A(2,3,4)              111.7398         calculate D2E/DX2 analytically  !
 ! A11   A(2,3,18)             109.2104         calculate D2E/DX2 analytically  !
 ! A12   A(2,3,19)             111.5831         calculate D2E/DX2 analytically  !
 ! A13   A(4,3,18)             106.3175         calculate D2E/DX2 analytically  !
 ! A14   A(4,3,19)             110.5607         calculate D2E/DX2 analytically  !
 ! A15   A(18,3,19)            107.1771         calculate D2E/DX2 analytically  !
 ! A16   A(3,4,5)              112.8827         calculate D2E/DX2 analytically  !
 ! A17   A(4,5,6)              109.0706         calculate D2E/DX2 analytically  !
 ! A18   A(4,5,20)             110.1486         calculate D2E/DX2 analytically  !
 ! A19   A(4,5,21)             110.6524         calculate D2E/DX2 analytically  !
 ! A20   A(6,5,20)             109.6218         calculate D2E/DX2 analytically  !
 ! A21   A(6,5,21)             109.4916         calculate D2E/DX2 analytically  !
 ! A22   A(20,5,21)            107.8385         calculate D2E/DX2 analytically  !
 ! A23   A(5,6,7)              109.3331         calculate D2E/DX2 analytically  !
 ! A24   A(5,6,22)             109.601          calculate D2E/DX2 analytically  !
 ! A25   A(5,6,23)             109.5336         calculate D2E/DX2 analytically  !
 ! A26   A(7,6,22)             110.0049         calculate D2E/DX2 analytically  !
 ! A27   A(7,6,23)             110.6399         calculate D2E/DX2 analytically  !
 ! A28   A(22,6,23)            107.7054         calculate D2E/DX2 analytically  !
 ! A29   A(6,7,8)              112.926          calculate D2E/DX2 analytically  !
 ! A30   A(7,8,9)              112.0573         calculate D2E/DX2 analytically  !
 ! A31   A(7,8,24)             107.32           calculate D2E/DX2 analytically  !
 ! A32   A(7,8,25)             110.7069         calculate D2E/DX2 analytically  !
 ! A33   A(9,8,24)             108.5966         calculate D2E/DX2 analytically  !
 ! A34   A(9,8,25)             111.9684         calculate D2E/DX2 analytically  !
 ! A35   A(24,8,25)            105.8666         calculate D2E/DX2 analytically  !
 ! A36   A(8,9,10)             111.282          calculate D2E/DX2 analytically  !
 ! A37   A(8,9,26)             111.9736         calculate D2E/DX2 analytically  !
 ! A38   A(8,9,27)             108.666          calculate D2E/DX2 analytically  !
 ! A39   A(10,9,26)            111.1251         calculate D2E/DX2 analytically  !
 ! A40   A(10,9,27)            107.4711         calculate D2E/DX2 analytically  !
 ! A41   A(26,9,27)            106.0522         calculate D2E/DX2 analytically  !
 ! A42   A(9,10,11)            113.874          calculate D2E/DX2 analytically  !
 ! A43   A(10,11,12)           110.768          calculate D2E/DX2 analytically  !
 ! A44   A(10,11,28)           110.9403         calculate D2E/DX2 analytically  !
 ! A45   A(10,11,29)           106.9072         calculate D2E/DX2 analytically  !
 ! A46   A(12,11,28)           111.4632         calculate D2E/DX2 analytically  !
 ! A47   A(12,11,29)           109.2069         calculate D2E/DX2 analytically  !
 ! A48   A(28,11,29)           107.3757         calculate D2E/DX2 analytically  !
 ! A49   A(11,12,13)           112.2432         calculate D2E/DX2 analytically  !
 ! A50   A(11,12,30)           110.4569         calculate D2E/DX2 analytically  !
 ! A51   A(11,12,31)           109.0715         calculate D2E/DX2 analytically  !
 ! A52   A(13,12,30)           109.3404         calculate D2E/DX2 analytically  !
 ! A53   A(13,12,31)           109.4029         calculate D2E/DX2 analytically  !
 ! A54   A(30,12,31)           106.1363         calculate D2E/DX2 analytically  !
 ! A55   A(12,13,32)           109.8662         calculate D2E/DX2 analytically  !
 ! A56   A(12,13,33)           109.044          calculate D2E/DX2 analytically  !
 ! A57   A(32,13,33)           106.1311         calculate D2E/DX2 analytically  !
 ! D1    D(14,1,2,3)           -63.3803         calculate D2E/DX2 analytically  !
 ! D2    D(14,1,2,16)           58.7707         calculate D2E/DX2 analytically  !
 ! D3    D(14,1,2,17)          174.7474         calculate D2E/DX2 analytically  !
 ! D4    D(15,1,2,3)          -178.8274         calculate D2E/DX2 analytically  !
 ! D5    D(15,1,2,16)          -56.6764         calculate D2E/DX2 analytically  !
 ! D6    D(15,1,2,17)           59.3003         calculate D2E/DX2 analytically  !
 ! D7    D(1,2,3,4)            173.1074         calculate D2E/DX2 analytically  !
 ! D8    D(1,2,3,18)            55.7687         calculate D2E/DX2 analytically  !
 ! D9    D(1,2,3,19)           -62.536          calculate D2E/DX2 analytically  !
 ! D10   D(16,2,3,4)            50.9249         calculate D2E/DX2 analytically  !
 ! D11   D(16,2,3,18)          -66.4138         calculate D2E/DX2 analytically  !
 ! D12   D(16,2,3,19)          175.2815         calculate D2E/DX2 analytically  !
 ! D13   D(17,2,3,4)           -65.7323         calculate D2E/DX2 analytically  !
 ! D14   D(17,2,3,18)          176.929          calculate D2E/DX2 analytically  !
 ! D15   D(17,2,3,19)           58.6243         calculate D2E/DX2 analytically  !
 ! D16   D(2,3,4,5)             80.687          calculate D2E/DX2 analytically  !
 ! D17   D(18,3,4,5)          -160.2458         calculate D2E/DX2 analytically  !
 ! D18   D(19,3,4,5)           -44.2398         calculate D2E/DX2 analytically  !
 ! D19   D(3,4,5,6)            177.624          calculate D2E/DX2 analytically  !
 ! D20   D(3,4,5,20)            57.2718         calculate D2E/DX2 analytically  !
 ! D21   D(3,4,5,21)           -61.8723         calculate D2E/DX2 analytically  !
 ! D22   D(4,5,6,7)           -179.6774         calculate D2E/DX2 analytically  !
 ! D23   D(4,5,6,22)            59.6733         calculate D2E/DX2 analytically  !
 ! D24   D(4,5,6,23)           -58.2885         calculate D2E/DX2 analytically  !
 ! D25   D(20,5,6,7)           -59.0018         calculate D2E/DX2 analytically  !
 ! D26   D(20,5,6,22)         -179.6512         calculate D2E/DX2 analytically  !
 ! D27   D(20,5,6,23)           62.387          calculate D2E/DX2 analytically  !
 ! D28   D(21,5,6,7)            59.1091         calculate D2E/DX2 analytically  !
 ! D29   D(21,5,6,22)          -61.5402         calculate D2E/DX2 analytically  !
 ! D30   D(21,5,6,23)         -179.502          calculate D2E/DX2 analytically  !
 ! D31   D(5,6,7,8)           -179.2162         calculate D2E/DX2 analytically  !
 ! D32   D(22,6,7,8)           -58.8135         calculate D2E/DX2 analytically  !
 ! D33   D(23,6,7,8)            60.0668         calculate D2E/DX2 analytically  !
 ! D34   D(6,7,8,9)            -82.782          calculate D2E/DX2 analytically  !
 ! D35   D(6,7,8,24)           158.0883         calculate D2E/DX2 analytically  !
 ! D36   D(6,7,8,25)            42.9982         calculate D2E/DX2 analytically  !
 ! D37   D(7,8,9,10)          -177.9934         calculate D2E/DX2 analytically  !
 ! D38   D(7,8,9,26)            56.9596         calculate D2E/DX2 analytically  !
 ! D39   D(7,8,9,27)           -59.8505         calculate D2E/DX2 analytically  !
 ! D40   D(24,8,9,10)          -59.6179         calculate D2E/DX2 analytically  !
 ! D41   D(24,8,9,26)          175.3351         calculate D2E/DX2 analytically  !
 ! D42   D(24,8,9,27)           58.525          calculate D2E/DX2 analytically  !
 ! D43   D(25,8,9,10)           56.9189         calculate D2E/DX2 analytically  !
 ! D44   D(25,8,9,26)          -68.1281         calculate D2E/DX2 analytically  !
 ! D45   D(25,8,9,27)          175.0618         calculate D2E/DX2 analytically  !
 ! D46   D(8,9,10,11)          -86.4312         calculate D2E/DX2 analytically  !
 ! D47   D(26,9,10,11)          39.0894         calculate D2E/DX2 analytically  !
 ! D48   D(27,9,10,11)         154.708          calculate D2E/DX2 analytically  !
 ! D49   D(9,10,11,12)         -87.4849         calculate D2E/DX2 analytically  !
 ! D50   D(9,10,11,28)          36.8565         calculate D2E/DX2 analytically  !
 ! D51   D(9,10,11,29)         153.6333         calculate D2E/DX2 analytically  !
 ! D52   D(10,11,12,13)        179.693          calculate D2E/DX2 analytically  !
 ! D53   D(10,11,12,30)         57.3866         calculate D2E/DX2 analytically  !
 ! D54   D(10,11,12,31)        -58.8974         calculate D2E/DX2 analytically  !
 ! D55   D(28,11,12,13)         55.6502         calculate D2E/DX2 analytically  !
 ! D56   D(28,11,12,30)        -66.6562         calculate D2E/DX2 analytically  !
 ! D57   D(28,11,12,31)        177.0598         calculate D2E/DX2 analytically  !
 ! D58   D(29,11,12,13)        -62.8246         calculate D2E/DX2 analytically  !
 ! D59   D(29,11,12,30)        174.869          calculate D2E/DX2 analytically  !
 ! D60   D(29,11,12,31)         58.585          calculate D2E/DX2 analytically  !
 ! D61   D(11,12,13,32)        -65.9748         calculate D2E/DX2 analytically  !
 ! D62   D(11,12,13,33)        178.0969         calculate D2E/DX2 analytically  !
 ! D63   D(30,12,13,32)         56.963          calculate D2E/DX2 analytically  !
 ! D64   D(30,12,13,33)        -58.9653         calculate D2E/DX2 analytically  !
 ! D65   D(31,12,13,32)        172.8057         calculate D2E/DX2 analytically  !
 ! D66   D(31,12,13,33)         56.8773         calculate D2E/DX2 analytically  !
 --------------------------------------------------------------------------------
 Trust Radius=3.00D-01 FncErr=1.00D-07 GrdErr=1.00D-06 EigMax=2.50D+02 EigMin=1.00D-04
 Number of steps in this run=    165 maximum allowed number of steps=    198.
 GradGradGradGradGradGradGradGradGradGradGradGradGradGradGradGradGradGrad

                          Input orientation:                          
 ---------------------------------------------------------------------
 Center     Atomic      Atomic             Coordinates (Angstroms)
 Number     Number       Type             X           Y           Z
 ---------------------------------------------------------------------
      1          7           0        5.712716    1.779994   -2.099098
      2          6           0        4.271891    1.584591   -1.946236
      3          6           0        3.899660    1.088102   -0.542490
      4          8           0        2.482339    1.051316   -0.352011
      5          6           0        1.876502   -0.112104   -0.915507
      6          6           0        0.381316   -0.092057   -0.612343
      7          8           0       -0.228761   -1.256688   -1.166812
      8          6           0       -1.638052   -1.306935   -0.942121
      9          6           0       -1.979891   -1.860743    0.443464
     10          8           0       -3.392280   -1.946926    0.633062
     11          6           0       -3.985994   -0.739431    1.117512
     12          6           0       -3.947501   -0.691220    2.651132
     13          7           0       -4.540714    0.534990    3.181221
     14          1           0        6.025892    2.511782   -1.461424
     15          1           0        5.903769    2.127340   -3.038801
     16          1           0        3.747166    2.523560   -2.156342
     17          1           0        3.932730    0.866046   -2.699182
     18          1           0        4.292595    1.788286    0.203673
     19          1           0        4.342340    0.107160   -0.330932
     20          1           0        2.326614   -1.016551   -0.489046
     21          1           0        2.029193   -0.140522   -1.999541
     22          1           0       -0.069516    0.809292   -1.044246
     23          1           0        0.227869   -0.054663    0.471519
     24          1           0       -2.065754   -1.973123   -1.700062
     25          1           0       -2.093251   -0.325127   -1.114951
     26          1           0       -1.508997   -1.281066    1.243898
     27          1           0       -1.574441   -2.875446    0.525387
     28          1           0       -3.501919    0.139638    0.676278
     29          1           0       -5.029546   -0.740840    0.782935
     30          1           0       -2.917126   -0.780703    3.011141
     31          1           0       -4.486041   -1.558359    3.050328
     32          1           0       -3.974466    1.338463    2.911425
     33          1           0       -4.518341    0.501945    4.200254
 ---------------------------------------------------------------------
                    Distance matrix (angstroms):
                    1          2          3          4          5
     1  N    0.000000
     2  C    1.462028   0.000000
     3  C    2.487753   1.534784   0.000000
     4  O    3.744145   2.455287   1.430536   0.000000
     5  C    4.438182   3.111120   2.381765   1.427625   0.000000
     6  C    5.842846   4.441509   3.711658   2.406112   1.525744
     7  O    6.737340   5.379242   4.788703   3.652512   2.409432
     8  C    8.056148   6.655569   6.046665   4.784057   3.712199
     9  C    8.882330   7.527667   6.651083   5.387426   4.447056
    10  O   10.210563   8.824053   7.985343   6.668656   5.790053
    11  C   10.524213   9.109352   8.263112   6.870633   6.236631
    12  C   11.044971   9.688835   8.656971   7.307404   6.853854
    13  N   11.600200  10.249609   9.241854   7.878680   7.640849
    14  H    1.019912   2.042362   2.718854   3.990053   4.939660
    15  H    1.019898   2.037474   3.365715   4.481390   5.073694
    16  H    2.102273   1.095967   2.165251   2.650076   3.462049
    17  H    2.088959   1.094653   2.168346   2.765352   2.892464
    18  H    2.705470   2.159636   1.096090   2.031978   3.271322
    19  H    2.793334   2.190199   1.096800   2.086019   2.543650
    20  H    4.677459   3.559979   2.628098   2.078245   1.096583
    21  H    4.155315   2.829939   2.670424   2.083308   1.095103
    22  H    5.957280   4.501388   4.010468   2.655133   2.156973
    23  H    6.329107   4.988668   3.976956   2.642731   2.155257
    24  H    8.645792   7.272117   6.804208   5.625800   4.429482
    25  H    8.144520   6.697246   6.183843   4.838667   3.980465
    26  H    8.526362   7.197751   6.169093   4.890572   4.182237
    27  H    9.036797   7.757606   6.842211   5.713733   4.649865
    28  H    9.762325   8.330522   7.560976   6.140023   5.614675
    29  H   11.404250   9.968587   9.210455   7.805660   7.139574
    30  H   10.351129   9.047218   7.911339   6.619766   6.232532
    31  H   11.902766  10.561494   9.499056   8.181970   7.635539
    32  H   10.915209   9.573915   8.601980   7.240359   7.140265
    33  H   12.082623  10.780522   9.679873   8.368659   8.212313
                    6          7          8          9         10
     6  C    0.000000
     7  O    1.426882   0.000000
     8  C    2.379606   1.427974   0.000000
     9  C    3.133412   2.454450   1.530818   0.000000
    10  O    4.385385   3.704569   2.442971   1.427662   0.000000
    11  C    4.741823   4.427469   3.174426   2.395021   1.430115
    12  C    5.454166   5.359616   4.315569   3.180105   2.440835
    13  N    6.245854   6.380316   5.368435   4.448895   3.737903
    14  H    6.273927   7.308136   8.578363   9.318805  10.628684
    15  H    6.427357   7.250098   8.548063   9.496477  10.793459
    16  H    4.533689   5.574715   6.719196   7.666830   8.873428
    17  H    4.229114   4.916520   6.232393   7.229847   8.524813
    18  H    4.415844   5.620743   6.787179   7.260646   8.555319
    19  H    3.976002   4.842906   6.175621   6.666553   8.060577
    20  H    2.157331   2.654613   4.001022   4.486448   5.901735
    21  H    2.154568   2.652851   3.990907   5.000019   6.291746
    22  H    1.096458   2.075730   2.636124   3.604428   4.631507
    23  H    1.095309   2.082667   2.654849   2.852527   4.088060
    24  H    3.272566   2.042591   1.095997   2.148187   2.683994
    25  H    2.535827   2.084903   1.095912   2.190805   2.715374
    26  H    2.903903   2.729674   2.189978   1.094742   2.088839
    27  H    3.587014   2.700883   2.148919   1.095775   2.044085
    28  H    4.098017   4.007527   2.861082   2.524340   2.089889
    29  H    5.625401   5.207220   3.846884   3.266468   2.039054
    30  H    4.948089   4.990907   4.188225   2.939023   2.690930
    31  H    6.265490   5.999975   4.910591   3.628768   2.681505
    32  H    5.782401   6.115319   5.225589   4.506005   4.040255
    33  H    6.893517   7.092156   6.165399   5.112679   4.471000
                   11         12         13         14         15
    11  C    0.000000
    12  C    1.534861   0.000000
    13  N    2.488124   1.461673   0.000000
    14  H   10.837858  11.253485  11.709612   0.000000
    15  H   11.104086  11.720374  12.260159   1.628136   0.000000
    16  H    9.009273   9.625723  10.056488   2.382360   2.363611
    17  H    8.935933   9.651372  10.319302   2.936293   2.364572
    18  H    8.703992   8.946351   9.405524   2.510043   3.636548
    19  H    8.495637   8.845993   9.561742   3.145563   3.721793
    20  H    6.519727   7.023609   7.939668   5.203779   5.401976
    21  H    6.801263   7.592951   8.394063   4.826789   4.608211
    22  H    4.733977   5.562924   6.158037   6.342437   6.433944
    23  H    4.317737   4.752856   5.516300   6.628724   7.021348
    24  H    3.626022   4.910920   6.020214   9.254516   9.061972
    25  H    2.956013   4.213746   5.018662   8.607472   8.583014
    26  H    2.538672   2.876549   4.030210   8.858838   9.214545
    27  H    3.275478   3.862777   5.242452   9.525477   9.677548
    28  H    1.096256   2.188360   2.740463  10.048683  10.306297
    29  H    1.095876   2.159500   2.760158  11.740502  11.931869
    30  H    2.174859   1.095120   2.096668  10.527196  11.084525
    31  H    2.157885   1.096044   2.098150  12.141774  12.594047
    32  H    2.745160   2.046483   1.019311  10.977506  11.558851
    33  H    3.365666   2.036978   1.019815  12.135687  12.793210
                   16         17         18         19         20
    16  H    0.000000
    17  H    1.753984   0.000000
    18  H    2.531362   3.067017   0.000000
    19  H    3.086315   2.520375   1.764784   0.000000
    20  H    4.162960   3.317903   3.494575   2.313196   0.000000
    21  H    3.173855   2.264096   3.701005   2.862909   1.771294
    22  H    4.329265   4.331283   4.641524   4.523967   3.063232
    23  H    5.092970   4.962564   4.471040   4.195115   2.500529
    24  H    7.363314   6.711255   7.628959   6.875010   4.655587
    25  H    6.581033   6.343590   6.854510   6.497568   4.517193
    26  H    7.325576   7.054811   6.645408   6.216542   4.217223
    27  H    8.041172   7.397671   7.501733   6.681131   4.438783
    28  H    8.139783   8.197281   7.980968   7.908725   6.055291
    29  H    9.814598   9.748313   9.676483   9.475866   7.470410
    30  H    9.057252   9.068632   8.152401   8.040994   6.309020
    31  H   10.562063  10.479041   9.816716   9.599332   7.696297
    32  H    9.311838   9.706999   8.710829   9.011007   7.537433
    33  H   10.621293  10.915832   9.760119   9.959878   8.434973
                   21         22         23         24         25
    21  H    0.000000
    22  H    2.493856   0.000000
    23  H    3.059130   1.769858   0.000000
    24  H    4.496299   3.486674   3.695532   0.000000
    25  H    4.220323   2.321079   2.824471   1.749000   0.000000
    26  H    4.933510   3.417207   2.262153   3.075032   2.611387
    27  H    5.180854   4.278533   3.347841   2.451162   3.076362
    28  H    6.150748   3.897439   3.740454   3.489028   2.325694
    29  H    7.611067   5.508483   5.311141   4.058060   3.520882
    30  H    7.069853   5.204145   4.107043   4.933774   4.232133
    31  H    8.364192   6.471244   5.579633   5.347524   4.959421
    32  H    7.896132   5.583546   5.055053   5.989624   4.745335
    33  H    9.039935   6.884133   6.061336   6.852362   5.900552
                   26         27         28         29         30
    26  H    0.000000
    27  H    1.750025   0.000000
    28  H    2.512436   3.581713   0.000000
    29  H    3.591462   4.069474   1.766425   0.000000
    30  H    2.314376   3.517061   2.576935   3.070636   0.000000
    31  H    3.493261   4.072770   3.080228   2.470790   1.751508
    32  H    3.964987   5.404658   2.579993   3.157082   2.370396
    33  H    4.579882   5.794649   3.685484   3.672045   2.371301
                   31         32         33
    31  H    0.000000
    32  H    2.944925   0.000000
    33  H    2.359709   1.629922   0.000000
 Stoichiometry    C8H20N2O3
 Framework group  C1[X(C8H20N2O3)]
 Deg. of freedom    93
 Full point group                 C1      NOp   1
 Largest Abelian subgroup         C1      NOp   1
 Largest concise Abelian subgroup C1      NOp   1
                         Standard orientation:                         
 ---------------------------------------------------------------------
 Center     Atomic      Atomic             Coordinates (Angstroms)
 Number     Number       Type             X           Y           Z
 ---------------------------------------------------------------------
      1          7           0        6.404519    0.434654   -0.079116
      2          6           0        5.004809    0.267846   -0.467074
      3          6           0        4.041032    0.862236    0.568974
      4          8           0        2.686739    0.836372    0.108914
      5          6           0        2.067761   -0.439114    0.276581
      6          6           0        0.616003   -0.353221   -0.184843
      7          8           0       -0.010362   -1.623653   -0.012613
      8          6           0       -1.373068   -1.634390   -0.439258
      9          6           0       -2.316581   -1.090479    0.636543
     10          8           0       -3.677921   -1.151513    0.210812
     11          6           0       -4.099901   -0.012549   -0.544121
     12          6           0       -4.610789    1.097294    0.384879
     13          7           0       -5.044421    2.281476   -0.354149
     14          1           0        6.629832    1.428556   -0.038944
     15          1           0        7.000933    0.041925   -0.807297
     16          1           0        4.833058    0.737401   -1.442350
     17          1           0        4.801133   -0.799685   -0.598070
     18          1           0        4.291206    1.917052    0.730808
     19          1           0        4.128340    0.356244    1.538159
     20          1           0        2.101985   -0.739956    1.330534
     21          1           0        2.592234   -1.202717   -0.307449
     22          1           0        0.582367   -0.058447   -1.240399
     23          1           0        0.093057    0.416554    0.392804
     24          1           0       -1.642147   -2.676600   -0.645667
     25          1           0       -1.485511   -1.101887   -1.390479
     26          1           0       -2.044723   -0.075842    0.944871
     27          1           0       -2.223781   -1.714515    1.532473
     28          1           0       -3.293582    0.347596   -1.193677
     29          1           0       -4.918433   -0.345307   -1.192365
     30          1           0       -3.835086    1.382161    1.103505
     31          1           0       -5.448032    0.711111    0.977499
     32          1           0       -4.244448    2.715580   -0.813053
     33          1           0       -5.402329    2.972489    0.304961
 ---------------------------------------------------------------------
 Rotational constants (GHZ):           1.6399635           0.1849535           0.1711769
 Standard basis: 6-31G(d,p) (6D, 7F)
 There are   295 symmetry adapted cartesian basis functions of A   symmetry.
 There are   295 symmetry adapted basis functions of A   symmetry.
   295 basis functions,   504 primitive gaussians,   295 cartesian basis functions
    53 alpha electrons       53 beta electrons
       nuclear repulsion energy       812.1521513489 Hartrees.
 NAtoms=   33 NActive=   33 NUniq=   33 SFac= 1.00D+00 NAtFMM=   60 NAOKFM=F Big=F
 Integral buffers will be    131072 words long.
 Raffenetti 2 integral format.
 Two-electron integral symmetry is turned on.
 Force inversion solution in PCM.
 ------------------------------------------------------------------------------
 Polarizable Continuum Model (PCM)
 =================================
 Model                : PCM.
 Atomic radii         : UFF (Universal Force Field).
 Polarization charges : Total charges.
 Charge compensation  : None.
 Solution method      : Matrix inversion.
 Cavity type          : Scaled VdW (van der Waals Surface) (Alpha=1.100).
 Cavity algorithm     : GePol (No added spheres)
                        Default sphere list used, NSphG=   33.
                        Lebedev-Laikov grids with approx.  5.0 points / Ang**2.
                        Smoothing algorithm: York/Karplus (Gamma=1.0000).
                        Polarization charges: spherical gaussians, with
                                              point-specific exponents (IZeta= 3).
                        Self-potential: point-specific (ISelfS= 7).
                        Self-field    : sphere-specific E.n sum rule (ISelfD= 2).
 1st derivatives      : Analytical E(r).r(x)/FMM algorithm (CHGder, D1EAlg=3).
                        Cavity 1st derivative terms included.
 2nd derivatives      : Analytical E(r).r(xy)/FMM algorithm (CHGder, D2EAlg=3).
                        Cavity 2nd derivative terms included.
 Solvent              : Water, Eps=  78.355300 Eps(inf)=   1.777849
 ------------------------------------------------------------------------------
 One-electron integrals computed using PRISM.
 NBasis=   295 RedAO= T EigKep=  3.01D-03  NBF=   295
 NBsUse=   295 1.00D-06 EigRej= -1.00D+00 NBFU=   295
 ExpMin= 1.61D-01 ExpMax= 5.48D+03 ExpMxC= 8.25D+02 IAcc=3 IRadAn=         5 AccDes= 0.00D+00
 Harris functional with IExCor=  402 and IRadAn=       5 diagonalized for initial guess.
 HarFok:  IExCor=  402 AccDes= 0.00D+00 IRadAn=         5 IDoV= 1 UseB2=F ITyADJ=14
 ICtDFT=  3500011 ScaDFX=  1.000000  1.000000  1.000000  1.000000
 FoFCou: FMM=F IPFlag=           0 FMFlag=      100000 FMFlg1=           0
         NFxFlg=           0 DoJE=T BraDBF=F KetDBF=T FulRan=T
         wScrn=  0.000000 ICntrl=       500 IOpCl=  0 I1Cent=   200000004 NGrid=           0
         NMat0=    1 NMatS0=      1 NMatT0=    0 NMatD0=    1 NMtDS0=    0 NMtDT0=    0
 Petite list used in FoFCou.
 Requested convergence on RMS density matrix=1.00D-08 within  32 cycles.
 Requested convergence on MAX density matrix=1.00D-06.
 Requested convergence on             energy=1.00D-06.
 No special actions if energy rises.
 Inv3:  Mode=1 IEnd=    17323227.
 Iteration    1 A*A^-1 deviation from unit magnitude is 3.11D-15 for    243.
 Iteration    1 A*A^-1 deviation from orthogonality  is 1.80D-15 for   1811    897.
 Iteration    1 A^-1*A deviation from unit magnitude is 2.89D-15 for    263.
 Iteration    1 A^-1*A deviation from orthogonality  is 2.91D-15 for   2122    766.
 Error on total polarization charges =  0.00984
 SCF Done:  E(RB3LYP) =  -652.038665277     A.U. after   11 cycles
            NFock= 11  Conv=0.70D-08     -V/T= 2.0092
 QCSCF skips out because SCF is already converged.
 DoSCS=F DFT=T ScalE2(SS,OS)=  1.000000  1.000000
 Range of M.O.s used for correlation:     1   295
 NBasis=   295 NAE=    53 NBE=    53 NFC=     0 NFV=     0
 NROrb=    295 NOA=    53 NOB=    53 NVA=   242 NVB=   242
 Symmetrizing basis deriv contribution to polar:
 IMax=3 JMax=2 DiffMx= 0.00D+00
 G2DrvN: will do    34 centers at a time, making    1 passes.
 Calling FoFCou, ICntrl=  3107 FMM=F I1Cent=   0 AccDes= 0.00D+00.
 NEqPCM:  Using equilibrium solvation (IEInf=0, Eps=  78.3553, EpsInf=   1.7778)
 G2PCM: DoFxE=T DoFxN=T DoGrad=T DoDP/DQ/DG/TGxP=FFFF NFrqRd=   0 IEInf=0 SqF1=F DoCFld=F IF1Alg=4.
 End of G2Drv F.D. properties file   721 does not exist.
 End of G2Drv F.D. properties file   722 does not exist.
 End of G2Drv F.D. properties file   788 does not exist.
          IDoAtm=111111111111111111111111111111111
 NEqPCM:  Using equilibrium solvation (IEInf=0, Eps=  78.3553, EpsInf=   1.7778)
          Differentiating once with respect to nuclear coordinates.
 Keep R1 ints in memory in canonical form, NReq=967221326.
          There are   102 degrees of freedom in the 1st order CPHF.  IDoFFX=6 NUNeed=     0.
     96 vectors produced by pass  0 Test12= 1.28D-14 1.00D-09 XBig12= 9.31D-02 5.09D-02.
 AX will form    96 AO Fock derivatives at one time.
     96 vectors produced by pass  1 Test12= 1.28D-14 1.00D-09 XBig12= 6.68D-03 1.10D-02.
     96 vectors produced by pass  2 Test12= 1.28D-14 1.00D-09 XBig12= 9.89D-05 1.11D-03.
     96 vectors produced by pass  3 Test12= 1.28D-14 1.00D-09 XBig12= 2.22D-07 5.30D-05.
     96 vectors produced by pass  4 Test12= 1.28D-14 1.00D-09 XBig12= 2.36D-10 1.57D-06.
     44 vectors produced by pass  5 Test12= 1.28D-14 1.00D-09 XBig12= 1.61D-13 3.45D-08.
      1 vectors produced by pass  6 Test12= 1.28D-14 1.00D-09 XBig12= 1.02D-16 1.16D-09.
 InvSVY:  IOpt=1 It=  1 EMax= 5.00D-16
 Solved reduced A of dimension   525 with   102 vectors.
 End of Minotr F.D. properties file   721 does not exist.
 End of Minotr F.D. properties file   722 does not exist.
 End of Minotr F.D. properties file   788 does not exist.

 **********************************************************************

            Population analysis using the SCF density.

 **********************************************************************

 Orbital symmetries:
       Occupied  (A) (A) (A) (A) (A) (A) (A) (A) (A) (A) (A) (A)
                 (A) (A) (A) (A) (A) (A) (A) (A) (A) (A) (A) (A)
                 (A) (A) (A) (A) (A) (A) (A) (A) (A) (A) (A) (A)
                 (A) (A) (A) (A) (A) (A) (A) (A) (A) (A) (A) (A)
                 (A) (A) (A) (A) (A)
       Virtual   (A) (A) (A) (A) (A) (A) (A) (A) (A) (A) (A) (A)
                 (A) (A) (A) (A) (A) (A) (A) (A) (A) (A) (A) (A)
                 (A) (A) (A) (A) (A) (A) (A) (A) (A) (A) (A) (A)
                 (A) (A) (A) (A) (A) (A) (A) (A) (A) (A) (A) (A)
                 (A) (A) (A) (A) (A) (A) (A) (A) (A) (A) (A) (A)
                 (A) (A) (A) (A) (A) (A) (A) (A) (A) (A) (A) (A)
                 (A) (A) (A) (A) (A) (A) (A) (A) (A) (A) (A) (A)
                 (A) (A) (A) (A) (A) (A) (A) (A) (A) (A) (A) (A)
                 (A) (A) (A) (A) (A) (A) (A) (A) (A) (A) (A) (A)
                 (A) (A) (A) (A) (A) (A) (A) (A) (A) (A) (A) (A)
                 (A) (A) (A) (A) (A) (A) (A) (A) (A) (A) (A) (A)
                 (A) (A) (A) (A) (A) (A) (A) (A) (A) (A) (A) (A)
                 (A) (A) (A) (A) (A) (A) (A) (A) (A) (A) (A) (A)
                 (A) (A) (A) (A) (A) (A) (A) (A) (A) (A) (A) (A)
                 (A) (A) (A) (A) (A) (A) (A) (A) (A) (A) (A) (A)
                 (A) (A) (A) (A) (A) (A) (A) (A) (A) (A) (A) (A)
                 (A) (A) (A) (A) (A) (A) (A) (A) (A) (A) (A) (A)
                 (A) (A) (A) (A) (A) (A) (A) (A) (A) (A) (A) (A)
                 (A) (A) (A) (A) (A) (A) (A) (A) (A) (A) (A) (A)
                 (A) (A) (A) (A) (A) (A) (A) (A) (A) (A) (A) (A)
                 (A) (A)
 The electronic state is 1-A.
 Alpha  occ. eigenvalues --  -19.15632 -19.15347 -19.15288 -14.31166 -14.31120
 Alpha  occ. eigenvalues --  -10.23308 -10.23222 -10.23135 -10.23071 -10.23022
 Alpha  occ. eigenvalues --  -10.22980 -10.20381 -10.20341  -1.03812  -1.03013
 Alpha  occ. eigenvalues --   -1.02503  -0.87765  -0.87708  -0.77473  -0.74501
 Alpha  occ. eigenvalues --   -0.71089  -0.68679  -0.63684  -0.61488  -0.59503
 Alpha  occ. eigenvalues --   -0.58565  -0.51252  -0.50231  -0.49746  -0.49100
 Alpha  occ. eigenvalues --   -0.48332  -0.47688  -0.46267  -0.45247  -0.44391
 Alpha  occ. eigenvalues --   -0.43599  -0.42195  -0.41592  -0.40790  -0.39610
 Alpha  occ. eigenvalues --   -0.38502  -0.37591  -0.36743  -0.35515  -0.34782
 Alpha  occ. eigenvalues --   -0.32274  -0.31534  -0.30999  -0.27970  -0.25841
 Alpha  occ. eigenvalues --   -0.24713  -0.23559  -0.23259
 Alpha virt. eigenvalues --    0.07109   0.08074   0.08813   0.08862   0.09898
 Alpha virt. eigenvalues --    0.11854   0.12514   0.12902   0.13851   0.14578
 Alpha virt. eigenvalues --    0.14804   0.15846   0.16182   0.17470   0.17657
 Alpha virt. eigenvalues --    0.18054   0.18279   0.18900   0.19733   0.20525
 Alpha virt. eigenvalues --    0.21623   0.22127   0.22977   0.23436   0.24646
 Alpha virt. eigenvalues --    0.25481   0.25743   0.26590   0.27043   0.27073
 Alpha virt. eigenvalues --    0.28636   0.29111   0.49113   0.50608   0.52285
 Alpha virt. eigenvalues --    0.52585   0.53352   0.54073   0.54514   0.55685
 Alpha virt. eigenvalues --    0.56424   0.57125   0.58372   0.59003   0.59940
 Alpha virt. eigenvalues --    0.61075   0.62148   0.64987   0.65983   0.66364
 Alpha virt. eigenvalues --    0.67799   0.68329   0.71797   0.72305   0.73875
 Alpha virt. eigenvalues --    0.74447   0.75016   0.76301   0.76976   0.78962
 Alpha virt. eigenvalues --    0.79868   0.80262   0.81991   0.82676   0.83621
 Alpha virt. eigenvalues --    0.83677   0.84202   0.85910   0.87052   0.88151
 Alpha virt. eigenvalues --    0.88474   0.88704   0.89288   0.90431   0.91711
 Alpha virt. eigenvalues --    0.92104   0.92975   0.94733   0.95138   0.96964
 Alpha virt. eigenvalues --    0.97638   0.98820   0.99977   1.02693   1.03368
 Alpha virt. eigenvalues --    1.04243   1.09164   1.10881   1.13188   1.14494
 Alpha virt. eigenvalues --    1.16892   1.20663   1.21609   1.27387   1.27720
 Alpha virt. eigenvalues --    1.29916   1.31941   1.33428   1.34233   1.35969
 Alpha virt. eigenvalues --    1.36557   1.38781   1.40282   1.43123   1.52060
 Alpha virt. eigenvalues --    1.52659   1.56685   1.56998   1.58546   1.59658
 Alpha virt. eigenvalues --    1.60584   1.63128   1.64695   1.66404   1.67718
 Alpha virt. eigenvalues --    1.68424   1.71660   1.74016   1.76963   1.78919
 Alpha virt. eigenvalues --    1.79499   1.83382   1.83908   1.84873   1.84979
 Alpha virt. eigenvalues --    1.87068   1.88393   1.89164   1.91763   1.91971
 Alpha virt. eigenvalues --    1.92514   1.96509   1.96920   1.97132   1.98350
 Alpha virt. eigenvalues --    1.98854   2.00089   2.01632   2.01704   2.03546
 Alpha virt. eigenvalues --    2.05467   2.07022   2.07712   2.09077   2.09238
 Alpha virt. eigenvalues --    2.10439   2.12454   2.13079   2.16142   2.17878
 Alpha virt. eigenvalues --    2.19310   2.21984   2.22528   2.24174   2.24709
 Alpha virt. eigenvalues --    2.24751   2.26039   2.26489   2.26870   2.27620
 Alpha virt. eigenvalues --    2.30879   2.31654   2.33854   2.35933   2.36534
 Alpha virt. eigenvalues --    2.36989   2.38671   2.38846   2.41281   2.44286
 Alpha virt. eigenvalues --    2.45699   2.49961   2.51479   2.56330   2.58170
 Alpha virt. eigenvalues --    2.58467   2.60520   2.62557   2.62781   2.65599
 Alpha virt. eigenvalues --    2.66720   2.67761   2.68326   2.70372   2.71408
 Alpha virt. eigenvalues --    2.72222   2.72807   2.76148   2.76416   2.77988
 Alpha virt. eigenvalues --    2.80352   2.80684   2.82709   2.83989   2.86005
 Alpha virt. eigenvalues --    2.86903   2.87610   2.88533   2.89446   2.92515
 Alpha virt. eigenvalues --    2.93311   2.94877   2.95713   2.97187   2.98132
 Alpha virt. eigenvalues --    2.98671   3.01234   3.03795   3.05422   3.21760
 Alpha virt. eigenvalues --    3.24023   3.26115   3.27043   3.29306   3.30587
 Alpha virt. eigenvalues --    3.33216   3.33892   3.34488   3.35386   3.38729
 Alpha virt. eigenvalues --    3.40768   3.41581   3.43226   3.50151   3.50916
 Alpha virt. eigenvalues --    3.53702   3.54893   3.56564   3.56773   3.83730
 Alpha virt. eigenvalues --    3.91530   3.99765   4.09159   4.18994   4.34021
 Alpha virt. eigenvalues --    4.35962   4.37552   4.37984   4.57380   4.64727
 Alpha virt. eigenvalues --    4.65645   4.68420
          Condensed to atoms (all electrons):
               1          2          3          4          5          6
     1  N    6.824018   0.260496  -0.040399   0.001881   0.000110  -0.000001
     2  C    0.260496   4.896266   0.352421  -0.040981  -0.006394   0.000049
     3  C   -0.040399   0.352421   4.755377   0.236945  -0.031939   0.003866
     4  O    0.001881  -0.040981   0.236945   8.262864   0.223608  -0.034198
     5  C    0.000110  -0.006394  -0.031939   0.223608   4.766556   0.376090
     6  C   -0.000001   0.000049   0.003866  -0.034198   0.376090   4.770636
     7  O   -0.000000   0.000001  -0.000035   0.000837  -0.033882   0.221888
     8  C    0.000000   0.000000   0.000001  -0.000032   0.003549  -0.032258
     9  C    0.000000  -0.000000   0.000000   0.000001   0.000076  -0.006680
    10  O    0.000000   0.000000   0.000000  -0.000000  -0.000000   0.000062
    11  C   -0.000000   0.000000  -0.000000  -0.000000   0.000000   0.000020
    12  C    0.000000  -0.000000   0.000000  -0.000000   0.000000  -0.000002
    13  N    0.000000  -0.000000  -0.000000   0.000000  -0.000000   0.000000
    14  H    0.342842  -0.040582  -0.005353  -0.000016   0.000008   0.000000
    15  H    0.339377  -0.027798   0.004629  -0.000087  -0.000007  -0.000000
    16  H   -0.048338   0.382122  -0.048238   0.005175   0.000067  -0.000064
    17  H   -0.037537   0.384666  -0.030765  -0.000481   0.001398  -0.000093
    18  H   -0.000592  -0.048353   0.389780  -0.033584   0.005127  -0.000219
    19  H    0.008364  -0.049507   0.362063  -0.030922  -0.010844   0.000061
    20  H    0.000037  -0.001254  -0.010231  -0.036699   0.365275  -0.036178
    21  H   -0.000300   0.003530  -0.000809  -0.040983   0.363182  -0.038614
    22  H    0.000000  -0.000026  -0.000126   0.004690  -0.035715   0.365833
    23  H   -0.000000   0.000012   0.000016   0.005571  -0.038333   0.362043
    24  H   -0.000000   0.000000  -0.000000   0.000000  -0.000211   0.005168
    25  H   -0.000000  -0.000000   0.000000   0.000003   0.000085  -0.010484
    26  H    0.000000  -0.000000  -0.000000  -0.000002  -0.000114   0.002168
    27  H    0.000000  -0.000000   0.000000   0.000000  -0.000024  -0.000013
    28  H    0.000000  -0.000000   0.000000   0.000000  -0.000000  -0.000015
    29  H   -0.000000   0.000000  -0.000000  -0.000000  -0.000000  -0.000001
    30  H   -0.000000   0.000000   0.000000   0.000000  -0.000000  -0.000008
    31  H   -0.000000  -0.000000  -0.000000   0.000000   0.000000   0.000000
    32  H   -0.000000  -0.000000  -0.000000   0.000000   0.000000   0.000000
    33  H    0.000000  -0.000000   0.000000  -0.000000   0.000000   0.000000
               7          8          9         10         11         12
     1  N   -0.000000   0.000000   0.000000   0.000000  -0.000000   0.000000
     2  C    0.000001   0.000000  -0.000000   0.000000   0.000000  -0.000000
     3  C   -0.000035   0.000001   0.000000   0.000000  -0.000000   0.000000
     4  O    0.000837  -0.000032   0.000001  -0.000000  -0.000000  -0.000000
     5  C   -0.033882   0.003549   0.000076  -0.000000   0.000000   0.000000
     6  C    0.221888  -0.032258  -0.006680   0.000062   0.000020  -0.000002
     7  O    8.272895   0.215087  -0.034449   0.001428   0.000121   0.000000
     8  C    0.215087   4.826477   0.332802  -0.033780  -0.008866   0.000104
     9  C   -0.034449   0.332802   4.841679   0.215294  -0.036410  -0.008972
    10  O    0.001428  -0.033780   0.215294   8.255685   0.229198  -0.038780
    11  C    0.000121  -0.008866  -0.036410   0.229198   4.778123   0.355071
    12  C    0.000000   0.000104  -0.008972  -0.038780   0.355071   4.890874
    13  N   -0.000000   0.000002   0.000166   0.002060  -0.042433   0.255531
    14  H    0.000000   0.000000  -0.000000  -0.000000  -0.000000   0.000000
    15  H    0.000000  -0.000000  -0.000000  -0.000000   0.000000  -0.000000
    16  H    0.000000   0.000000  -0.000000   0.000000  -0.000000   0.000000
    17  H   -0.000001  -0.000000  -0.000000   0.000000   0.000000  -0.000000
    18  H    0.000000  -0.000000  -0.000000  -0.000000  -0.000000   0.000000
    19  H    0.000003   0.000000  -0.000000  -0.000000  -0.000000   0.000000
    20  H    0.004683  -0.000169  -0.000009   0.000000  -0.000000   0.000000
    21  H    0.005342   0.000063   0.000005  -0.000000  -0.000000   0.000000
    22  H   -0.036745  -0.011003  -0.001001   0.000022  -0.000005   0.000001
    23  H   -0.041054   0.000477   0.002699  -0.000195  -0.000100   0.000006
    24  H   -0.031365   0.382247  -0.044842   0.005047   0.000075   0.000004
    25  H   -0.029164   0.372483  -0.050940   0.001835   0.002209   0.000081
    26  H    0.001639  -0.049715   0.370403  -0.030976  -0.004893   0.003681
    27  H    0.004744  -0.044961   0.383636  -0.031181   0.005355   0.000160
    28  H   -0.000233   0.002529  -0.003192  -0.034032   0.369918  -0.051630
    29  H   -0.000000   0.000274   0.005166  -0.031544   0.379573  -0.045374
    30  H    0.000000   0.000166   0.001460   0.001060  -0.049510   0.389156
    31  H   -0.000000   0.000001   0.000017   0.002717  -0.029856   0.379541
    32  H    0.000000  -0.000003   0.000032  -0.000057  -0.005308  -0.038402
    33  H    0.000000  -0.000000  -0.000010  -0.000088   0.004765  -0.027959
              13         14         15         16         17         18
     1  N    0.000000   0.342842   0.339377  -0.048338  -0.037537  -0.000592
     2  C   -0.000000  -0.040582  -0.027798   0.382122   0.384666  -0.048353
     3  C   -0.000000  -0.005353   0.004629  -0.048238  -0.030765   0.389780
     4  O    0.000000  -0.000016  -0.000087   0.005175  -0.000481  -0.033584
     5  C   -0.000000   0.000008  -0.000007   0.000067   0.001398   0.005127
     6  C    0.000000   0.000000  -0.000000  -0.000064  -0.000093  -0.000219
     7  O   -0.000000   0.000000   0.000000   0.000000  -0.000001   0.000000
     8  C    0.000002   0.000000  -0.000000   0.000000  -0.000000  -0.000000
     9  C    0.000166  -0.000000  -0.000000  -0.000000  -0.000000  -0.000000
    10  O    0.002060  -0.000000  -0.000000   0.000000   0.000000  -0.000000
    11  C   -0.042433  -0.000000   0.000000  -0.000000   0.000000  -0.000000
    12  C    0.255531   0.000000  -0.000000   0.000000  -0.000000   0.000000
    13  N    6.828442   0.000000   0.000000  -0.000000   0.000000   0.000000
    14  H    0.000000   0.477128  -0.032728  -0.005670   0.006460   0.005423
    15  H    0.000000  -0.032728   0.466579  -0.003721  -0.004284  -0.000152
    16  H   -0.000000  -0.005670  -0.003721   0.675078  -0.049517  -0.007248
    17  H    0.000000   0.006460  -0.004284  -0.049517   0.620303   0.005661
    18  H    0.000000   0.005423  -0.000152  -0.007248   0.005661   0.618277
    19  H   -0.000000  -0.000573  -0.000230   0.007059  -0.007931  -0.040679
    20  H    0.000000   0.000002  -0.000001   0.000118   0.000301   0.000292
    21  H    0.000000  -0.000006   0.000024   0.000029   0.000841  -0.000286
    22  H   -0.000000   0.000000  -0.000000   0.000024   0.000029   0.000014
    23  H    0.000000  -0.000000   0.000000   0.000002  -0.000005  -0.000012
    24  H   -0.000000   0.000000   0.000000   0.000000   0.000000   0.000000
    25  H   -0.000001  -0.000000   0.000000  -0.000000   0.000000   0.000000
    26  H   -0.000409   0.000000  -0.000000   0.000000   0.000000   0.000000
    27  H   -0.000002  -0.000000  -0.000000   0.000000   0.000000   0.000000
    28  H    0.001535   0.000000   0.000000   0.000000   0.000000   0.000000
    29  H    0.007738  -0.000000   0.000000   0.000000   0.000000  -0.000000
    30  H   -0.048238  -0.000000   0.000000  -0.000000  -0.000000  -0.000000
    31  H   -0.036808   0.000000   0.000000  -0.000000   0.000000   0.000000
    32  H    0.342608   0.000000   0.000000  -0.000000   0.000000   0.000000
    33  H    0.338941  -0.000000   0.000000  -0.000000   0.000000  -0.000000
              19         20         21         22         23         24
     1  N    0.008364   0.000037  -0.000300   0.000000  -0.000000  -0.000000
     2  C   -0.049507  -0.001254   0.003530  -0.000026   0.000012   0.000000
     3  C    0.362063  -0.010231  -0.000809  -0.000126   0.000016  -0.000000
     4  O   -0.030922  -0.036699  -0.040983   0.004690   0.005571   0.000000
     5  C   -0.010844   0.365275   0.363182  -0.035715  -0.038333  -0.000211
     6  C    0.000061  -0.036178  -0.038614   0.365833   0.362043   0.005168
     7  O    0.000003   0.004683   0.005342  -0.036745  -0.041054  -0.031365
     8  C    0.000000  -0.000169   0.000063  -0.011003   0.000477   0.382247
     9  C   -0.000000  -0.000009   0.000005  -0.001001   0.002699  -0.044842
    10  O   -0.000000   0.000000  -0.000000   0.000022  -0.000195   0.005047
    11  C   -0.000000  -0.000000  -0.000000  -0.000005  -0.000100   0.000075
    12  C    0.000000   0.000000   0.000000   0.000001   0.000006   0.000004
    13  N   -0.000000   0.000000   0.000000  -0.000000   0.000000  -0.000000
    14  H   -0.000573   0.000002  -0.000006   0.000000  -0.000000   0.000000
    15  H   -0.000230  -0.000001   0.000024  -0.000000   0.000000   0.000000
    16  H    0.007059   0.000118   0.000029   0.000024   0.000002   0.000000
    17  H   -0.007931   0.000301   0.000841   0.000029  -0.000005   0.000000
    18  H   -0.040679   0.000292  -0.000286   0.000014  -0.000012   0.000000
    19  H    0.651929   0.013401  -0.001832   0.000036  -0.000013   0.000000
    20  H    0.013401   0.661184  -0.058816   0.007263  -0.010411   0.000013
    21  H   -0.001832  -0.058816   0.668415  -0.010503   0.007549  -0.000009
    22  H    0.000036   0.007263  -0.010503   0.660234  -0.058585   0.000308
    23  H   -0.000013  -0.010411   0.007549  -0.058585   0.667662  -0.000274
    24  H    0.000000   0.000013  -0.000009   0.000308  -0.000274   0.614919
    25  H   -0.000000   0.000036  -0.000014   0.012650  -0.001930  -0.040863
    26  H    0.000000   0.000044  -0.000006   0.000258   0.001399   0.006053
    27  H   -0.000000   0.000010   0.000002   0.000068  -0.000082  -0.008668
    28  H    0.000000   0.000000   0.000000   0.000013   0.000251   0.000015
    29  H   -0.000000   0.000000  -0.000000   0.000000  -0.000001  -0.000033
    30  H   -0.000000  -0.000000   0.000000   0.000000  -0.000020  -0.000004
    31  H    0.000000  -0.000000  -0.000000  -0.000000   0.000000   0.000002
    32  H    0.000000  -0.000000  -0.000000  -0.000000   0.000001   0.000000
    33  H   -0.000000   0.000000  -0.000000   0.000000  -0.000000   0.000000
              25         26         27         28         29         30
     1  N   -0.000000   0.000000   0.000000   0.000000  -0.000000  -0.000000
     2  C   -0.000000  -0.000000  -0.000000  -0.000000   0.000000   0.000000
     3  C    0.000000  -0.000000   0.000000   0.000000  -0.000000   0.000000
     4  O    0.000003  -0.000002   0.000000   0.000000  -0.000000   0.000000
     5  C    0.000085  -0.000114  -0.000024  -0.000000  -0.000000  -0.000000
     6  C   -0.010484   0.002168  -0.000013  -0.000015  -0.000001  -0.000008
     7  O   -0.029164   0.001639   0.004744  -0.000233  -0.000000   0.000000
     8  C    0.372483  -0.049715  -0.044961   0.002529   0.000274   0.000166
     9  C   -0.050940   0.370403   0.383636  -0.003192   0.005166   0.001460
    10  O    0.001835  -0.030976  -0.031181  -0.034032  -0.031544   0.001060
    11  C    0.002209  -0.004893   0.005355   0.369918   0.379573  -0.049510
    12  C    0.000081   0.003681   0.000160  -0.051630  -0.045374   0.389156
    13  N   -0.000001  -0.000409  -0.000002   0.001535   0.007738  -0.048238
    14  H   -0.000000   0.000000  -0.000000   0.000000  -0.000000  -0.000000
    15  H    0.000000  -0.000000  -0.000000   0.000000   0.000000   0.000000
    16  H   -0.000000   0.000000   0.000000   0.000000   0.000000  -0.000000
    17  H    0.000000   0.000000   0.000000   0.000000   0.000000  -0.000000
    18  H    0.000000   0.000000   0.000000   0.000000  -0.000000  -0.000000
    19  H   -0.000000   0.000000  -0.000000   0.000000  -0.000000  -0.000000
    20  H    0.000036   0.000044   0.000010   0.000000   0.000000  -0.000000
    21  H   -0.000014  -0.000006   0.000002   0.000000  -0.000000   0.000000
    22  H    0.012650   0.000258   0.000068   0.000013   0.000000   0.000000
    23  H   -0.001930   0.001399  -0.000082   0.000251  -0.000001  -0.000020
    24  H   -0.040863   0.006053  -0.008668   0.000015  -0.000033  -0.000004
    25  H    0.639562  -0.005891   0.006056   0.001852  -0.000148   0.000027
    26  H   -0.005891   0.639469  -0.041311   0.000351  -0.000106   0.003390
    27  H    0.006056  -0.041311   0.613181  -0.000151  -0.000279  -0.000180
    28  H    0.001852   0.000351  -0.000151   0.650620  -0.041075  -0.006786
    29  H   -0.000148  -0.000106  -0.000279  -0.041075   0.619589   0.006561
    30  H    0.000027   0.003390  -0.000180  -0.006786   0.006561   0.667000
    31  H   -0.000003   0.000019  -0.000043   0.006044  -0.008848  -0.048538
    32  H   -0.000006  -0.000015  -0.000001   0.004803  -0.000632  -0.005736
    33  H   -0.000000   0.000022  -0.000000  -0.000141  -0.000243  -0.003281
              31         32         33
     1  N   -0.000000  -0.000000   0.000000
     2  C   -0.000000  -0.000000  -0.000000
     3  C   -0.000000  -0.000000   0.000000
     4  O    0.000000   0.000000  -0.000000
     5  C    0.000000   0.000000   0.000000
     6  C    0.000000   0.000000   0.000000
     7  O   -0.000000   0.000000   0.000000
     8  C    0.000001  -0.000003  -0.000000
     9  C    0.000017   0.000032  -0.000010
    10  O    0.002717  -0.000057  -0.000088
    11  C   -0.029856  -0.005308   0.004765
    12  C    0.379541  -0.038402  -0.027959
    13  N   -0.036808   0.342608   0.338941
    14  H    0.000000   0.000000  -0.000000
    15  H    0.000000   0.000000   0.000000
    16  H   -0.000000  -0.000000  -0.000000
    17  H    0.000000   0.000000   0.000000
    18  H    0.000000   0.000000  -0.000000
    19  H    0.000000   0.000000  -0.000000
    20  H   -0.000000  -0.000000   0.000000
    21  H   -0.000000  -0.000000  -0.000000
    22  H   -0.000000  -0.000000   0.000000
    23  H    0.000000   0.000001  -0.000000
    24  H    0.000002   0.000000   0.000000
    25  H   -0.000003  -0.000006  -0.000000
    26  H    0.000019  -0.000015   0.000022
    27  H   -0.000043  -0.000001  -0.000000
    28  H    0.006044   0.004803  -0.000141
    29  H   -0.008848  -0.000632  -0.000243
    30  H   -0.048538  -0.005736  -0.003281
    31  H    0.623813   0.006376  -0.004556
    32  H    0.006376   0.474457  -0.032227
    33  H   -0.004556  -0.032227   0.466655
 Mulliken charges:
               1
     1  N   -0.649959
     2  C   -0.064669
     3  C    0.062796
     4  O   -0.523592
     5  C    0.052330
     6  C    0.050941
     7  O   -0.521741
     8  C    0.044524
     9  C    0.033070
    10  O   -0.513774
    11  C    0.052953
    12  C   -0.063090
    13  N   -0.649132
    14  H    0.253064
    15  H    0.258400
    16  H    0.093120
    17  H    0.110957
    18  H    0.106551
    19  H    0.099615
    20  H    0.101107
    21  H    0.103194
    22  H    0.102263
    23  H    0.103328
    24  H    0.112416
    25  H    0.102564
    26  H    0.104541
    27  H    0.113685
    28  H    0.099324
    29  H    0.109381
    30  H    0.093480
    31  H    0.110122
    32  H    0.254109
    33  H    0.258121
 Sum of Mulliken charges =  -0.00000
 Mulliken charges with hydrogens summed into heavy atoms:
               1
     1  N   -0.138495
     2  C    0.139408
     3  C    0.268963
     4  O   -0.523592
     5  C    0.256631
     6  C    0.256532
     7  O   -0.521741
     8  C    0.259504
     9  C    0.251296
    10  O   -0.513774
    11  C    0.261658
    12  C    0.140512
    13  N   -0.136902
 APT charges:
               1
     1  N   -2.009981
     2  C   -0.139523
     3  C   -0.745347
     4  O   -0.469574
     5  C   -0.506583
     6  C   -0.343332
     7  O   -0.440834
     8  C   -0.690609
     9  C   -0.323267
    10  O   -0.392451
    11  C   -0.583170
    12  C   -0.470299
    13  N   -1.097831
    14  H    0.727833
    15  H    1.029692
    16  H    0.364072
    17  H    0.163513
    18  H    0.562701
    19  H    0.331009
    20  H    0.328462
    21  H    0.436613
    22  H    0.291420
    23  H    0.205964
    24  H    0.587563
    25  H    0.257436
    26  H    0.102672
    27  H    0.433432
    28  H   -0.061046
    29  H    0.780559
    30  H    0.008291
    31  H    0.751517
    32  H   -0.024893
    33  H    0.935990
 Sum of APT charges =   0.00000
 APT charges with hydrogens summed into heavy atoms:
               1
     1  N   -0.252456
     2  C    0.388062
     3  C    0.148363
     4  O   -0.469574
     5  C    0.258492
     6  C    0.154052
     7  O   -0.440834
     8  C    0.154391
     9  C    0.212837
    10  O   -0.392451
    11  C    0.136343
    12  C    0.289509
    13  N   -0.186734
 Electronic spatial extent (au):  <R**2>=           6218.5637
 Charge=             -0.0000 electrons
 Dipole moment (field-independent basis, Debye):
    X=              2.0466    Y=              2.7530    Z=             -0.7477  Tot=              3.5110
 Quadrupole moment (field-independent basis, Debye-Ang):
   XX=            -85.9775   YY=            -79.2273   ZZ=            -79.6553
   XY=             -1.5206   XZ=            -12.5918   YZ=              3.3883
 Traceless Quadrupole moment (field-independent basis, Debye-Ang):
   XX=             -4.3575   YY=              2.3927   ZZ=              1.9647
   XY=             -1.5206   XZ=            -12.5918   YZ=              3.3883
 Octapole moment (field-independent basis, Debye-Ang**2):
  XXX=            146.7527  YYY=             26.5520  ZZZ=              0.2259  XYY=              0.0099
  XXY=             53.2934  XXZ=            -32.5619  XZZ=              2.5599  YZZ=             -2.2094
  YYZ=              4.0917  XYZ=            -14.4800
 Hexadecapole moment (field-independent basis, Debye-Ang**3):
 XXXX=          -7148.0382 YYYY=           -669.2354 ZZZZ=           -225.9671 XXXY=            253.6724
 XXXZ=           -678.7498 YYYX=            -49.8493 YYYZ=             11.4166 ZZZX=            -13.5197
 ZZZY=             -2.3462 XXYY=          -1167.8666 XXZZ=          -1204.8390 YYZZ=           -160.1183
 XXYZ=            115.0329 YYXZ=            -31.6817 ZZXY=              8.6951
 N-N= 8.121521513489D+02 E-N=-3.144972307434D+03  KE= 6.460649508041D+02
  Exact polarizability:   0.000   0.000   0.000   0.000   0.000   0.000
 Approx polarizability: 152.852   3.016 146.842   1.584  -2.357 135.719
 D2PCM: PCM CHGder 2nd derivatives, FixD1E=F FixD2E=F DoIter=F DoCFld=F I1PDM=0
 Calling FoFJK, ICntrl=    100147 FMM=F ISym2X=0 I1Cent= 0 IOpClX= 0 NMat=1 NMatS=1 NMatT=0.
 ***** Axes restored to original set *****
 -------------------------------------------------------------------
 Center     Atomic                   Forces (Hartrees/Bohr)
 Number     Number              X              Y              Z
 -------------------------------------------------------------------
      1        7           0.008667533   -0.006948510    0.002312476
      2        6          -0.000251685    0.005459171   -0.003928672
      3        6          -0.001790816    0.005564974   -0.002027701
      4        8          -0.001551168   -0.004115850    0.000204127
      5        6           0.000027268   -0.000325004   -0.000812991
      6        6          -0.000088577    0.001682832    0.001439924
      7        8           0.001638017    0.001847155    0.000201658
      8        6           0.000619520   -0.002569384   -0.004443475
      9        6          -0.000102911   -0.003499935    0.001700401
     10        8           0.002186738    0.001870430   -0.001578677
     11        6          -0.003830317   -0.003250505    0.005433113
     12        6           0.006693428    0.002290096    0.003989246
     13        7          -0.010887334    0.004441308   -0.001314892
     14        1          -0.001082421    0.000087888   -0.001760476
     15        1          -0.000349276   -0.000710502    0.002788693
     16        1          -0.009514873    0.000474923    0.003750902
     17        1           0.001228267   -0.001373205   -0.000291697
     18        1          -0.001202473    0.000517092    0.000606859
     19        1           0.001208277   -0.001511125   -0.001766751
     20        1           0.000769935   -0.002401267    0.000613480
     21        1          -0.000989800   -0.001650106   -0.002302242
     22        1          -0.000675533    0.002476491   -0.000667812
     23        1           0.001172513    0.001587205    0.002197715
     24        1           0.002465828   -0.001217000    0.000390147
     25        1           0.000066733    0.003192904    0.002447985
     26        1           0.000043962    0.003102766    0.000142048
     27        1          -0.001883539   -0.000456344   -0.000752159
     28        1           0.001075035    0.001836570    0.001047145
     29        1           0.000678060    0.000012699   -0.000382451
     30        1           0.006569465   -0.006399832   -0.004091960
     31        1          -0.001885412    0.000797453   -0.001581068
     32        1           0.000631420   -0.001641573    0.001262627
     33        1           0.000344136    0.000828187   -0.002825522
 -------------------------------------------------------------------
 Cartesian Forces:  Max     0.010887334 RMS     0.002987301
 FormGI is forming the generalized inverse of G from B-inverse, IUseBI=4.

 GradGradGradGradGradGradGradGradGradGradGradGradGradGradGradGradGradGrad
 Berny optimization.
 Internal  Forces:  Max     0.010639976 RMS     0.002774802
 Search for a local minimum.
 Step number   1 out of a maximum of  165
 All quantities printed in internal units (Hartrees-Bohrs-Radians)
 Mixed Optimization -- RFO/linear search
 Second derivative matrix not updated -- analytic derivatives used.
 ITU=  0
     Eigenvalues ---    0.00022   0.00043   0.00173   0.00199   0.00205
     Eigenvalues ---    0.00240   0.00285   0.00309   0.00557   0.00636
     Eigenvalues ---    0.00653   0.00749   0.03221   0.03268   0.04322
     Eigenvalues ---    0.04396   0.04618   0.04628   0.04660   0.04671
     Eigenvalues ---    0.04742   0.04879   0.04940   0.05036   0.05428
     Eigenvalues ---    0.05587   0.06272   0.06313   0.06527   0.06715
     Eigenvalues ---    0.08321   0.08326   0.09550   0.09719   0.09959
     Eigenvalues ---    0.10009   0.10498   0.10700   0.11455   0.11601
     Eigenvalues ---    0.12004   0.12368   0.14266   0.14326   0.14501
     Eigenvalues ---    0.14602   0.15073   0.15210   0.16317   0.16470
     Eigenvalues ---    0.16740   0.17242   0.18887   0.18924   0.22825
     Eigenvalues ---    0.22969   0.23224   0.24176   0.24625   0.25204
     Eigenvalues ---    0.25897   0.27163   0.27303   0.27351   0.28898
     Eigenvalues ---    0.31122   0.31613   0.32248   0.32357   0.32633
     Eigenvalues ---    0.32716   0.32746   0.32950   0.32988   0.33065
     Eigenvalues ---    0.33190   0.33340   0.33365   0.33704   0.33826
     Eigenvalues ---    0.34058   0.35230   0.35716   0.36505   0.37487
     Eigenvalues ---    0.37668   0.40314   0.41089   0.42188   0.43810
     Eigenvalues ---    0.43941   0.44063   0.44170
 RFO step:  Lambda=-6.98714890D-03 EMin= 2.17843373D-04
 Linear search not attempted -- first point.
 Iteration  1 RMS(Cart)=  0.10985261 RMS(Int)=  0.00242645
 Iteration  2 RMS(Cart)=  0.00431478 RMS(Int)=  0.00026187
 Iteration  3 RMS(Cart)=  0.00000658 RMS(Int)=  0.00026182
 Iteration  4 RMS(Cart)=  0.00000000 RMS(Int)=  0.00026182
 Variable       Old X    -DE/DX   Delta X   Delta X   Delta X     New X
                                 (Linear)    (Quad)   (Total)
    R1        2.76283   0.00577   0.00000   0.01042   0.01042   2.77325
    R2        1.92736  -0.00137   0.00000  -0.00161  -0.00161   1.92574
    R3        1.92733  -0.00288   0.00000  -0.00474  -0.00474   1.92259
    R4        2.90032  -0.00392   0.00000  -0.00822  -0.00822   2.89211
    R5        2.07108   0.00424   0.00000   0.01194   0.01194   2.08301
    R6        2.06859   0.00072   0.00000   0.00205   0.00205   2.07064
    R7        2.70332  -0.00298   0.00000  -0.01340  -0.01340   2.68993
    R8        2.07131   0.00031   0.00000   0.00085   0.00085   2.07216
    R9        2.07265   0.00150   0.00000   0.00595   0.00595   2.07860
   R10        2.69782  -0.00409   0.00000  -0.01594  -0.01594   2.68188
   R11        2.88324  -0.00412   0.00000  -0.00812  -0.00812   2.87512
   R12        2.07224   0.00253   0.00000   0.00789   0.00789   2.08013
   R13        2.06945   0.00218   0.00000   0.00754   0.00754   2.07698
   R14        2.69642  -0.00271   0.00000  -0.01119  -0.01119   2.68523
   R15        2.07201   0.00258   0.00000   0.00766   0.00766   2.07966
   R16        2.06983   0.00206   0.00000   0.00685   0.00685   2.07669
   R17        2.69848  -0.00281   0.00000  -0.00941  -0.00941   2.68907
   R18        2.89283   0.00105   0.00000   0.00600   0.00600   2.89883
   R19        2.07113  -0.00049   0.00000  -0.00243  -0.00243   2.06870
   R20        2.07097   0.00245   0.00000   0.00730   0.00730   2.07827
   R21        2.69789  -0.00161   0.00000  -0.00546  -0.00546   2.69243
   R22        2.06876   0.00177   0.00000   0.00547   0.00547   2.07423
   R23        2.07072  -0.00033   0.00000  -0.00155  -0.00155   2.06916
   R24        2.70253  -0.00015   0.00000  -0.00430  -0.00430   2.69823
   R25        2.90047  -0.00451   0.00000  -0.01095  -0.01095   2.88952
   R26        2.07162   0.00153   0.00000   0.00662   0.00662   2.07825
   R27        2.07090  -0.00053   0.00000  -0.00198  -0.00198   2.06893
   R28        2.76216   0.00602   0.00000   0.01178   0.01178   2.77394
   R29        2.06948   0.00536   0.00000   0.01418   0.01418   2.08366
   R30        2.07122  -0.00028   0.00000  -0.00047  -0.00047   2.07076
   R31        1.92622  -0.00128   0.00000  -0.00081  -0.00081   1.92541
   R32        1.92717  -0.00284   0.00000  -0.00443  -0.00443   1.92274
    A1        1.91042  -0.00102   0.00000  -0.00844  -0.00845   1.90197
    A2        1.90335   0.00025   0.00000   0.00298   0.00297   1.90632
    A3        1.84854  -0.00037   0.00000  -0.01063  -0.01066   1.83788
    A4        1.95830  -0.00875   0.00000  -0.04963  -0.04980   1.90849
    A5        1.91483   0.01064   0.00000   0.07703   0.07687   1.99170
    A6        1.89774   0.00020   0.00000  -0.01175  -0.01286   1.88488
    A7        1.91386  -0.00399   0.00000  -0.02013  -0.01917   1.89469
    A8        1.91944   0.00303   0.00000  -0.00100  -0.00188   1.91756
    A9        1.85686  -0.00060   0.00000   0.00908   0.00867   1.86553
   A10        1.95023   0.00393   0.00000   0.02498   0.02502   1.97525
   A11        1.90608   0.00024   0.00000   0.00276   0.00269   1.90877
   A12        1.94749  -0.00316   0.00000  -0.02960  -0.02958   1.91792
   A13        1.85559  -0.00207   0.00000  -0.00886  -0.00896   1.84663
   A14        1.92965  -0.00020   0.00000   0.00348   0.00367   1.93332
   A15        1.87059   0.00122   0.00000   0.00763   0.00758   1.87817
   A16        1.97018   0.00486   0.00000   0.02573   0.02573   1.99591
   A17        1.90364  -0.00909   0.00000  -0.03348  -0.03347   1.87017
   A18        1.92246   0.00295   0.00000   0.01131   0.01117   1.93362
   A19        1.93125   0.00438   0.00000   0.02340   0.02327   1.95452
   A20        1.91326   0.00199   0.00000   0.00315   0.00318   1.91644
   A21        1.91099   0.00088   0.00000  -0.00172  -0.00160   1.90939
   A22        1.88214  -0.00095   0.00000  -0.00223  -0.00236   1.87978
   A23        1.90822  -0.00947   0.00000  -0.03702  -0.03703   1.87120
   A24        1.91290   0.00203   0.00000   0.00415   0.00417   1.91707
   A25        1.91172   0.00078   0.00000  -0.00184  -0.00171   1.91001
   A26        1.91995   0.00311   0.00000   0.01150   0.01133   1.93128
   A27        1.93103   0.00461   0.00000   0.02385   0.02368   1.95471
   A28        1.87981  -0.00088   0.00000   0.00003  -0.00012   1.87969
   A29        1.97093   0.00459   0.00000   0.02537   0.02537   1.99630
   A30        1.95577   0.00164   0.00000   0.00346   0.00342   1.95919
   A31        1.87309  -0.00170   0.00000  -0.01080  -0.01080   1.86229
   A32        1.93220   0.00001   0.00000   0.00069   0.00061   1.93281
   A33        1.89537  -0.00001   0.00000   0.00282   0.00286   1.89822
   A34        1.95422  -0.00202   0.00000  -0.02273  -0.02273   1.93149
   A35        1.84772   0.00211   0.00000   0.02853   0.02860   1.87632
   A36        1.94224  -0.00034   0.00000  -0.01027  -0.01036   1.93188
   A37        1.95431  -0.00112   0.00000  -0.01466  -0.01471   1.93960
   A38        1.89658   0.00026   0.00000   0.00636   0.00637   1.90295
   A39        1.93950   0.00068   0.00000   0.00379   0.00362   1.94312
   A40        1.87572  -0.00087   0.00000  -0.00598  -0.00597   1.86975
   A41        1.85096   0.00148   0.00000   0.02285   0.02289   1.87385
   A42        1.98748   0.00418   0.00000   0.01716   0.01716   2.00464
   A43        1.93327   0.00256   0.00000   0.01624   0.01623   1.94950
   A44        1.93627   0.00023   0.00000   0.00123   0.00132   1.93759
   A45        1.86588  -0.00115   0.00000  -0.00021  -0.00030   1.86558
   A46        1.94540  -0.00244   0.00000  -0.02074  -0.02072   1.92468
   A47        1.90602   0.00018   0.00000   0.00335   0.00327   1.90929
   A48        1.87406   0.00061   0.00000   0.00055   0.00052   1.87458
   A49        1.95901  -0.00768   0.00000  -0.04258  -0.04286   1.91615
   A50        1.92784  -0.00309   0.00000  -0.01765  -0.01692   1.91092
   A51        1.90366   0.00130   0.00000  -0.01038  -0.01131   1.89234
   A52        1.90835   0.00972   0.00000   0.07535   0.07532   1.98367
   A53        1.90944   0.00049   0.00000  -0.01270  -0.01396   1.89548
   A54        1.85243  -0.00034   0.00000   0.01055   0.01016   1.86258
   A55        1.91753  -0.00173   0.00000  -0.01384  -0.01388   1.90365
   A56        1.90318   0.00072   0.00000   0.00215   0.00211   1.90528
   A57        1.85234  -0.00045   0.00000  -0.01430  -0.01439   1.83794
    D1       -1.10619  -0.00021   0.00000  -0.06029  -0.05953  -1.16573
    D2        1.02574  -0.00372   0.00000  -0.06523  -0.06589   0.95986
    D3        3.04992   0.00154   0.00000  -0.01848  -0.01855   3.03136
    D4       -3.12113   0.00066   0.00000  -0.04459  -0.04385   3.11821
    D5       -0.98919  -0.00286   0.00000  -0.04953  -0.05020  -1.03939
    D6        1.03498   0.00241   0.00000  -0.00278  -0.00287   1.03211
    D7        3.02129   0.00278   0.00000   0.04369   0.04379   3.06508
    D8        0.97335   0.00282   0.00000   0.03791   0.03791   1.01125
    D9       -1.09146   0.00309   0.00000   0.04474   0.04468  -1.04678
   D10        0.88881  -0.00203   0.00000  -0.00665  -0.00674   0.88207
   D11       -1.15914  -0.00199   0.00000  -0.01243  -0.01262  -1.17176
   D12        3.05924  -0.00172   0.00000  -0.00560  -0.00585   3.05339
   D13       -1.14725  -0.00073   0.00000  -0.00529  -0.00504  -1.15228
   D14        3.08799  -0.00069   0.00000  -0.01107  -0.01092   3.07708
   D15        1.02319  -0.00042   0.00000  -0.00424  -0.00414   1.01904
   D16        1.40825  -0.00052   0.00000  -0.02042  -0.02035   1.38791
   D17       -2.79682   0.00067   0.00000  -0.00865  -0.00866  -2.80548
   D18       -0.77213   0.00085   0.00000  -0.00281  -0.00288  -0.77501
   D19        3.10012   0.00006   0.00000  -0.02327  -0.02317   3.07695
   D20        0.99958   0.00150   0.00000  -0.01309  -0.01292   0.98666
   D21       -1.07988  -0.00196   0.00000  -0.03227  -0.03254  -1.11241
   D22       -3.13596  -0.00001   0.00000  -0.00360  -0.00361  -3.13957
   D23        1.04150   0.00080   0.00000   0.00272   0.00270   1.04420
   D24       -1.01733   0.00020   0.00000   0.00133   0.00140  -1.01593
   D25       -1.02978  -0.00081   0.00000  -0.00855  -0.00854  -1.03831
   D26       -3.13550  -0.00000   0.00000  -0.00222  -0.00222  -3.13772
   D27        1.08886  -0.00060   0.00000  -0.00361  -0.00353   1.08533
   D28        1.03165  -0.00027   0.00000  -0.01041  -0.01047   1.02118
   D29       -1.07408   0.00054   0.00000  -0.00408  -0.00416  -1.07823
   D30       -3.13290  -0.00005   0.00000  -0.00547  -0.00546  -3.13836
   D31       -3.12791  -0.00018   0.00000   0.01087   0.01076  -3.11715
   D32       -1.02649  -0.00169   0.00000  -0.00014  -0.00032  -1.02681
   D33        1.04836   0.00206   0.00000   0.02202   0.02231   1.07068
   D34       -1.44482  -0.00015   0.00000  -0.01495  -0.01494  -1.45976
   D35        2.75916  -0.00001   0.00000  -0.01354  -0.01354   2.74562
   D36        0.75046  -0.00156   0.00000  -0.04176  -0.04177   0.70869
   D37       -3.10657   0.00066   0.00000   0.00537   0.00545  -3.10112
   D38        0.99413   0.00089   0.00000   0.01936   0.01932   1.01346
   D39       -1.04459  -0.00044   0.00000  -0.00407  -0.00404  -1.04863
   D40       -1.04053  -0.00046   0.00000  -0.00407  -0.00400  -1.04453
   D41        3.06017  -0.00024   0.00000   0.00991   0.00987   3.07005
   D42        1.02145  -0.00156   0.00000  -0.01352  -0.01349   1.00796
   D43        0.99342   0.00095   0.00000   0.01945   0.01946   1.01288
   D44       -1.18906   0.00117   0.00000   0.03344   0.03333  -1.15573
   D45        3.05541  -0.00015   0.00000   0.01001   0.00997   3.06537
   D46       -1.50851  -0.00049   0.00000  -0.04680  -0.04675  -1.55526
   D47        0.68224  -0.00171   0.00000  -0.07088  -0.07090   0.61134
   D48        2.70016  -0.00008   0.00000  -0.04494  -0.04496   2.65520
[...]
    19    C    2  S      Ryd( 4S)     0.00003
    20    C    2  px     Val( 2p)     0.89633
    21    C    2  px     Ryd( 3p)     0.00252
    22    C    2  py     Val( 2p)     1.19339
    23    C    2  py     Ryd( 3p)     0.00188
    24    C    2  pz     Val( 2p)     1.15387
    25    C    2  pz     Ryd( 3p)     0.00219
    26    C    2  dxy    Ryd( 3d)     0.00073
    27    C    2  dxz    Ryd( 3d)     0.00131
    28    C    2  dyz    Ryd( 3d)     0.00035
    29    C    2  dx2y2  Ryd( 3d)     0.00115
    30    C    2  dz2    Ryd( 3d)     0.00125

    31    C    3  S      Cor( 1S)     1.99928
    32    C    3  S      Val( 2S)     1.02962
    33    C    3  S      Ryd( 3S)     0.00207
    34    C    3  S      Ryd( 4S)     0.00006
    35    C    3  px     Val( 2p)     0.76010
    36    C    3  px     Ryd( 3p)     0.00567
    37    C    3  py     Val( 2p)     1.19204
    38    C    3  py     Ryd( 3p)     0.00368
    39    C    3  pz     Val( 2p)     1.11675
    40    C    3  pz     Ryd( 3p)     0.00208
    41    C    3  dxy    Ryd( 3d)     0.00109
    42    C    3  dxz    Ryd( 3d)     0.00151
    43    C    3  dyz    Ryd( 3d)     0.00040
    44    C    3  dx2y2  Ryd( 3d)     0.00176
    45    C    3  dz2    Ryd( 3d)     0.00144

    46    O    4  S      Cor( 1S)     1.99979
    47    O    4  S      Val( 2S)     1.61737
    48    O    4  S      Ryd( 3S)     0.00168
    49    O    4  S      Ryd( 4S)     0.00005
    50    O    4  px     Val( 2p)     1.49889
    51    O    4  px     Ryd( 3p)     0.00158
    52    O    4  py     Val( 2p)     1.61581
    53    O    4  py     Ryd( 3p)     0.00157
    54    O    4  pz     Val( 2p)     1.85635
    55    O    4  pz     Ryd( 3p)     0.00270
    56    O    4  dxy    Ryd( 3d)     0.00107
    57    O    4  dxz    Ryd( 3d)     0.00071
    58    O    4  dyz    Ryd( 3d)     0.00105
    59    O    4  dx2y2  Ryd( 3d)     0.00100
    60    O    4  dz2    Ryd( 3d)     0.00107

    61    C    5  S      Cor( 1S)     1.99928
    62    C    5  S      Val( 2S)     1.03186
    63    C    5  S      Ryd( 3S)     0.00293
    64    C    5  S      Ryd( 4S)     0.00005
    65    C    5  px     Val( 2p)     0.99184
    66    C    5  px     Ryd( 3p)     0.00280
    67    C    5  py     Val( 2p)     0.88619
    68    C    5  py     Ryd( 3p)     0.00395
    69    C    5  pz     Val( 2p)     1.19886
    70    C    5  pz     Ryd( 3p)     0.00229
    71    C    5  dxy    Ryd( 3d)     0.00141
    72    C    5  dxz    Ryd( 3d)     0.00070
    73    C    5  dyz    Ryd( 3d)     0.00133
    74    C    5  dx2y2  Ryd( 3d)     0.00159
    75    C    5  dz2    Ryd( 3d)     0.00125

    76    C    6  S      Cor( 1S)     1.99928
    77    C    6  S      Val( 2S)     1.03401
    78    C    6  S      Ryd( 3S)     0.00295
    79    C    6  S      Ryd( 4S)     0.00005
    80    C    6  px     Val( 2p)     0.99507
    81    C    6  px     Ryd( 3p)     0.00303
    82    C    6  py     Val( 2p)     0.88352
    83    C    6  py     Ryd( 3p)     0.00480
    84    C    6  pz     Val( 2p)     1.20260
    85    C    6  pz     Ryd( 3p)     0.00201
    86    C    6  dxy    Ryd( 3d)     0.00142
    87    C    6  dxz    Ryd( 3d)     0.00071
    88    C    6  dyz    Ryd( 3d)     0.00136
    89    C    6  dx2y2  Ryd( 3d)     0.00150
    90    C    6  dz2    Ryd( 3d)     0.00124

    91    O    7  S      Cor( 1S)     1.99979
    92    O    7  S      Val( 2S)     1.62605
    93    O    7  S      Ryd( 3S)     0.00250
    94    O    7  S      Ryd( 4S)     0.00008
    95    O    7  px     Val( 2p)     1.46919
    96    O    7  px     Ryd( 3p)     0.00152
    97    O    7  py     Val( 2p)     1.61518
    98    O    7  py     Ryd( 3p)     0.00164
    99    O    7  pz     Val( 2p)     1.86006
   100    O    7  pz     Ryd( 3p)     0.00281
   101    O    7  dxy    Ryd( 3d)     0.00112
   102    O    7  dxz    Ryd( 3d)     0.00065
   103    O    7  dyz    Ryd( 3d)     0.00104
   104    O    7  dx2y2  Ryd( 3d)     0.00111
   105    O    7  dz2    Ryd( 3d)     0.00100

   106    C    8  S      Cor( 1S)     1.99928
   107    C    8  S      Val( 2S)     1.03684
   108    C    8  S      Ryd( 3S)     0.00200
   109    C    8  S      Ryd( 4S)     0.00005
   110    C    8  px     Val( 2p)     0.75214
   111    C    8  px     Ryd( 3p)     0.00811
   112    C    8  py     Val( 2p)     1.21904
   113    C    8  py     Ryd( 3p)     0.00413
   114    C    8  pz     Val( 2p)     1.11691
   115    C    8  pz     Ryd( 3p)     0.00188
   116    C    8  dxy    Ryd( 3d)     0.00107
   117    C    8  dxz    Ryd( 3d)     0.00156
   118    C    8  dyz    Ryd( 3d)     0.00065
   119    C    8  dx2y2  Ryd( 3d)     0.00179
   120    C    8  dz2    Ryd( 3d)     0.00112

   121    C    9  S      Cor( 1S)     1.99927
   122    C    9  S      Val( 2S)     1.04175
   123    C    9  S      Ryd( 3S)     0.00195
   124    C    9  S      Ryd( 4S)     0.00005
   125    C    9  px     Val( 2p)     0.75691
   126    C    9  px     Ryd( 3p)     0.00744
   127    C    9  py     Val( 2p)     1.21149
   128    C    9  py     Ryd( 3p)     0.00395
   129    C    9  pz     Val( 2p)     1.12589
   130    C    9  pz     Ryd( 3p)     0.00143
   131    C    9  dxy    Ryd( 3d)     0.00103
   132    C    9  dxz    Ryd( 3d)     0.00153
   133    C    9  dyz    Ryd( 3d)     0.00073
   134    C    9  dx2y2  Ryd( 3d)     0.00176
   135    C    9  dz2    Ryd( 3d)     0.00115

   136    O   10  S      Cor( 1S)     1.99981
   137    O   10  S      Val( 2S)     1.63552
   138    O   10  S      Ryd( 3S)     0.00354
   139    O   10  S      Ryd( 4S)     0.00006
   140    O   10  px     Val( 2p)     1.49315
   141    O   10  px     Ryd( 3p)     0.00160
   142    O   10  py     Val( 2p)     1.68412
   143    O   10  py     Ryd( 3p)     0.00210
   144    O   10  pz     Val( 2p)     1.73504
   145    O   10  pz     Ryd( 3p)     0.00243
   146    O   10  dxy    Ryd( 3d)     0.00116
   147    O   10  dxz    Ryd( 3d)     0.00070
   148    O   10  dyz    Ryd( 3d)     0.00109
   149    O   10  dx2y2  Ryd( 3d)     0.00121
   150    O   10  dz2    Ryd( 3d)     0.00063

   151    C   11  S      Cor( 1S)     1.99924
   152    C   11  S      Val( 2S)     1.03682
   153    C   11  S      Ryd( 3S)     0.00225
   154    C   11  S      Ryd( 4S)     0.00006
   155    C   11  px     Val( 2p)     1.16182
   156    C   11  px     Ryd( 3p)     0.00619
   157    C   11  py     Val( 2p)     0.91890
   158    C   11  py     Ryd( 3p)     0.01279
   159    C   11  pz     Val( 2p)     1.02571
   160    C   11  pz     Ryd( 3p)     0.00155
   161    C   11  dxy    Ryd( 3d)     0.00134
   162    C   11  dxz    Ryd( 3d)     0.00133
   163    C   11  dyz    Ryd( 3d)     0.00170
   164    C   11  dx2y2  Ryd( 3d)     0.00103
   165    C   11  dz2    Ryd( 3d)     0.00085

   166    C   12  S      Cor( 1S)     1.99932
   167    C   12  S      Val( 2S)     1.06487
   168    C   12  S      Ryd( 3S)     0.00221
   169    C   12  S      Ryd( 4S)     0.00003
   170    C   12  px     Val( 2p)     1.18557
   171    C   12  px     Ryd( 3p)     0.00423
   172    C   12  py     Val( 2p)     1.00807
   173    C   12  py     Ryd( 3p)     0.01258
   174    C   12  pz     Val( 2p)     1.10901
   175    C   12  pz     Ryd( 3p)     0.00238
   176    C   12  dxy    Ryd( 3d)     0.00105
   177    C   12  dxz    Ryd( 3d)     0.00110
   178    C   12  dyz    Ryd( 3d)     0.00130
   179    C   12  dx2y2  Ryd( 3d)     0.00065
   180    C   12  dz2    Ryd( 3d)     0.00041

   181    N   13  S      Cor( 1S)     1.99938
   182    N   13  S      Val( 2S)     1.52194
   183    N   13  S      Ryd( 3S)     0.01796
   184    N   13  S      Ryd( 4S)     0.00003
   185    N   13  px     Val( 2p)     1.34829
   186    N   13  px     Ryd( 3p)     0.00047
   187    N   13  py     Val( 2p)     1.29840
   188    N   13  py     Ryd( 3p)     0.00390
   189    N   13  pz     Val( 2p)     1.28589
   190    N   13  pz     Ryd( 3p)     0.00025
   191    N   13  dxy    Ryd( 3d)     0.00064
   192    N   13  dxz    Ryd( 3d)     0.00031
   193    N   13  dyz    Ryd( 3d)     0.00058
   194    N   13  dx2y2  Ryd( 3d)     0.00022
   195    N   13  dz2    Ryd( 3d)     0.00044

   196    H   14  S      Val( 1S)     0.61063
   197    H   14  S      Ryd( 2S)     0.00188
   198    H   14  px     Ryd( 2p)     0.00031
   199    H   14  py     Ryd( 2p)     0.00053
   200    H   14  pz     Ryd( 2p)     0.00057

   201    H   15  S      Val( 1S)     0.60244
   202    H   15  S      Ryd( 2S)     0.00156
   203    H   15  px     Ryd( 2p)     0.00040
   204    H   15  py     Ryd( 2p)     0.00039
   205    H   15  pz     Ryd( 2p)     0.00061

   206    H   16  S      Val( 1S)     0.78901
   207    H   16  S      Ryd( 2S)     0.00280
   208    H   16  px     Ryd( 2p)     0.00007
   209    H   16  py     Ryd( 2p)     0.00010
   210    H   16  pz     Ryd( 2p)     0.00038

   211    H   17  S      Val( 1S)     0.77096
   212    H   17  S      Ryd( 2S)     0.00128
   213    H   17  px     Ryd( 2p)     0.00009
   214    H   17  py     Ryd( 2p)     0.00038
   215    H   17  pz     Ryd( 2p)     0.00009

   216    H   18  S      Val( 1S)     0.77464
   217    H   18  S      Ryd( 2S)     0.00132
   218    H   18  px     Ryd( 2p)     0.00007
   219    H   18  py     Ryd( 2p)     0.00041
   220    H   18  pz     Ryd( 2p)     0.00009

   221    H   19  S      Val( 1S)     0.79195
   222    H   19  S      Ryd( 2S)     0.00292
   223    H   19  px     Ryd( 2p)     0.00007
   224    H   19  py     Ryd( 2p)     0.00012
   225    H   19  pz     Ryd( 2p)     0.00039

   226    H   20  S      Val( 1S)     0.78998
   227    H   20  S      Ryd( 2S)     0.00267
   228    H   20  px     Ryd( 2p)     0.00010
   229    H   20  py     Ryd( 2p)     0.00007
   230    H   20  pz     Ryd( 2p)     0.00041

   231    H   21  S      Val( 1S)     0.79023
   232    H   21  S      Ryd( 2S)     0.00261
   233    H   21  px     Ryd( 2p)     0.00018
   234    H   21  py     Ryd( 2p)     0.00025
   235    H   21  pz     Ryd( 2p)     0.00018

   236    H   22  S      Val( 1S)     0.78850
   237    H   22  S      Ryd( 2S)     0.00402
   238    H   22  px     Ryd( 2p)     0.00010
   239    H   22  py     Ryd( 2p)     0.00008
   240    H   22  pz     Ryd( 2p)     0.00041

   241    H   23  S      Val( 1S)     0.79073
   242    H   23  S      Ryd( 2S)     0.00516
   243    H   23  px     Ryd( 2p)     0.00017
   244    H   23  py     Ryd( 2p)     0.00025
   245    H   23  pz     Ryd( 2p)     0.00018

   246    H   24  S      Val( 1S)     0.76429
   247    H   24  S      Ryd( 2S)     0.00178
   248    H   24  px     Ryd( 2p)     0.00007
   249    H   24  py     Ryd( 2p)     0.00040
   250    H   24  pz     Ryd( 2p)     0.00010

   251    H   25  S      Val( 1S)     0.78876
   252    H   25  S      Ryd( 2S)     0.00266
   253    H   25  px     Ryd( 2p)     0.00008
   254    H   25  py     Ryd( 2p)     0.00015
   255    H   25  pz     Ryd( 2p)     0.00036

   256    H   26  S      Val( 1S)     0.78639
   257    H   26  S      Ryd( 2S)     0.00475
   258    H   26  px     Ryd( 2p)     0.00010
   259    H   26  py     Ryd( 2p)     0.00038
   260    H   26  pz     Ryd( 2p)     0.00011

   261    H   27  S      Val( 1S)     0.76432
   262    H   27  S      Ryd( 2S)     0.00201
   263    H   27  px     Ryd( 2p)     0.00007
   264    H   27  py     Ryd( 2p)     0.00017
   265    H   27  pz     Ryd( 2p)     0.00033

   266    H   28  S      Val( 1S)     0.77948
   267    H   28  S      Ryd( 2S)     0.00966
   268    H   28  px     Ryd( 2p)     0.00024
   269    H   28  py     Ryd( 2p)     0.00019
   270    H   28  pz     Ryd( 2p)     0.00020

   271    H   29  S      Val( 1S)     0.75129
   272    H   29  S      Ryd( 2S)     0.00284
   273    H   29  px     Ryd( 2p)     0.00023
   274    H   29  py     Ryd( 2p)     0.00014
   275    H   29  pz     Ryd( 2p)     0.00021

   276    H   30  S      Val( 1S)     0.72399
   277    H   30  S      Ryd( 2S)     0.02072
   278    H   30  px     Ryd( 2p)     0.00022
   279    H   30  py     Ryd( 2p)     0.00010
   280    H   30  pz     Ryd( 2p)     0.00024

   281    H   31  S      Val( 1S)     0.75586
   282    H   31  S      Ryd( 2S)     0.01692
   283    H   31  px     Ryd( 2p)     0.00022
   284    H   31  py     Ryd( 2p)     0.00015
   285    H   31  pz     Ryd( 2p)     0.00014

   286    H   32  S      Val( 1S)     0.71181
   287    H   32  S      Ryd( 2S)     0.07693
   288    H   32  px     Ryd( 2p)     0.00058
   289    H   32  py     Ryd( 2p)     0.00039
   290    H   32  pz     Ryd( 2p)     0.00024

   291    H   33  S      Val( 1S)     0.72545
   292    H   33  S      Ryd( 2S)     0.07734
   293    H   33  px     Ryd( 2p)     0.00032
   294    H   33  py     Ryd( 2p)     0.00040
   295    H   33  pz     Ryd( 2p)     0.00048


 Summary of Natural Population Analysis:                  
                                                          
                                       Natural Population 
                Natural  -----------------------------------------------
    Atom  No    Charge         Core      Valence    Rydberg      Total
 -----------------------------------------------------------------------
      N    1   -0.92989      1.99968     5.91540    0.01482     7.92989
      C    2   -0.29311      1.99936     4.28028    0.01347     6.29311
      C    3   -0.11755      1.99928     4.09852    0.01976     6.11755
      O    4   -0.60067      1.99979     6.58841    0.01247     8.60067
      C    5   -0.12633      1.99928     4.10876    0.01829     6.12633
      C    6   -0.13354      1.99928     4.11519    0.01906     6.13354
      O    7   -0.58375      1.99979     6.57049    0.01346     8.58375
      C    8   -0.14657      1.99928     4.12493    0.02236     6.14657
      C    9   -0.15634      1.99927     4.13604    0.02103     6.15634
      O   10   -0.56216      1.99981     6.54782    0.01453     8.56216
      C   11   -0.17156      1.99924     4.14325    0.02907     6.17156
      C   12   -0.39279      1.99932     4.36752    0.02595     6.39279
      N   13   -0.47871      1.99938     5.45452    0.02482     7.47871
      H   14    0.38608      0.00000     0.61063    0.00329     0.61392
      H   15    0.39459      0.00000     0.60244    0.00297     0.60541
      H   16    0.20764      0.00000     0.78901    0.00335     0.79236
      H   17    0.22719      0.00000     0.77096    0.00184     0.77281
      H   18    0.22346      0.00000     0.77464    0.00190     0.77654
      H   19    0.20455      0.00000     0.79195    0.00350     0.79545
      H   20    0.20676      0.00000     0.78998    0.00326     0.79324
      H   21    0.20656      0.00000     0.79023    0.00321     0.79344
      H   22    0.20690      0.00000     0.78850    0.00460     0.79310
      H   23    0.20350      0.00000     0.79073    0.00576     0.79650
      H   24    0.23337      0.00000     0.76429    0.00235     0.76663
      H   25    0.20799      0.00000     0.78876    0.00325     0.79201
      H   26    0.20826      0.00000     0.78639    0.00535     0.79174
      H   27    0.23310      0.00000     0.76432    0.00258     0.76690
      H   28    0.21023      0.00000     0.77948    0.01028     0.78977
      H   29    0.24530      0.00000     0.75129    0.00341     0.75470
      H   30    0.25473      0.00000     0.72399    0.02127     0.74527
      H   31    0.22670      0.00000     0.75586    0.01744     0.77330
      H   32    0.21004      0.00000     0.71181    0.07815     0.78996
      H   33    0.19600      0.00000     0.72545    0.07854     0.80400
 =======================================================================
   * Total *   -0.00000     25.99275    79.50184    0.50541   106.00000

                                 Natural Population      
 --------------------------------------------------------
   Core                      25.99275 ( 99.9721% of  26)
   Valence                   79.50184 ( 99.3773% of  80)
   Natural Minimal Basis    105.49459 ( 99.5232% of 106)
   Natural Rydberg Basis      0.50541 (  0.4768% of 106)
 --------------------------------------------------------

    Atom  No          Natural Electron Configuration
 ----------------------------------------------------------------------------
      N    1      [core]2S( 1.45)2p( 4.47)3p( 0.01)
      C    2      [core]2S( 1.04)2p( 3.24)3p( 0.01)
      C    3      [core]2S( 1.03)2p( 3.07)3p( 0.01)3d( 0.01)
      O    4      [core]2S( 1.62)2p( 4.97)3p( 0.01)
      C    5      [core]2S( 1.03)2p( 3.08)3p( 0.01)3d( 0.01)
      C    6      [core]2S( 1.03)2p( 3.08)3p( 0.01)3d( 0.01)
      O    7      [core]2S( 1.63)2p( 4.94)3p( 0.01)
      C    8      [core]2S( 1.04)2p( 3.09)3p( 0.01)3d( 0.01)
      C    9      [core]2S( 1.04)2p( 3.09)3p( 0.01)3d( 0.01)
      O   10      [core]2S( 1.64)2p( 4.91)3p( 0.01)
      C   11      [core]2S( 1.04)2p( 3.11)3p( 0.02)3d( 0.01)
      C   12      [core]2S( 1.06)2p( 3.30)3p( 0.02)
      N   13      [core]2S( 1.52)2p( 3.93)3S( 0.02)
      H   14            1S( 0.61)
      H   15            1S( 0.60)
      H   16            1S( 0.79)
      H   17            1S( 0.77)
      H   18            1S( 0.77)
      H   19            1S( 0.79)
      H   20            1S( 0.79)
      H   21            1S( 0.79)
      H   22            1S( 0.79)
      H   23            1S( 0.79)2S( 0.01)
      H   24            1S( 0.76)
      H   25            1S( 0.79)
      H   26            1S( 0.79)
      H   27            1S( 0.76)
      H   28            1S( 0.78)2S( 0.01)
      H   29            1S( 0.75)
      H   30            1S( 0.72)2S( 0.02)
      H   31            1S( 0.76)2S( 0.02)
      H   32            1S( 0.71)2S( 0.08)
      H   33            1S( 0.73)2S( 0.08)


 NBO analysis skipped by request.
 1\1\GINC-DRG2-W002\SP\RB3LYP TD-FC\6-31G(d,p)\C8H20N2O3\QDUEZ\18-Jul-2
 024\0\\# TD(NStates=10, Root=1) B3LYP/6-31G** SCRF=(Solvent=water) vol
 ume pop=NPA density=current Geom=AllCheck Guess=Read\\NIQFAJBKEHPUAM-U
 HFFFAOYSA-N_conf_0\\0,1\N,0,5.8841572272,1.5793800379,-2.0335504381\C,
 0,4.4186733218,1.4828726659,-2.0588804368\C,0,3.9045095084,1.225189069
 7,-0.639420472\O,0,2.4841979411,1.2044288291,-0.5475245374\C,0,1.88176
 94919,0.007178303,-1.0149455227\C,0,0.4074060165,0.069757074,-0.642345
 7893\O,0,-0.2019540388,-1.1168275267,-1.1328174115\C,0,-1.6050357463,-
 1.1952186609,-0.9079404665\C,0,-1.9392549081,-1.7366948152,0.487605476
 4\O,0,-3.3483817756,-1.8866691515,0.6373172017\C,0,-4.0173737659,-0.76
 02829689,1.2044476075\C,0,-4.0834405515,-0.8513050059,2.7300102452\N,0
 ,-4.8174082742,0.3034183692,3.2645929518\H,0,6.15336088,2.4612951845,-
 1.6003815235\H,0,6.232411417,1.6320467392,-2.9879886696\H,0,3.90919015
 07,2.3760609641,-2.4561870595\H,0,4.1471783687,0.644373187,-2.70951630
 13\H,0,4.2325863529,2.0377601204,0.0195063657\H,0,4.333425506,0.288364
 3329,-0.2536889553\H,0,2.3476050406,-0.8733616528,-0.5465992155\H,0,1.
 9769214417,-0.104546614,-2.1043891333\H,0,-0.0540419181,0.9599413292,-
 1.0962846678\H,0,0.3096559795,0.1624742748,0.4483933886\H,0,-2.0065664
 726,-1.8837749635,-1.6583046198\H,0,-2.0799215421,-0.2154538599,-1.063
 7191922\H,0,-1.5231487389,-1.0896022178,1.2704338691\H,0,-1.4896596511
 ,-2.7283713286,0.6052529595\H,0,-3.5320921228,0.1788778991,0.900200756
 8\H,0,-5.0330382468,-0.7505874799,0.7957490246\H,0,-3.0622996877,-0.96
 05352679,3.1317647292\H,0,-4.627709662,-1.7639203565,2.9971450541\H,0,
 -4.2322759769,1.1342547384,3.1924845133\H,0,-4.9694455644,0.1694787513
 ,4.2616660081\\Version=ES64L-G16RevA.03\State=1-A\HF=-652.0426565\RMSD
 =1.832e-09\Dipole=0.0763172,0.5883396,-0.2643946\Quadrupole=0.4910428,
 -1.1387477,0.647705,4.8865091,-3.4735887,-4.7183964\PG=C01 [X(C8H20N2O
 3)]\\@


 TRUST EVERYONE, BUT CUT THE CARDS.
 Job cpu time:       0 days  0 hours 41 minutes 43.7 seconds.
 Elapsed time:       0 days  0 hours 13 minutes 57.2 seconds.
 File lengths (MBytes):  RWF=    772 Int=      0 D2E=      0 Chk=     47 Scr=      1
 Normal termination of Gaussian 16 at Thu Jul 18 15:07:33 2024.
