 Entering Gaussian System, Link 0=g16
 Initial command:
 /opt/sw/arch/manual/gaussian/G16_A03/g16/l1.exe "/scratch/1380946/Gau-121091.inp" -scrdir="/scratch/1380946/"
 Entering Link 1 = /opt/sw/arch/manual/gaussian/G16_A03/g16/l1.exe PID=    121092.
  
 Copyright (c) 1988,1990,1992,1993,1995,1998,2003,2009,2016,
            Gaussian, Inc.  All Rights Reserved.
  
 This is part of the Gaussian(R) 16 program.  It is based on
 the Gaussian(R) 09 system (copyright 2009, Gaussian, Inc.),
 the Gaussian(R) 03 system (copyright 2003, Gaussian, Inc.),
 the Gaussian(R) 98 system (copyright 1998, Gaussian, Inc.),
 the Gaussian(R) 94 system (copyright 1995, Gaussian, Inc.),
 the Gaussian 92(TM) system (copyright 1992, Gaussian, Inc.),
 the Gaussian 90(TM) system (copyright 1990, Gaussian, Inc.),
 the Gaussian 88(TM) system (copyright 1988, Gaussian, Inc.),
 the Gaussian 86(TM) system (copyright 1986, Carnegie Mellon
 University), and the Gaussian 82(TM) system (copyright 1983,
 Carnegie Mellon University). Gaussian is a federally registered
 trademark of Gaussian, Inc.
  
 This software contains proprietary and confidential information,
 including trade secrets, belonging to Gaussian, Inc.
  
 This software is provided under written license and may be
 used, copied, transmitted, or stored only in accord with that
 written license.
  
 The following legend is applicable only to US Government
 contracts under FAR:
  
                    RESTRICTED RIGHTS LEGEND
  
 Use, reproduction and disclosure by the US Government is
 subject to restrictions as set forth in subparagraphs (a)
 and (c) of the Commercial Computer Software - Restricted
 Rights clause in FAR 52.227-19.
  
 Gaussian, Inc.
 340 Quinnipiac St., Bldg. 40, Wallingford CT 06492
  
  
 ---------------------------------------------------------------
 Warning -- This program may not be used in any manner that
 competes with the business of Gaussian, Inc. or will provide
 assistance to any competitor of Gaussian, Inc.  The licensee
 of this program is prohibited from giving any competitor of
 Gaussian, Inc. access to this program.  By using this program,
 the user acknowledges that Gaussian, Inc. is engaged in the
 business of creating and licensing software in the field of
 computational chemistry and represents and warrants to the
 licensee that it is not a competitor of Gaussian, Inc. and that
 it will not use this program in any manner prohibited above.
 ---------------------------------------------------------------
  

 Cite this work as:
 Gaussian 16, Revision A.03,
 M. J. Frisch, G. W. Trucks, H. B. Schlegel, G. E. Scuseria, 
 M. A. Robb, J. R. Cheeseman, G. Scalmani, V. Barone, 
 G. A. Petersson, H. Nakatsuji, X. Li, M. Caricato, A. V. Marenich, 
 J. Bloino, B. G. Janesko, R. Gomperts, B. Mennucci, H. P. Hratchian, 
 J. V. Ortiz, A. F. Izmaylov, J. L. Sonnenberg, D. Williams-Young, 
 F. Ding, F. Lipparini, F. Egidi, J. Goings, B. Peng, A. Petrone, 
 T. Henderson, D. Ranasinghe, V. G. Zakrzewski, J. Gao, N. Rega, 
 G. Zheng, W. Liang, M. Hada, M. Ehara, K. Toyota, R. Fukuda, 
 J. Hasegawa, M. Ishida, T. Nakajima, Y. Honda, O. Kitao, H. Nakai, 
 T. Vreven, K. Throssell, J. A. Montgomery, Jr., J. E. Peralta, 
 F. Ogliaro, M. J. Bearpark, J. J. Heyd, E. N. Brothers, K. N. Kudin, 
 V. N. Staroverov, T. A. Keith, R. Kobayashi, J. Normand, 
 K. Raghavachari, A. P. Rendell, J. C. Burant, S. S. Iyengar, 
 J. Tomasi, M. Cossi, J. M. Millam, M. Klene, C. Adamo, R. Cammi, 
 J. W. Ochterski, R. L. Martin, K. Morokuma, O. Farkas, 
 J. B. Foresman, and D. J. Fox, Gaussian, Inc., Wallingford CT, 2016.
 
 ******************************************
 Gaussian 16:  ES64L-G16RevA.03 25-Dec-2016
                18-Jul-2024 
 ******************************************
 %nprocshared=5
 Will use up to    5 processors via shared memory.
 %mem=10GB
 %Chk=NIQFAJBKEHPUAM-UHFFFAOYSA-N_conf_1_0.chk
 -------------------------------------------------------
 # opt=CalcFc B3LYP/6-31G** SCRF=(Solvent=water) scf=xqc
 -------------------------------------------------------
 1/10=4,18=20,19=15,26=3,38=1/1,3;
 2/9=110,12=2,17=6,18=5,40=1/2;
 3/5=1,6=6,7=101,11=2,25=1,30=1,70=2201,71=2,72=1,74=-5,140=1/1,2,3;
 4//1;
 5/5=2,8=3,13=1,38=5,53=1/2,8;
 8/6=4,10=90,11=11/1;
 11/6=1,8=1,9=11,15=111,16=1/1,2,10;
 10/6=1,13=1/2;
 6/7=2,8=2,9=2,10=2,28=1/1;
 7/10=1,18=20,25=1/1,2,3,16;
 1/10=4,18=20,19=15,26=3/3(2);
 2/9=110/2;
 99//99;
 2/9=110/2;
 3/5=1,6=6,7=101,11=2,25=1,30=1,70=2205,71=1,72=1,74=-5/1,2,3;
 4/5=5,16=3,69=1/1;
 5/5=2,8=3,13=1,38=5,53=1/2,8;
 7//1,2,3,16;
 1/18=20,19=15,26=3/3(-5);
 2/9=110/2;
 6/7=2,8=2,9=2,10=2,19=2,28=1/1;
 99/9=1/99;
 ----------------------------------
 NIQFAJBKEHPUAM-UHFFFAOYSA-N_conf_1
 ----------------------------------
 Symbolic Z-matrix:
 Charge =  0 Multiplicity = 1
 N                     6.24912  -0.80298   0.39348 
 C                     4.79032  -0.69885   0.34087 
 C                     4.26108   0.60941   0.94748 
 O                     2.83507   0.62889   1.00166 
 C                     2.23034   1.02701  -0.23381 
 C                     0.71236   0.88518  -0.11645 
 O                     0.36013  -0.49711  -0.23964 
 C                    -0.99097  -0.77624   0.12652 
 C                    -1.99891  -0.29803  -0.92137 
 O                    -3.33025  -0.7268   -0.63304 
 C                    -3.9752    0.06704   0.36788 
 C                    -5.40823  -0.44521   0.56801 
 N                    -6.18335  -0.42038  -0.6778 
 H                     6.55616  -0.7775    1.36548 
 H                     6.67133   0.0049   -0.06148 
 H                     4.4708   -0.78931  -0.70214 
 H                     4.34709  -1.55252   0.86607 
 H                     4.63713   1.48546   0.40523 
 H                     4.61314   0.69319   1.9819 
 H                     2.60243   0.40628  -1.05478 
 H                     2.48678   2.07557  -0.41924 
 H                     0.23438   1.44096  -0.92885 
 H                     0.37106   1.27224   0.85015 
 H                    -1.2041   -0.35941   1.11697 
 H                    -1.08127  -1.86328   0.23262 
 H                    -1.72377  -0.722    -1.89374 
 H                    -1.97123   0.79016  -1.04668 
 H                    -3.43209  -0.00907   1.31501 
 H                    -3.99217   1.116     0.04969 
 H                    -5.38028  -1.48056   0.92447 
 H                    -5.91847   0.1583    1.32522 
 H                    -5.6543   -0.96789  -1.36344 
 H                    -6.18413   0.52656  -1.05405 
 

 GradGradGradGradGradGradGradGradGradGradGradGradGradGradGradGradGradGrad
 Berny optimization.
 Initialization pass.
                           ----------------------------
                           !    Initial Parameters    !
                           ! (Angstroms and Degrees)  !
 --------------------------                            --------------------------
 ! Name  Definition              Value          Derivative Info.                !
 --------------------------------------------------------------------------------
 ! R1    R(1,2)                  1.4635         calculate D2E/DX2 analytically  !
 ! R2    R(1,14)                 1.0197         calculate D2E/DX2 analytically  !
 ! R3    R(1,15)                 1.0188         calculate D2E/DX2 analytically  !
 ! R4    R(2,3)                  1.5361         calculate D2E/DX2 analytically  !
 ! R5    R(2,16)                 1.0946         calculate D2E/DX2 analytically  !
 ! R6    R(2,17)                 1.0959         calculate D2E/DX2 analytically  !
 ! R7    R(3,4)                  1.4272         calculate D2E/DX2 analytically  !
 ! R8    R(3,18)                 1.0968         calculate D2E/DX2 analytically  !
 ! R9    R(3,19)                 1.0959         calculate D2E/DX2 analytically  !
 ! R10   R(4,5)                  1.432          calculate D2E/DX2 analytically  !
 ! R11   R(5,6)                  1.5291         calculate D2E/DX2 analytically  !
 ! R12   R(5,20)                 1.0944         calculate D2E/DX2 analytically  !
 ! R13   R(5,21)                 1.0953         calculate D2E/DX2 analytically  !
 ! R14   R(6,7)                  1.4318         calculate D2E/DX2 analytically  !
 ! R15   R(6,22)                 1.0942         calculate D2E/DX2 analytically  !
 ! R16   R(6,23)                 1.0957         calculate D2E/DX2 analytically  !
 ! R17   R(7,8)                  1.4274         calculate D2E/DX2 analytically  !
 ! R18   R(8,9)                  1.5306         calculate D2E/DX2 analytically  !
 ! R19   R(8,24)                 1.0955         calculate D2E/DX2 analytically  !
 ! R20   R(8,25)                 1.0959         calculate D2E/DX2 analytically  !
 ! R21   R(9,10)                 1.4281         calculate D2E/DX2 analytically  !
 ! R22   R(9,26)                 1.0959         calculate D2E/DX2 analytically  !
 ! R23   R(9,27)                 1.0957         calculate D2E/DX2 analytically  !
 ! R24   R(10,11)                1.4311         calculate D2E/DX2 analytically  !
 ! R25   R(11,12)                1.5349         calculate D2E/DX2 analytically  !
 ! R26   R(11,28)                1.0945         calculate D2E/DX2 analytically  !
 ! R27   R(11,29)                1.0963         calculate D2E/DX2 analytically  !
 ! R28   R(12,13)                1.4675         calculate D2E/DX2 analytically  !
 ! R29   R(12,30)                1.0954         calculate D2E/DX2 analytically  !
 ! R30   R(12,31)                1.0945         calculate D2E/DX2 analytically  !
 ! R31   R(13,32)                1.0246         calculate D2E/DX2 analytically  !
 ! R32   R(13,33)                1.019          calculate D2E/DX2 analytically  !
 ! A1    A(2,1,14)             109.4302         calculate D2E/DX2 analytically  !
 ! A2    A(2,1,15)             109.9147         calculate D2E/DX2 analytically  !
 ! A3    A(14,1,15)            106.3254         calculate D2E/DX2 analytically  !
 ! A4    A(1,2,3)              112.9442         calculate D2E/DX2 analytically  !
 ! A5    A(1,2,16)             108.624          calculate D2E/DX2 analytically  !
 ! A6    A(1,2,17)             109.2984         calculate D2E/DX2 analytically  !
 ! A7    A(3,2,16)             110.2497         calculate D2E/DX2 analytically  !
 ! A8    A(3,2,17)             109.5615         calculate D2E/DX2 analytically  !
 ! A9    A(16,2,17)            105.9156         calculate D2E/DX2 analytically  !
 ! A10   A(2,3,4)              111.7688         calculate D2E/DX2 analytically  !
 ! A11   A(2,3,18)             111.5248         calculate D2E/DX2 analytically  !
 ! A12   A(2,3,19)             109.0981         calculate D2E/DX2 analytically  !
 ! A13   A(4,3,18)             110.5149         calculate D2E/DX2 analytically  !
 ! A14   A(4,3,19)             106.5059         calculate D2E/DX2 analytically  !
 ! A15   A(18,3,19)            107.1854         calculate D2E/DX2 analytically  !
 ! A16   A(3,4,5)              113.1414         calculate D2E/DX2 analytically  !
 ! A17   A(4,5,6)              109.1003         calculate D2E/DX2 analytically  !
 ! A18   A(4,5,20)             110.239          calculate D2E/DX2 analytically  !
 ! A19   A(4,5,21)             108.2614         calculate D2E/DX2 analytically  !
 ! A20   A(6,5,20)             110.0283         calculate D2E/DX2 analytically  !
 ! A21   A(6,5,21)             109.5249         calculate D2E/DX2 analytically  !
 ! A22   A(20,5,21)            109.657          calculate D2E/DX2 analytically  !
 ! A23   A(5,6,7)              109.0968         calculate D2E/DX2 analytically  !
 ! A24   A(5,6,22)             109.2414         calculate D2E/DX2 analytically  !
 ! A25   A(5,6,23)             110.1309         calculate D2E/DX2 analytically  !
 ! A26   A(7,6,22)             108.6038         calculate D2E/DX2 analytically  !
 ! A27   A(7,6,23)             109.8953         calculate D2E/DX2 analytically  !
 ! A28   A(22,6,23)            109.8441         calculate D2E/DX2 analytically  !
 ! A29   A(6,7,8)              113.5525         calculate D2E/DX2 analytically  !
 ! A30   A(7,8,9)              112.7436         calculate D2E/DX2 analytically  !
 ! A31   A(7,8,24)             109.9784         calculate D2E/DX2 analytically  !
 ! A32   A(7,8,25)             107.2654         calculate D2E/DX2 analytically  !
 ! A33   A(9,8,24)             111.8373         calculate D2E/DX2 analytically  !
 ! A34   A(9,8,25)             108.7789         calculate D2E/DX2 analytically  !
 ! A35   A(24,8,25)            105.8933         calculate D2E/DX2 analytically  !
 ! A36   A(8,9,10)             112.4502         calculate D2E/DX2 analytically  !
 ! A37   A(8,9,26)             108.7389         calculate D2E/DX2 analytically  !
 ! A38   A(8,9,27)             111.8357         calculate D2E/DX2 analytically  !
 ! A39   A(10,9,26)            107.2801         calculate D2E/DX2 analytically  !
 ! A40   A(10,9,27)            110.1705         calculate D2E/DX2 analytically  !
 ! A41   A(26,9,27)            106.046          calculate D2E/DX2 analytically  !
 ! A42   A(9,10,11)            113.2534         calculate D2E/DX2 analytically  !
 ! A43   A(10,11,12)           109.0759         calculate D2E/DX2 analytically  !
 ! A44   A(10,11,28)           110.063          calculate D2E/DX2 analytically  !
 ! A45   A(10,11,29)           109.5568         calculate D2E/DX2 analytically  !
 ! A46   A(12,11,28)           109.1022         calculate D2E/DX2 analytically  !
 ! A47   A(12,11,29)           110.0423         calculate D2E/DX2 analytically  !
 ! A48   A(28,11,29)           108.9896         calculate D2E/DX2 analytically  !
 ! A49   A(11,12,13)           112.1352         calculate D2E/DX2 analytically  !
 ! A50   A(11,12,30)           109.515          calculate D2E/DX2 analytically  !
 ! A51   A(11,12,31)           109.9634         calculate D2E/DX2 analytically  !
 ! A52   A(13,12,30)           107.8032         calculate D2E/DX2 analytically  !
 ! A53   A(13,12,31)           109.3757         calculate D2E/DX2 analytically  !
 ! A54   A(30,12,31)           107.9358         calculate D2E/DX2 analytically  !
 ! A55   A(12,13,32)           106.6381         calculate D2E/DX2 analytically  !
 ! A56   A(12,13,33)           109.245          calculate D2E/DX2 analytically  !
 ! A57   A(32,13,33)           104.4721         calculate D2E/DX2 analytically  !
 ! D1    D(14,1,2,3)            60.8006         calculate D2E/DX2 analytically  !
 ! D2    D(14,1,2,16)         -176.5649         calculate D2E/DX2 analytically  !
 ! D3    D(14,1,2,17)          -61.4391         calculate D2E/DX2 analytically  !
 ! D4    D(15,1,2,3)           -55.6113         calculate D2E/DX2 analytically  !
 ! D5    D(15,1,2,16)           67.0232         calculate D2E/DX2 analytically  !
 ! D6    D(15,1,2,17)         -177.851          calculate D2E/DX2 analytically  !
 ! D7    D(1,2,3,4)           -174.3346         calculate D2E/DX2 analytically  !
 ! D8    D(1,2,3,18)            61.391          calculate D2E/DX2 analytically  !
 ! D9    D(1,2,3,19)           -56.8172         calculate D2E/DX2 analytically  !
 ! D10   D(16,2,3,4)            63.9426         calculate D2E/DX2 analytically  !
 ! D11   D(16,2,3,18)          -60.3317         calculate D2E/DX2 analytically  !
 ! D12   D(16,2,3,19)         -178.5399         calculate D2E/DX2 analytically  !
 ! D13   D(17,2,3,4)           -52.2426         calculate D2E/DX2 analytically  !
 ! D14   D(17,2,3,18)         -176.5169         calculate D2E/DX2 analytically  !
 ! D15   D(17,2,3,19)           65.2749         calculate D2E/DX2 analytically  !
 ! D16   D(2,3,4,5)            -82.9921         calculate D2E/DX2 analytically  !
 ! D17   D(18,3,4,5)            41.8457         calculate D2E/DX2 analytically  !
 ! D18   D(19,3,4,5)           157.9438         calculate D2E/DX2 analytically  !
 ! D19   D(3,4,5,6)            174.5363         calculate D2E/DX2 analytically  !
 ! D20   D(3,4,5,20)            53.608          calculate D2E/DX2 analytically  !
 ! D21   D(3,4,5,21)           -66.3391         calculate D2E/DX2 analytically  !
 ! D22   D(4,5,6,7)            -77.2318         calculate D2E/DX2 analytically  !
 ! D23   D(4,5,6,22)           164.1858         calculate D2E/DX2 analytically  !
 ! D24   D(4,5,6,23)            43.4628         calculate D2E/DX2 analytically  !
 ! D25   D(20,5,6,7)            43.8251         calculate D2E/DX2 analytically  !
 ! D26   D(20,5,6,22)          -74.7573         calculate D2E/DX2 analytically  !
 ! D27   D(20,5,6,23)          164.5197         calculate D2E/DX2 analytically  !
 ! D28   D(21,5,6,7)           164.4325         calculate D2E/DX2 analytically  !
 ! D29   D(21,5,6,22)           45.8501         calculate D2E/DX2 analytically  !
 ! D30   D(21,5,6,23)          -74.8729         calculate D2E/DX2 analytically  !
 ! D31   D(5,6,7,8)            167.8239         calculate D2E/DX2 analytically  !
 ! D32   D(22,6,7,8)           -73.1958         calculate D2E/DX2 analytically  !
 ! D33   D(23,6,7,8)            46.9851         calculate D2E/DX2 analytically  !
 ! D34   D(6,7,8,9)             73.8457         calculate D2E/DX2 analytically  !
 ! D35   D(6,7,8,24)           -51.7145         calculate D2E/DX2 analytically  !
 ! D36   D(6,7,8,25)          -166.4306         calculate D2E/DX2 analytically  !
 ! D37   D(7,8,9,10)           172.6198         calculate D2E/DX2 analytically  !
 ! D38   D(7,8,9,26)            53.9629         calculate D2E/DX2 analytically  !
 ! D39   D(7,8,9,27)           -62.8046         calculate D2E/DX2 analytically  !
 ! D40   D(24,8,9,10)          -62.8322         calculate D2E/DX2 analytically  !
 ! D41   D(24,8,9,26)          178.5109         calculate D2E/DX2 analytically  !
 ! D42   D(24,8,9,27)           61.7434         calculate D2E/DX2 analytically  !
 ! D43   D(25,8,9,10)           53.7741         calculate D2E/DX2 analytically  !
 ! D44   D(25,8,9,26)          -64.8827         calculate D2E/DX2 analytically  !
 ! D45   D(25,8,9,27)          178.3498         calculate D2E/DX2 analytically  !
 ! D46   D(8,9,10,11)           79.1724         calculate D2E/DX2 analytically  !
 ! D47   D(26,9,10,11)        -161.318          calculate D2E/DX2 analytically  !
 ! D48   D(27,9,10,11)         -46.3152         calculate D2E/DX2 analytically  !
 ! D49   D(9,10,11,12)         178.1316         calculate D2E/DX2 analytically  !
 ! D50   D(9,10,11,28)         -62.203          calculate D2E/DX2 analytically  !
 ! D51   D(9,10,11,29)          57.6228         calculate D2E/DX2 analytically  !
 ! D52   D(10,11,12,13)        -57.5687         calculate D2E/DX2 analytically  !
 ! D53   D(10,11,12,30)         62.0588         calculate D2E/DX2 analytically  !
 ! D54   D(10,11,12,31)       -179.4941         calculate D2E/DX2 analytically  !
 ! D55   D(28,11,12,13)       -177.8271         calculate D2E/DX2 analytically  !
 ! D56   D(28,11,12,30)        -58.1996         calculate D2E/DX2 analytically  !
 ! D57   D(28,11,12,31)         60.2475         calculate D2E/DX2 analytically  !
 ! D58   D(29,11,12,13)         62.6417         calculate D2E/DX2 analytically  !
 ! D59   D(29,11,12,30)       -177.7308         calculate D2E/DX2 analytically  !
 ! D60   D(29,11,12,31)        -59.2836         calculate D2E/DX2 analytically  !
 ! D61   D(11,12,13,32)         55.7984         calculate D2E/DX2 analytically  !
 ! D62   D(11,12,13,33)        -56.5722         calculate D2E/DX2 analytically  !
 ! D63   D(30,12,13,32)        -64.8253         calculate D2E/DX2 analytically  !
 ! D64   D(30,12,13,33)       -177.196          calculate D2E/DX2 analytically  !
 ! D65   D(31,12,13,32)        178.0588         calculate D2E/DX2 analytically  !
 ! D66   D(31,12,13,33)         65.6882         calculate D2E/DX2 analytically  !
 --------------------------------------------------------------------------------
 Trust Radius=3.00D-01 FncErr=1.00D-07 GrdErr=1.00D-06 EigMax=2.50D+02 EigMin=1.00D-04
 Number of steps in this run=    165 maximum allowed number of steps=    198.
 GradGradGradGradGradGradGradGradGradGradGradGradGradGradGradGradGradGrad

                          Input orientation:                          
 ---------------------------------------------------------------------
 Center     Atomic      Atomic             Coordinates (Angstroms)
 Number     Number       Type             X           Y           Z
 ---------------------------------------------------------------------
      1          7           0        6.249123   -0.802982    0.393482
      2          6           0        4.790315   -0.698849    0.340865
      3          6           0        4.261084    0.609410    0.947485
      4          8           0        2.835069    0.628890    1.001659
      5          6           0        2.230341    1.027008   -0.233815
      6          6           0        0.712363    0.885182   -0.116453
      7          8           0        0.360129   -0.497111   -0.239635
      8          6           0       -0.990966   -0.776243    0.126525
      9          6           0       -1.998910   -0.298026   -0.921373
     10          8           0       -3.330251   -0.726804   -0.633043
     11          6           0       -3.975199    0.067042    0.367880
     12          6           0       -5.408233   -0.445211    0.568013
     13          7           0       -6.183350   -0.420379   -0.677798
     14          1           0        6.556164   -0.777503    1.365477
     15          1           0        6.671328    0.004899   -0.061479
     16          1           0        4.470796   -0.789312   -0.702138
     17          1           0        4.347092   -1.552516    0.866072
     18          1           0        4.637131    1.485462    0.405231
     19          1           0        4.613137    0.693190    1.981900
     20          1           0        2.602427    0.406285   -1.054778
     21          1           0        2.486775    2.075567   -0.419242
     22          1           0        0.234382    1.440956   -0.928852
     23          1           0        0.371056    1.272243    0.850148
     24          1           0       -1.204098   -0.359412    1.116966
     25          1           0       -1.081272   -1.863278    0.232620
     26          1           0       -1.723768   -0.722003   -1.893740
     27          1           0       -1.971233    0.790162   -1.046678
     28          1           0       -3.432087   -0.009067    1.315012
     29          1           0       -3.992167    1.115996    0.049689
     30          1           0       -5.380281   -1.480563    0.924474
     31          1           0       -5.918472    0.158298    1.325220
     32          1           0       -5.654297   -0.967893   -1.363436
     33          1           0       -6.184130    0.526562   -1.054049
 ---------------------------------------------------------------------
                    Distance matrix (angstroms):
                    1          2          3          4          5
     1  N    0.000000
     2  C    1.463466   0.000000
     3  C    2.500814   1.536104   0.000000
     4  O    3.751787   2.454084   1.427177   0.000000
     5  C    4.460155   3.140432   2.386164   1.431987   0.000000
     6  C    5.810822   4.398635   3.715029   2.412828   1.529099
     7  O    5.930822   4.472609   4.225055   2.988982   2.412605
     8  C    7.245059   5.785771   5.493454   4.168789   3.709228
     9  C    8.367430   6.917188   6.595726   5.284371   4.484977
    10  O    9.634520   8.178806   7.868412   6.520837   5.844264
    11  C   10.261305   8.798953   8.274447   6.862733   6.308114
    12  C   11.664151  10.204230   9.734060   8.324288   7.820369
    13  N   12.484407  11.024361  10.620179   9.233277   8.548815
    14  H    1.019656   2.043095   2.713970   3.994603   4.952448
    15  H    1.018782   2.048256   2.681924   4.029456   4.560348
    16  H    2.088784   1.094592   2.172937   2.754964   2.921983
    17  H    2.098301   1.095918   2.165167   2.657655   3.513450
    18  H    2.799220   2.190622   1.096776   2.082515   2.532034
    19  H    2.727280   2.159204   1.095890   2.031388   3.270863
    20  H    4.105871   2.820637   2.607961   2.081491   1.094407
    21  H    4.806436   3.685301   2.676888   2.057459   1.095270
    22  H    6.554460   5.191096   4.519562   3.339146   2.153667
    23  H    6.250342   4.865637   3.947296   2.551120   2.166115
    24  H    7.501380   6.053969   5.552977   4.159916   3.942352
    25  H    7.408428   5.986915   5.930092   4.705321   4.420192
    26  H    8.294874   6.886746   6.757490   5.566977   4.631346
    27  H    8.496260   7.061230   6.546078   5.227067   4.286031
    28  H    9.757323   8.308590   7.726738   6.307331   5.961158
    29  H   10.425196   8.972762   8.317381   6.910475   6.229599
    30  H   11.661223  10.217275   9.865316   8.482201   8.096364
    31  H   12.241020  10.788038  10.196546   8.772150   8.341965
    32  H   12.033511  10.586168  10.302574   8.956155   8.211163
    33  H   12.587646  11.130403  10.635577   9.251073   8.469153
                    6          7          8          9         10
     6  C    0.000000
     7  O    1.431773   0.000000
     8  C    2.391798   1.427391   0.000000
     9  C    3.065759   2.463629   1.530598   0.000000
    10  O    4.382704   3.718391   2.460008   1.428094   0.000000
    11  C    4.783009   4.413889   3.110471   2.387712   1.431083
    12  C    6.300804   5.824860   4.451600   3.723361   2.416576
    13  N    7.040629   6.558582   5.266348   4.193308   2.869856
    14  H    6.253851   6.406704   7.648148   8.868420  10.086518
    15  H    6.023885   6.333639   7.704302   8.718039  10.044583
    16  H    4.156053   4.146911   5.524283   6.492036   7.801604
    17  H    4.485419   4.269934   5.444666   6.711218   7.865795
    18  H    4.004534   4.758066   6.071940   6.998410   8.333745
    19  H    4.433507   4.943694   6.083389   7.289079   8.482436
    20  H    2.163825   2.551173   3.963120   4.656840   6.054620
    21  H    2.158063   3.342686   4.530492   5.099750   6.460401
    22  H    1.094232   2.060809   2.744315   2.830496   4.182498
    23  H    1.095730   2.078066   2.564182   3.349742   4.460461
    24  H    2.596760   2.075123   1.095513   2.188680   2.778135
    25  H    3.300456   2.041342   1.095927   2.150295   2.664367
    26  H    3.417093   2.670068   2.149746   1.095882   2.042099
    27  H    2.841836   2.782740   2.188825   1.095729   2.078271
    28  H    4.474957   4.127472   2.821371   2.671874   2.078566
    29  H    4.713118   4.650625   3.548758   2.629733   2.073685
    30  H    6.618202   5.939246   4.516512   4.029791   2.682655
    31  H    6.824570   6.503780   5.156602   4.540746   3.364088
    32  H    6.747089   6.136602   4.899324   3.742459   2.448017
    33  H    6.969169   6.673718   5.482701   4.267741   3.145282
                   11         12         13         14         15
    11  C    0.000000
    12  C    1.534940   0.000000
    13  N    2.491375   1.467470   0.000000
    14  H   10.612166  11.995548  12.907274   0.000000
    15  H   10.655363  12.104324  12.876469   1.631447   0.000000
    16  H    8.556467   9.966289  10.660560   2.936653   2.425604
    17  H    8.493038   9.822491  10.703059   2.393752   2.947535
    18  H    8.728433  10.230510  11.040289   3.118617   2.558876
    19  H    8.761087  10.184444  11.174889   2.513617   2.980821
    20  H    6.738265   8.217614   8.832631   4.784456   4.207577
    21  H    6.812551   8.346266   9.025944   5.280639   4.682536
    22  H    4.614080   6.134927   6.686918   7.081697   6.651983
    23  H    4.535970   6.035680   6.939728   6.536251   6.490813
    24  H    2.902067   4.240691   5.293188   7.775489   7.971436
    25  H    3.481271   4.565741   5.379778   7.796968   7.979937
    26  H    3.287319   4.439834   4.632210   8.898474   8.623410
    27  H    2.557295   3.993287   4.398114   8.999587   8.733906
    28  H    1.094451   2.157170   3.421975  10.017894  10.196761
    29  H    1.096284   2.170546   2.773259  10.797404  10.721802
    30  H    2.163130   1.095353   2.082350  11.965263  12.182774
    31  H    2.168210   1.094499   2.101691  12.509751  12.666867
    32  H    2.624484   2.015996   1.024583  12.513136  12.432315
    33  H    2.666911   2.043880   1.018952  13.033410  12.904268
                   16         17         18         19         20
    16  H    0.000000
    17  H    1.748447   0.000000
    18  H    2.535454   3.086391   0.000000
    19  H    3.069549   2.521715   1.764697   0.000000
    20  H    2.246020   3.251218   2.726952   3.653311   0.000000
    21  H    3.496269   4.275020   2.377395   3.492544   1.789912
    22  H    4.792985   5.394165   4.600648   5.310850   2.587285
    23  H    4.844323   4.877333   4.294509   4.428478   3.059027
    24  H    5.974812   5.683499   6.166854   5.974639   4.448865
    25  H    5.731722   5.474027   6.629026   6.482423   4.514194
    26  H    6.308492   6.720242   7.114717   7.561727   4.548940
    27  H    6.641776   7.004854   6.801614   7.248146   4.589749
    28  H    8.193488   7.943514   8.256731   8.103304   6.496444
    29  H    8.707307   8.793787   8.644519   8.829692   6.724003
    30  H   10.008368   9.727815  10.460185  10.281623   8.438085
    31  H   10.627560  10.417269  10.678412  10.565610   8.850514
    32  H   10.148238  10.263541  10.726632  10.925689   8.375986
    33  H   10.741640  10.904865  10.961235  11.217207   8.787381
                   21         22         23         24         25
    21  H    0.000000
    22  H    2.394934   0.000000
    23  H    2.594792   1.792201   0.000000
    24  H    4.680983   3.081545   2.283550   0.000000
    25  H    5.354473   3.741380   3.510283   1.748934   0.000000
    26  H    5.265853   3.073068   3.986756   3.076667   2.497341
    27  H    4.681856   2.302640   3.052322   2.567367   3.077236
    28  H    6.510474   4.536573   4.040019   2.264045   3.183709
    29  H    6.566382   4.350501   4.438791   3.330051   4.169275
    30  H    8.737403   6.595038   6.376625   4.328342   4.371111
    31  H    8.795865   6.677099   6.405055   4.747284   5.355282
    32  H    8.742494   6.377143   6.798753   5.130976   4.925613
    33  H    8.831025   6.484527   6.866766   5.504451   5.779794
                   26         27         28         29         30
    26  H    0.000000
    27  H    1.750828   0.000000
    28  H    3.704420   2.889713   0.000000
    29  H    3.507249   2.322146   1.783396   0.000000
    30  H    4.678444   4.545684   2.472505   3.071519   0.000000
    31  H    5.360240   4.648208   2.492032   2.500962   1.770906
    32  H    3.973757   4.093416   3.609938   3.016985   2.360603
    33  H    4.707317   4.221142   3.670571   2.523960   2.930746
                   31         32         33
    31  H    0.000000
    32  H    2.926938   0.000000
    33  H    2.422212   1.615500   0.000000
 Stoichiometry    C8H20N2O3
 Framework group  C1[X(C8H20N2O3)]
 Deg. of freedom    93
 Full point group                 C1      NOp   1
 Largest Abelian subgroup         C1      NOp   1
 Largest concise Abelian subgroup C1      NOp   1
                         Standard orientation:                         
 ---------------------------------------------------------------------
 Center     Atomic      Atomic             Coordinates (Angstroms)
 Number     Number       Type             X           Y           Z
 ---------------------------------------------------------------------
      1          7           0        6.248562   -0.947346    0.099983
      2          6           0        4.794642   -0.781033    0.113712
      3          6           0        4.359744    0.661823    0.411444
      4          8           0        2.943193    0.770321    0.547265
      5          6           0        2.264847    0.888309   -0.708328
      6          6           0        0.755318    0.860846   -0.466021
      7          8           0        0.344324   -0.489039   -0.223387
      8          6           0       -0.985754   -0.598019    0.283033
      9          6           0       -2.049299   -0.335271   -0.785877
     10          8           0       -3.370893   -0.609156   -0.319156
     11          6           0       -3.911251    0.437419    0.493674
     12          6           0       -5.343720    0.066716    0.901905
     13          7           0       -6.206394   -0.170225   -0.261332
     14          1           0        6.626568   -0.703072    1.014936
     15          1           0        6.665861   -0.297986   -0.564931
     16          1           0        4.396614   -1.104824   -0.853172
     17          1           0        4.359843   -1.456553    0.859137
     18          1           0        4.727170    1.358488   -0.351821
     19          1           0        4.789323    0.975312    1.369652
     20          1           0        2.552795    0.067755   -1.372786
     21          1           0        2.545505    1.845133   -1.161466
     22          1           0        0.240032    1.227487   -1.358992
     23          1           0        0.500083    1.488798    0.394883
     24          1           0       -1.110405    0.057685    1.151746
     25          1           0       -1.108059   -1.620287    0.658620
     26          1           0       -1.861788   -0.996832   -1.639185
     27          1           0       -1.990775    0.686808   -1.176456
     28          1           0       -3.303527    0.564599    1.394962
     29          1           0       -3.912769    1.377046   -0.071072
     30          1           0       -5.327957   -0.851030    1.499644
     31          1           0       -5.774651    0.862520    1.517471
     32          1           0       -5.749417   -0.895423   -0.822607
     33          1           0       -6.199783    0.655625   -0.858149
 ---------------------------------------------------------------------
 Rotational constants (GHZ):           3.1927938           0.1690049           0.1673035
 Standard basis: 6-31G(d,p) (6D, 7F)
 There are   295 symmetry adapted cartesian basis functions of A   symmetry.
 There are   295 symmetry adapted basis functions of A   symmetry.
   295 basis functions,   504 primitive gaussians,   295 cartesian basis functions
    53 alpha electrons       53 beta electrons
       nuclear repulsion energy       817.0955615889 Hartrees.
 NAtoms=   33 NActive=   33 NUniq=   33 SFac= 1.00D+00 NAtFMM=   60 NAOKFM=F Big=F
 Integral buffers will be    131072 words long.
 Raffenetti 2 integral format.
 Two-electron integral symmetry is turned on.
 Force inversion solution in PCM.
 ------------------------------------------------------------------------------
 Polarizable Continuum Model (PCM)
 =================================
 Model                : PCM.
 Atomic radii         : UFF (Universal Force Field).
 Polarization charges : Total charges.
 Charge compensation  : None.
 Solution method      : Matrix inversion.
 Cavity type          : Scaled VdW (van der Waals Surface) (Alpha=1.100).
 Cavity algorithm     : GePol (No added spheres)
                        Default sphere list used, NSphG=   33.
                        Lebedev-Laikov grids with approx.  5.0 points / Ang**2.
                        Smoothing algorithm: York/Karplus (Gamma=1.0000).
                        Polarization charges: spherical gaussians, with
                                              point-specific exponents (IZeta= 3).
                        Self-potential: point-specific (ISelfS= 7).
                        Self-field    : sphere-specific E.n sum rule (ISelfD= 2).
 1st derivatives      : Analytical E(r).r(x)/FMM algorithm (CHGder, D1EAlg=3).
                        Cavity 1st derivative terms included.
 2nd derivatives      : Analytical E(r).r(xy)/FMM algorithm (CHGder, D2EAlg=3).
                        Cavity 2nd derivative terms included.
 Solvent              : Water, Eps=  78.355300 Eps(inf)=   1.777849
 ------------------------------------------------------------------------------
 One-electron integrals computed using PRISM.
 NBasis=   295 RedAO= T EigKep=  3.20D-03  NBF=   295
 NBsUse=   295 1.00D-06 EigRej= -1.00D+00 NBFU=   295
 ExpMin= 1.61D-01 ExpMax= 5.48D+03 ExpMxC= 8.25D+02 IAcc=3 IRadAn=         5 AccDes= 0.00D+00
 Harris functional with IExCor=  402 and IRadAn=       5 diagonalized for initial guess.
 HarFok:  IExCor=  402 AccDes= 0.00D+00 IRadAn=         5 IDoV= 1 UseB2=F ITyADJ=14
 ICtDFT=  3500011 ScaDFX=  1.000000  1.000000  1.000000  1.000000
 FoFCou: FMM=F IPFlag=           0 FMFlag=      100000 FMFlg1=           0
         NFxFlg=           0 DoJE=T BraDBF=F KetDBF=T FulRan=T
         wScrn=  0.000000 ICntrl=       500 IOpCl=  0 I1Cent=   200000004 NGrid=           0
         NMat0=    1 NMatS0=      1 NMatT0=    0 NMatD0=    1 NMtDS0=    0 NMtDT0=    0
 Petite list used in FoFCou.
 Requested convergence on RMS density matrix=1.00D-08 within  32 cycles.
 Requested convergence on MAX density matrix=1.00D-06.
 Requested convergence on             energy=1.00D-06.
 No special actions if energy rises.
 Inv3:  Mode=1 IEnd=    17121963.
 Iteration    1 A*A^-1 deviation from unit magnitude is 2.78D-15 for   1277.
 Iteration    1 A*A^-1 deviation from orthogonality  is 1.53D-15 for   1929    618.
 Iteration    1 A^-1*A deviation from unit magnitude is 2.89D-15 for    630.
 Iteration    1 A^-1*A deviation from orthogonality  is 4.47D-11 for   2245   2214.
 Error on total polarization charges =  0.01018
 SCF Done:  E(RB3LYP) =  -652.044909573     A.U. after   11 cycles
            NFock= 11  Conv=0.61D-08     -V/T= 2.0092
 QCSCF skips out because SCF is already converged.
 DoSCS=F DFT=T ScalE2(SS,OS)=  1.000000  1.000000
 Range of M.O.s used for correlation:     1   295
 NBasis=   295 NAE=    53 NBE=    53 NFC=     0 NFV=     0
 NROrb=    295 NOA=    53 NOB=    53 NVA=   242 NVB=   242
 Symmetrizing basis deriv contribution to polar:
 IMax=3 JMax=2 DiffMx= 0.00D+00
 G2DrvN: will do    34 centers at a time, making    1 passes.
 Calling FoFCou, ICntrl=  3107 FMM=F I1Cent=   0 AccDes= 0.00D+00.
 NEqPCM:  Using equilibrium solvation (IEInf=0, Eps=  78.3553, EpsInf=   1.7778)
 G2PCM: DoFxE=T DoFxN=T DoGrad=T DoDP/DQ/DG/TGxP=FFFF NFrqRd=   0 IEInf=0 SqF1=F DoCFld=F IF1Alg=4.
 End of G2Drv F.D. properties file   721 does not exist.
 End of G2Drv F.D. properties file   722 does not exist.
 End of G2Drv F.D. properties file   788 does not exist.
          IDoAtm=111111111111111111111111111111111
 NEqPCM:  Using equilibrium solvation (IEInf=0, Eps=  78.3553, EpsInf=   1.7778)
          Differentiating once with respect to nuclear coordinates.
 Keep R1 ints in memory in canonical form, NReq=967079629.
          There are   102 degrees of freedom in the 1st order CPHF.  IDoFFX=6 NUNeed=     0.
     96 vectors produced by pass  0 Test12= 1.28D-14 1.00D-09 XBig12= 9.51D-02 6.30D-02.
 AX will form    96 AO Fock derivatives at one time.
     96 vectors produced by pass  1 Test12= 1.28D-14 1.00D-09 XBig12= 6.19D-03 1.68D-02.
     96 vectors produced by pass  2 Test12= 1.28D-14 1.00D-09 XBig12= 1.00D-04 1.38D-03.
     96 vectors produced by pass  3 Test12= 1.28D-14 1.00D-09 XBig12= 5.92D-07 1.19D-04.
     96 vectors produced by pass  4 Test12= 1.28D-14 1.00D-09 XBig12= 7.65D-10 3.64D-06.
     47 vectors produced by pass  5 Test12= 1.28D-14 1.00D-09 XBig12= 5.02D-13 9.93D-08.
      3 vectors produced by pass  6 Test12= 1.28D-14 1.00D-09 XBig12= 3.21D-16 2.33D-09.
 InvSVY:  IOpt=1 It=  1 EMax= 4.44D-16
 Solved reduced A of dimension   530 with   102 vectors.
 End of Minotr F.D. properties file   721 does not exist.
 End of Minotr F.D. properties file   722 does not exist.
 End of Minotr F.D. properties file   788 does not exist.

 **********************************************************************

            Population analysis using the SCF density.

 **********************************************************************

 Orbital symmetries:
       Occupied  (A) (A) (A) (A) (A) (A) (A) (A) (A) (A) (A) (A)
                 (A) (A) (A) (A) (A) (A) (A) (A) (A) (A) (A) (A)
                 (A) (A) (A) (A) (A) (A) (A) (A) (A) (A) (A) (A)
                 (A) (A) (A) (A) (A) (A) (A) (A) (A) (A) (A) (A)
                 (A) (A) (A) (A) (A)
       Virtual   (A) (A) (A) (A) (A) (A) (A) (A) (A) (A) (A) (A)
                 (A) (A) (A) (A) (A) (A) (A) (A) (A) (A) (A) (A)
                 (A) (A) (A) (A) (A) (A) (A) (A) (A) (A) (A) (A)
                 (A) (A) (A) (A) (A) (A) (A) (A) (A) (A) (A) (A)
                 (A) (A) (A) (A) (A) (A) (A) (A) (A) (A) (A) (A)
                 (A) (A) (A) (A) (A) (A) (A) (A) (A) (A) (A) (A)
                 (A) (A) (A) (A) (A) (A) (A) (A) (A) (A) (A) (A)
                 (A) (A) (A) (A) (A) (A) (A) (A) (A) (A) (A) (A)
                 (A) (A) (A) (A) (A) (A) (A) (A) (A) (A) (A) (A)
                 (A) (A) (A) (A) (A) (A) (A) (A) (A) (A) (A) (A)
                 (A) (A) (A) (A) (A) (A) (A) (A) (A) (A) (A) (A)
                 (A) (A) (A) (A) (A) (A) (A) (A) (A) (A) (A) (A)
                 (A) (A) (A) (A) (A) (A) (A) (A) (A) (A) (A) (A)
                 (A) (A) (A) (A) (A) (A) (A) (A) (A) (A) (A) (A)
                 (A) (A) (A) (A) (A) (A) (A) (A) (A) (A) (A) (A)
                 (A) (A) (A) (A) (A) (A) (A) (A) (A) (A) (A) (A)
                 (A) (A) (A) (A) (A) (A) (A) (A) (A) (A) (A) (A)
                 (A) (A) (A) (A) (A) (A) (A) (A) (A) (A) (A) (A)
                 (A) (A) (A) (A) (A) (A) (A) (A) (A) (A) (A) (A)
                 (A) (A) (A) (A) (A) (A) (A) (A) (A) (A) (A) (A)
                 (A) (A)
 The electronic state is 1-A.
 Alpha  occ. eigenvalues --  -19.15375 -19.15190 -19.14618 -14.31362 -14.30919
 Alpha  occ. eigenvalues --  -10.23367 -10.23232 -10.23069 -10.23004 -10.22661
 Alpha  occ. eigenvalues --  -10.22482 -10.20682 -10.20365  -1.03630  -1.02882
 Alpha  occ. eigenvalues --   -1.01923  -0.87843  -0.87614  -0.77251  -0.74235
 Alpha  occ. eigenvalues --   -0.70908  -0.68872  -0.63580  -0.61447  -0.59816
 Alpha  occ. eigenvalues --   -0.58655  -0.50967  -0.50325  -0.50061  -0.49109
 Alpha  occ. eigenvalues --   -0.48514  -0.46772  -0.46037  -0.45384  -0.44341
 Alpha  occ. eigenvalues --   -0.43629  -0.41832  -0.41342  -0.40263  -0.38795
 Alpha  occ. eigenvalues --   -0.38320  -0.37637  -0.36753  -0.35782  -0.34657
 Alpha  occ. eigenvalues --   -0.32116  -0.31325  -0.31202  -0.28131  -0.27055
 Alpha  occ. eigenvalues --   -0.24417  -0.23803  -0.22767
 Alpha virt. eigenvalues --    0.07638   0.08348   0.09275   0.09597   0.11143
 Alpha virt. eigenvalues --    0.12411   0.12662   0.13039   0.13588   0.13882
 Alpha virt. eigenvalues --    0.14407   0.14970   0.15975   0.16477   0.17148
 Alpha virt. eigenvalues --    0.17610   0.18401   0.18938   0.19779   0.20479
 Alpha virt. eigenvalues --    0.21215   0.22476   0.22891   0.23429   0.24743
 Alpha virt. eigenvalues --    0.25738   0.25957   0.26285   0.26577   0.26998
 Alpha virt. eigenvalues --    0.27368   0.28743   0.49672   0.50912   0.51776
 Alpha virt. eigenvalues --    0.52043   0.53357   0.54322   0.55409   0.56046
 Alpha virt. eigenvalues --    0.56746   0.57483   0.57742   0.59324   0.59930
 Alpha virt. eigenvalues --    0.61420   0.63324   0.63718   0.64835   0.66337
 Alpha virt. eigenvalues --    0.66794   0.67132   0.70562   0.71678   0.72799
 Alpha virt. eigenvalues --    0.73481   0.76140   0.77227   0.78300   0.78938
 Alpha virt. eigenvalues --    0.79268   0.81777   0.82089   0.82809   0.83752
 Alpha virt. eigenvalues --    0.85085   0.85223   0.86205   0.87358   0.87783
 Alpha virt. eigenvalues --    0.88614   0.88976   0.89484   0.90142   0.91915
 Alpha virt. eigenvalues --    0.92279   0.93212   0.94075   0.94320   0.94747
 Alpha virt. eigenvalues --    0.95961   0.98195   0.99037   1.01259   1.03199
 Alpha virt. eigenvalues --    1.06135   1.09886   1.11078   1.12246   1.15271
 Alpha virt. eigenvalues --    1.17409   1.18252   1.24296   1.27130   1.28547
 Alpha virt. eigenvalues --    1.30694   1.31613   1.33267   1.35925   1.38074
 Alpha virt. eigenvalues --    1.38600   1.40185   1.41939   1.45024   1.46154
 Alpha virt. eigenvalues --    1.49390   1.52282   1.56303   1.57722   1.59617
 Alpha virt. eigenvalues --    1.60532   1.61845   1.62832   1.67940   1.70118
 Alpha virt. eigenvalues --    1.71529   1.72155   1.72536   1.74566   1.76706
 Alpha virt. eigenvalues --    1.77861   1.80207   1.83798   1.85182   1.88033
 Alpha virt. eigenvalues --    1.88339   1.91032   1.91873   1.93841   1.94518
 Alpha virt. eigenvalues --    1.95102   1.96129   1.96670   1.96903   1.99620
 Alpha virt. eigenvalues --    2.00119   2.00665   2.01091   2.02103   2.02897
 Alpha virt. eigenvalues --    2.04319   2.04939   2.05658   2.08049   2.08563
 Alpha virt. eigenvalues --    2.10525   2.12575   2.13917   2.14478   2.16443
 Alpha virt. eigenvalues --    2.18138   2.21195   2.22309   2.23924   2.24943
 Alpha virt. eigenvalues --    2.25905   2.26377   2.26685   2.28742   2.29812
 Alpha virt. eigenvalues --    2.31190   2.31740   2.32685   2.33856   2.35364
 Alpha virt. eigenvalues --    2.35587   2.37394   2.39861   2.41048   2.46045
 Alpha virt. eigenvalues --    2.48857   2.49394   2.50213   2.52328   2.57121
 Alpha virt. eigenvalues --    2.60505   2.62168   2.63290   2.64303   2.65150
 Alpha virt. eigenvalues --    2.65870   2.67492   2.68675   2.69366   2.70156
 Alpha virt. eigenvalues --    2.70372   2.71745   2.73285   2.74781   2.76926
 Alpha virt. eigenvalues --    2.78308   2.80921   2.81339   2.82457   2.85096
 Alpha virt. eigenvalues --    2.85776   2.86793   2.90236   2.91360   2.92250
 Alpha virt. eigenvalues --    2.92545   2.96734   2.98104   2.98713   2.99262
 Alpha virt. eigenvalues --    2.99985   2.99996   3.02875   3.06932   3.23222
 Alpha virt. eigenvalues --    3.24547   3.25510   3.27490   3.29427   3.29639
 Alpha virt. eigenvalues --    3.30072   3.31886   3.33496   3.35568   3.37474
 Alpha virt. eigenvalues --    3.39024   3.41683   3.43368   3.48797   3.50131
 Alpha virt. eigenvalues --    3.52482   3.54906   3.58336   3.59119   3.88933
 Alpha virt. eigenvalues --    3.92334   3.97199   4.06673   4.09984   4.36660
 Alpha virt. eigenvalues --    4.38017   4.38937   4.40906   4.58264   4.59686
 Alpha virt. eigenvalues --    4.64431   4.67670
          Condensed to atoms (all electrons):
               1          2          3          4          5          6
     1  N    6.763903   0.289026  -0.055024   0.003151   0.000147   0.000000
     2  C    0.289026   4.900056   0.353781  -0.038836  -0.007181   0.000049
     3  C   -0.055024   0.353781   4.835424   0.207368  -0.029842   0.004345
     4  O    0.003151  -0.038836   0.207368   8.289974   0.231939  -0.039491
     5  C    0.000147  -0.007181  -0.029842   0.231939   4.762480   0.375989
     6  C    0.000000   0.000049   0.004345  -0.039491   0.375989   4.766869
     7  O    0.000000   0.000019  -0.000119   0.002125  -0.039862   0.230535
     8  C    0.000000   0.000000   0.000006  -0.000077   0.003934  -0.034033
     9  C   -0.000000   0.000000  -0.000000   0.000002   0.000129  -0.006200
    10  O   -0.000000   0.000000  -0.000000   0.000000  -0.000000   0.000029
    11  C    0.000000  -0.000000   0.000000  -0.000000  -0.000000  -0.000004
    12  C    0.000000  -0.000000   0.000000  -0.000000   0.000000  -0.000000
    13  N    0.000000  -0.000000   0.000000   0.000000   0.000000   0.000000
    14  H    0.347853  -0.047127  -0.002869   0.000044   0.000006   0.000000
    15  H    0.347996  -0.045985  -0.003476   0.000013   0.000003  -0.000000
    16  H   -0.034025   0.384700  -0.045154   0.001524   0.001379  -0.000176
    17  H   -0.032153   0.381273  -0.044358   0.004902  -0.000174  -0.000007
    18  H    0.004261  -0.050990   0.361277  -0.029994  -0.010056   0.000093
    19  H    0.003126  -0.048379   0.381460  -0.031592   0.005279  -0.000263
    20  H   -0.000395   0.003664  -0.000319  -0.044447   0.357919  -0.033625
    21  H    0.000038  -0.000786  -0.010916  -0.040098   0.364072  -0.033671
    22  H   -0.000000   0.000004  -0.000175   0.002885  -0.035809   0.364136
    23  H   -0.000000   0.000004   0.000137   0.000748  -0.032184   0.358741
    24  H    0.000000  -0.000000  -0.000001  -0.000023   0.000159  -0.011690
    25  H   -0.000000  -0.000000  -0.000000   0.000003  -0.000224   0.005707
    26  H   -0.000000   0.000000  -0.000000   0.000000  -0.000061  -0.000424
    27  H   -0.000000  -0.000000   0.000000  -0.000001   0.000037   0.003035
    28  H   -0.000000   0.000000  -0.000000   0.000000  -0.000000  -0.000011
    29  H    0.000000  -0.000000   0.000000  -0.000000   0.000000  -0.000000
    30  H    0.000000  -0.000000   0.000000  -0.000000   0.000000   0.000000
    31  H    0.000000   0.000000   0.000000  -0.000000   0.000000   0.000000
    32  H    0.000000  -0.000000   0.000000  -0.000000   0.000000   0.000000
    33  H    0.000000   0.000000   0.000000  -0.000000   0.000000  -0.000000
               7          8          9         10         11         12
     1  N    0.000000   0.000000  -0.000000  -0.000000   0.000000   0.000000
     2  C    0.000019   0.000000   0.000000   0.000000  -0.000000  -0.000000
     3  C   -0.000119   0.000006  -0.000000  -0.000000   0.000000   0.000000
     4  O    0.002125  -0.000077   0.000002   0.000000  -0.000000  -0.000000
     5  C   -0.039862   0.003934   0.000129  -0.000000  -0.000000   0.000000
     6  C    0.230535  -0.034033  -0.006200   0.000029  -0.000004  -0.000000
     7  O    8.270511   0.225221  -0.034874   0.001308   0.000080   0.000000
     8  C    0.225221   4.828139   0.326306  -0.034151  -0.006576   0.000017
     9  C   -0.034874   0.326306   4.833950   0.222145  -0.032784   0.003593
    10  O    0.001308  -0.034151   0.222145   8.263052   0.236106  -0.044108
    11  C    0.000080  -0.006576  -0.032784   0.236106   4.818287   0.367801
    12  C    0.000000   0.000017   0.003593  -0.044108   0.367801   4.831069
    13  N    0.000000   0.000001   0.000145  -0.005855  -0.061199   0.322291
    14  H    0.000000  -0.000000   0.000000  -0.000000   0.000000  -0.000000
    15  H   -0.000000   0.000000  -0.000000   0.000000   0.000000   0.000000
    16  H    0.000011   0.000000   0.000000  -0.000000  -0.000000  -0.000000
    17  H    0.000025   0.000000   0.000000  -0.000000  -0.000000  -0.000000
    18  H   -0.000001  -0.000000   0.000000   0.000000   0.000000   0.000000
    19  H    0.000003  -0.000000   0.000000   0.000000  -0.000000  -0.000000
    20  H    0.000104  -0.000120  -0.000025   0.000000   0.000000   0.000000
    21  H    0.002908  -0.000142   0.000006  -0.000000  -0.000000  -0.000000
    22  H   -0.043914  -0.001748   0.003099  -0.000115  -0.000020  -0.000000
    23  H   -0.039570  -0.009939  -0.001776   0.000024   0.000003   0.000000
    24  H   -0.031871   0.372969  -0.051519   0.001620   0.001661  -0.000037
    25  H   -0.030763   0.382225  -0.044489   0.005143  -0.000080  -0.000025
    26  H    0.005539  -0.044918   0.380464  -0.031014   0.005538  -0.000217
    27  H    0.000981  -0.050344   0.372715  -0.030608  -0.010873   0.000237
    28  H   -0.000150   0.002604  -0.001161  -0.043347   0.350689  -0.032831
    29  H    0.000019  -0.001138  -0.010842  -0.041709   0.364172  -0.032827
    30  H    0.000000  -0.000023  -0.000134   0.000834  -0.042652   0.384236
    31  H   -0.000000   0.000001  -0.000149   0.002540  -0.038843   0.380096
    32  H   -0.000000   0.000024  -0.000272   0.015920  -0.009163  -0.048656
    33  H   -0.000000   0.000001  -0.000036  -0.000239  -0.002246  -0.045833
              13         14         15         16         17         18
     1  N    0.000000   0.347853   0.347996  -0.034025  -0.032153   0.004261
     2  C   -0.000000  -0.047127  -0.045985   0.384700   0.381273  -0.050990
     3  C    0.000000  -0.002869  -0.003476  -0.045154  -0.044358   0.361277
     4  O    0.000000   0.000044   0.000013   0.001524   0.004902  -0.029994
     5  C    0.000000   0.000006   0.000003   0.001379  -0.000174  -0.010056
     6  C    0.000000   0.000000  -0.000000  -0.000176  -0.000007   0.000093
     7  O    0.000000   0.000000  -0.000000   0.000011   0.000025  -0.000001
     8  C    0.000001  -0.000000   0.000000   0.000000   0.000000  -0.000000
     9  C    0.000145   0.000000  -0.000000   0.000000   0.000000   0.000000
    10  O   -0.005855  -0.000000   0.000000  -0.000000  -0.000000   0.000000
    11  C   -0.061199   0.000000   0.000000  -0.000000  -0.000000   0.000000
    12  C    0.322291  -0.000000   0.000000  -0.000000  -0.000000   0.000000
    13  N    6.769271   0.000000   0.000000   0.000000  -0.000000  -0.000000
    14  H    0.000000   0.475209  -0.033261   0.006395  -0.005962  -0.000397
    15  H    0.000000  -0.033261   0.473825  -0.004728   0.006292   0.005176
    16  H    0.000000   0.006395  -0.004728   0.617331  -0.038468  -0.006250
    17  H   -0.000000  -0.005962   0.006292  -0.038468   0.616306   0.006218
    18  H   -0.000000  -0.000397   0.005176  -0.006250   0.006218   0.658984
    19  H    0.000000   0.005604  -0.000479   0.005853  -0.006330  -0.040642
    20  H   -0.000000  -0.000005   0.000004   0.000765  -0.000006  -0.001746
    21  H   -0.000000   0.000002   0.000004   0.000230   0.000084   0.011740
    22  H    0.000000   0.000000   0.000000   0.000007   0.000001   0.000016
    23  H   -0.000000  -0.000000   0.000000  -0.000009   0.000004   0.000013
    24  H    0.000000   0.000000   0.000000  -0.000000   0.000000   0.000000
    25  H    0.000001   0.000000  -0.000000   0.000000  -0.000000   0.000000
    26  H    0.000035  -0.000000   0.000000  -0.000000   0.000000   0.000000
    27  H   -0.000073  -0.000000  -0.000000   0.000000  -0.000000  -0.000000
    28  H    0.005954  -0.000000  -0.000000   0.000000   0.000000  -0.000000
    29  H   -0.005567  -0.000000  -0.000000  -0.000000  -0.000000   0.000000
    30  H   -0.042721   0.000000  -0.000000  -0.000000  -0.000000   0.000000
    31  H   -0.035938   0.000000  -0.000000   0.000000   0.000000  -0.000000
    32  H    0.344003   0.000000  -0.000000   0.000000   0.000000  -0.000000
    33  H    0.343389   0.000000   0.000000   0.000000  -0.000000  -0.000000
              19         20         21         22         23         24
     1  N    0.003126  -0.000395   0.000038  -0.000000  -0.000000   0.000000
     2  C   -0.048379   0.003664  -0.000786   0.000004   0.000004  -0.000000
     3  C    0.381460  -0.000319  -0.010916  -0.000175   0.000137  -0.000001
     4  O   -0.031592  -0.044447  -0.040098   0.002885   0.000748  -0.000023
     5  C    0.005279   0.357919   0.364072  -0.035809  -0.032184   0.000159
     6  C   -0.000263  -0.033625  -0.033671   0.364136   0.358741  -0.011690
     7  O    0.000003   0.000104   0.002908  -0.043914  -0.039570  -0.031871
     8  C   -0.000000  -0.000120  -0.000142  -0.001748  -0.009939   0.372969
     9  C    0.000000  -0.000025   0.000006   0.003099  -0.001776  -0.051519
    10  O    0.000000   0.000000  -0.000000  -0.000115   0.000024   0.001620
    11  C   -0.000000   0.000000  -0.000000  -0.000020   0.000003   0.001661
    12  C   -0.000000   0.000000  -0.000000  -0.000000   0.000000  -0.000037
    13  N    0.000000  -0.000000  -0.000000   0.000000  -0.000000   0.000000
    14  H    0.005604  -0.000005   0.000002   0.000000  -0.000000   0.000000
    15  H   -0.000479   0.000004   0.000004   0.000000   0.000000   0.000000
    16  H    0.005853   0.000765   0.000230   0.000007  -0.000009  -0.000000
    17  H   -0.006330  -0.000006   0.000084   0.000001   0.000004   0.000000
    18  H   -0.040642  -0.001746   0.011740   0.000016   0.000013   0.000000
    19  H    0.624744  -0.000322   0.000299   0.000004  -0.000036   0.000000
    20  H   -0.000322   0.656529  -0.049878  -0.001596   0.006879   0.000053
    21  H    0.000299  -0.049878   0.654176   0.002294  -0.001989   0.000006
    22  H    0.000004  -0.001596   0.002294   0.654830  -0.048255  -0.001442
    23  H   -0.000036   0.006879  -0.001989  -0.048255   0.646648   0.014562
    24  H    0.000000   0.000053   0.000006  -0.001442   0.014562   0.644432
    25  H    0.000000  -0.000005   0.000003  -0.000298   0.000092  -0.041800
    26  H    0.000000   0.000024  -0.000000   0.000014   0.000234   0.006277
    27  H    0.000000   0.000007  -0.000002   0.000064   0.000358  -0.006511
    28  H    0.000000   0.000000   0.000000   0.000007   0.000006   0.001380
    29  H   -0.000000   0.000000  -0.000000  -0.000012   0.000019   0.000305
    30  H   -0.000000   0.000000  -0.000000  -0.000000   0.000000   0.000020
    31  H   -0.000000  -0.000000   0.000000   0.000000  -0.000000   0.000003
    32  H    0.000000  -0.000000   0.000000   0.000000  -0.000000  -0.000002
    33  H    0.000000  -0.000000   0.000000   0.000000   0.000000   0.000000
              25         26         27         28         29         30
     1  N   -0.000000  -0.000000  -0.000000  -0.000000   0.000000   0.000000
     2  C   -0.000000   0.000000  -0.000000   0.000000  -0.000000  -0.000000
     3  C   -0.000000  -0.000000   0.000000  -0.000000   0.000000   0.000000
     4  O    0.000003   0.000000  -0.000001   0.000000  -0.000000  -0.000000
     5  C   -0.000224  -0.000061   0.000037  -0.000000   0.000000   0.000000
     6  C    0.005707  -0.000424   0.003035  -0.000011  -0.000000   0.000000
     7  O   -0.030763   0.005539   0.000981  -0.000150   0.000019   0.000000
     8  C    0.382225  -0.044918  -0.050344   0.002604  -0.001138  -0.000023
     9  C   -0.044489   0.380464   0.372715  -0.001161  -0.010842  -0.000134
    10  O    0.005143  -0.031014  -0.030608  -0.043347  -0.041709   0.000834
    11  C   -0.000080   0.005538  -0.010873   0.350689   0.364172  -0.042652
    12  C   -0.000025  -0.000217   0.000237  -0.032831  -0.032827   0.384236
    13  N    0.000001   0.000035  -0.000073   0.005954  -0.005567  -0.042721
    14  H    0.000000  -0.000000  -0.000000  -0.000000  -0.000000   0.000000
    15  H   -0.000000   0.000000  -0.000000  -0.000000  -0.000000  -0.000000
    16  H    0.000000  -0.000000   0.000000   0.000000  -0.000000  -0.000000
    17  H   -0.000000   0.000000  -0.000000   0.000000  -0.000000  -0.000000
    18  H    0.000000   0.000000  -0.000000  -0.000000   0.000000   0.000000
    19  H    0.000000   0.000000   0.000000   0.000000  -0.000000  -0.000000
    20  H   -0.000005   0.000024   0.000007   0.000000   0.000000   0.000000
    21  H    0.000003  -0.000000  -0.000002   0.000000  -0.000000  -0.000000
    22  H   -0.000298   0.000014   0.000064   0.000007  -0.000012  -0.000000
    23  H    0.000092   0.000234   0.000358   0.000006   0.000019   0.000000
    24  H   -0.041800   0.006277  -0.006511   0.001380   0.000305   0.000020
    25  H    0.613322  -0.007548   0.006136  -0.000048   0.000128   0.000024
    26  H   -0.007548   0.615699  -0.042000  -0.000215   0.000223   0.000009
    27  H    0.006136  -0.042000   0.643516  -0.001793   0.013673   0.000040
    28  H   -0.000048  -0.000215  -0.001793   0.678984  -0.051893  -0.004438
    29  H    0.000128   0.000223   0.013673  -0.051893   0.660967   0.006134
    30  H    0.000024   0.000009   0.000040  -0.004438   0.006134   0.614500
    31  H    0.000001   0.000004   0.000013   0.001708  -0.001333  -0.031454
    32  H    0.000002  -0.000053   0.000064   0.000601  -0.000040  -0.005007
    33  H    0.000000   0.000003   0.000004   0.000038   0.005164   0.006637
              31         32         33
     1  N    0.000000   0.000000   0.000000
     2  C    0.000000  -0.000000   0.000000
     3  C    0.000000   0.000000   0.000000
     4  O   -0.000000  -0.000000  -0.000000
     5  C    0.000000   0.000000   0.000000
     6  C    0.000000   0.000000  -0.000000
     7  O   -0.000000  -0.000000  -0.000000
     8  C    0.000001   0.000024   0.000001
     9  C   -0.000149  -0.000272  -0.000036
    10  O    0.002540   0.015920  -0.000239
    11  C   -0.038843  -0.009163  -0.002246
    12  C    0.380096  -0.048656  -0.045833
    13  N   -0.035938   0.344003   0.343389
    14  H    0.000000   0.000000   0.000000
    15  H   -0.000000  -0.000000   0.000000
    16  H    0.000000   0.000000   0.000000
    17  H    0.000000   0.000000  -0.000000
    18  H   -0.000000  -0.000000  -0.000000
    19  H   -0.000000   0.000000   0.000000
    20  H   -0.000000  -0.000000  -0.000000
    21  H    0.000000   0.000000   0.000000
    22  H    0.000000   0.000000   0.000000
    23  H   -0.000000  -0.000000   0.000000
    24  H    0.000003  -0.000002   0.000000
    25  H    0.000001   0.000002   0.000000
    26  H    0.000004  -0.000053   0.000003
    27  H    0.000013   0.000064   0.000004
    28  H    0.001708   0.000601   0.000038
    29  H   -0.001333  -0.000040   0.005164
    30  H   -0.031454  -0.005007   0.006637
    31  H    0.606848   0.006563  -0.004872
    32  H    0.006563   0.476489  -0.033555
    33  H   -0.004872  -0.033555   0.483405
 Mulliken charges:
               1
     1  N   -0.637904
     2  C   -0.073294
     3  C    0.048457
     4  O   -0.520121
     5  C    0.051919
     6  C    0.050067
     7  O   -0.518270
     8  C    0.041762
     9  C    0.041706
    10  O   -0.517572
    11  C    0.060102
    12  C   -0.084806
    13  N   -0.633738
    14  H    0.254506
    15  H    0.254616
    16  H    0.110615
    17  H    0.112354
    18  H    0.092299
    19  H    0.101672
    20  H    0.106542
    21  H    0.101621
    22  H    0.106024
    23  H    0.105286
    24  H    0.101449
    25  H    0.112493
    26  H    0.112389
    27  H    0.101325
    28  H    0.093917
    29  H    0.094557
    30  H    0.113995
    31  H    0.114811
    32  H    0.253082
    33  H    0.248140
 Sum of Mulliken charges =  -0.00000
 Mulliken charges with hydrogens summed into heavy atoms:
               1
     1  N   -0.128782
     2  C    0.149675
     3  C    0.242428
     4  O   -0.520121
     5  C    0.260082
     6  C    0.261376
     7  O   -0.518270
     8  C    0.255703
     9  C    0.255420
    10  O   -0.517572
    11  C    0.248576
    12  C    0.144000
    13  N   -0.132516
 APT charges:
               1
     1  N   -1.629437
     2  C   -0.050389
     3  C   -0.906223
     4  O   -0.412510
     5  C   -0.545890
     6  C   -0.478865
     7  O   -0.439407
     8  C   -0.518961
     9  C   -0.447797
    10  O   -0.419170
    11  C   -0.219132
    12  C   -1.003118
    13  N   -0.361660
    14  H    0.778433
    15  H    0.738261
    16  H    0.102712
    17  H    0.135541
    18  H    0.463871
    19  H    0.600778
    20  H    0.342137
    21  H    0.491226
    22  H    0.327345
    23  H    0.267943
    24  H    0.280368
    25  H    0.413590
    26  H    0.365060
    27  H    0.261650
    28  H    0.081420
    29  H    0.295134
    30  H    0.365982
    31  H    0.691708
    32  H    0.017229
    33  H    0.412172
 Sum of APT charges =  -0.00000
 APT charges with hydrogens summed into heavy atoms:
               1
     1  N   -0.112742
     2  C    0.187863
     3  C    0.158426
     4  O   -0.412510
     5  C    0.287473
     6  C    0.116423
     7  O   -0.439407
     8  C    0.174996
     9  C    0.178914
    10  O   -0.419170
    11  C    0.157422
    12  C    0.054571
    13  N    0.067742
 Electronic spatial extent (au):  <R**2>=           6408.3113
 Charge=             -0.0000 electrons
 Dipole moment (field-independent basis, Debye):
    X=              2.0172    Y=              4.4630    Z=             -0.9768  Tot=              4.9942
 Quadrupole moment (field-independent basis, Debye-Ang):
   XX=            -96.1952   YY=            -82.7767   ZZ=            -76.2875
   XY=              3.6198   XZ=             -0.0564   YZ=             -2.7648
 Traceless Quadrupole moment (field-independent basis, Debye-Ang):
   XX=            -11.1087   YY=              2.3098   ZZ=              8.7989
   XY=              3.6198   XZ=             -0.0564   YZ=             -2.7648
 Octapole moment (field-independent basis, Debye-Ang**2):
  XXX=            241.4093  YYY=              4.9791  ZZZ=             -1.4027  XYY=            -27.8077
  XXY=            121.8759  XXZ=              5.9508  XZZ=             -0.3080  YZZ=             -1.4880
  YYZ=             -1.5984  XYZ=             -7.2310
 Hexadecapole moment (field-independent basis, Debye-Ang**3):
 XXXX=          -8988.1385 YYYY=           -351.1924 ZZZZ=           -269.9404 XXXY=            226.2960
 XXXZ=            197.1635 YYYX=             51.6531 YYYZ=             -3.0841 ZZZX=             30.2259
 ZZZY=              2.4703 XXYY=          -1441.4505 XXZZ=          -1177.8188 YYZZ=            -97.9868
 XXYZ=            -40.9630 YYXZ=             10.0671 ZZXY=             -2.9137
 N-N= 8.170955615889D+02 E-N=-3.154914192535D+03  KE= 6.460705866483D+02
  Exact polarizability:   0.000   0.000   0.000   0.000   0.000   0.000
 Approx polarizability: 154.294   0.583 141.390  -0.888  -0.917 145.040
 D2PCM: PCM CHGder 2nd derivatives, FixD1E=F FixD2E=F DoIter=F DoCFld=F I1PDM=0
 Calling FoFJK, ICntrl=    100147 FMM=F ISym2X=0 I1Cent= 0 IOpClX= 0 NMat=1 NMatS=1 NMatT=0.
 ***** Axes restored to original set *****
 -------------------------------------------------------------------
 Center     Atomic                   Forces (Hartrees/Bohr)
 Number     Number              X              Y              Z
 -------------------------------------------------------------------
      1        7           0.003041847   -0.004879365   -0.000677309
      2        6           0.003466300    0.004721933   -0.000385426
      3        6          -0.007482227   -0.006658034    0.002664106
      4        8          -0.003125858    0.000917874   -0.001620192
      5        6          -0.004443954   -0.002414143    0.012175590
      6        6           0.006573001   -0.008534022   -0.006061363
      7        8          -0.001872535   -0.001075673    0.002874684
      8        6           0.003687148   -0.003330227    0.001875112
      9        6          -0.003093495   -0.001118978   -0.004634422
     10        8           0.001411567    0.000911792    0.001640740
     11        6          -0.001941491   -0.006668026    0.006500810
     12        6           0.005872101    0.001925565   -0.012413912
     13        7          -0.002844927   -0.006397891   -0.004036703
     14        1          -0.000000018    0.001281735   -0.001396459
     15        1          -0.000421178   -0.000134094    0.000852454
     16        1           0.000524432    0.000668801   -0.001320613
     17        1           0.000469331    0.001382230    0.002018708
     18        1           0.002020850    0.000858690   -0.002771005
     19        1          -0.000490093   -0.000220762    0.000762148
     20        1          -0.001731783    0.001266755   -0.003857334
     21        1          -0.000761729    0.002691562   -0.004627912
     22        1           0.000767680    0.006150449    0.000593971
     23        1           0.000045215    0.003158444    0.000984658
     24        1          -0.001071750    0.003755684    0.001443859
     25        1           0.001883582    0.000020328   -0.002778148
     26        1          -0.001183335   -0.002415915    0.000922855
     27        1          -0.000360965    0.002797988    0.002347536
     28        1           0.001916860    0.003111035    0.002934708
     29        1           0.000135844    0.003316886    0.000163743
     30        1           0.000545307    0.000173438    0.001502790
     31        1           0.001741578    0.000687136    0.000930849
     32        1          -0.003015207    0.002899365    0.002340996
     33        1          -0.000262096    0.001149442    0.001050482
 -------------------------------------------------------------------
 Cartesian Forces:  Max     0.012413912 RMS     0.003456632
 FormGI is forming the generalized inverse of G from B-inverse, IUseBI=4.

 GradGradGradGradGradGradGradGradGradGradGradGradGradGradGradGradGradGrad
 Berny optimization.
 Internal  Forces:  Max     0.012034355 RMS     0.002497660
 Search for a local minimum.
 Step number   1 out of a maximum of  165
 All quantities printed in internal units (Hartrees-Bohrs-Radians)
 Mixed Optimization -- RFO/linear search
 Second derivative matrix not updated -- analytic derivatives used.
 ITU=  0
     Eigenvalues ---    0.00106   0.00118   0.00213   0.00268   0.00290
     Eigenvalues ---    0.00310   0.00330   0.00361   0.00447   0.00612
     Eigenvalues ---    0.00648   0.00766   0.03239   0.03834   0.04427
     Eigenvalues ---    0.04453   0.04498   0.04553   0.04651   0.04674
     Eigenvalues ---    0.04782   0.04932   0.04967   0.05032   0.05419
     Eigenvalues ---    0.05817   0.06246   0.06311   0.06432   0.06443
     Eigenvalues ---    0.08140   0.08219   0.09556   0.09763   0.09969
     Eigenvalues ---    0.10160   0.10180   0.10588   0.11467   0.11556
     Eigenvalues ---    0.12130   0.12381   0.12924   0.13094   0.14380
     Eigenvalues ---    0.14664   0.14991   0.15232   0.17395   0.17526
     Eigenvalues ---    0.18760   0.18864   0.21166   0.21939   0.22989
     Eigenvalues ---    0.23311   0.23669   0.23975   0.24586   0.25433
     Eigenvalues ---    0.25543   0.26594   0.27046   0.28452   0.29095
     Eigenvalues ---    0.30660   0.31357   0.31949   0.32859   0.32893
     Eigenvalues ---    0.33008   0.33111   0.33145   0.33199   0.33253
     Eigenvalues ---    0.33338   0.33526   0.33597   0.33725   0.33836
     Eigenvalues ---    0.34254   0.35292   0.35587   0.36181   0.36966
     Eigenvalues ---    0.37168   0.40679   0.40720   0.41918   0.42846
     Eigenvalues ---    0.44048   0.44194   0.44365
 RFO step:  Lambda=-5.58181355D-03 EMin= 1.05893052D-03
 Linear search not attempted -- first point.
 Iteration  1 RMS(Cart)=  0.09516857 RMS(Int)=  0.00246645
 Iteration  2 RMS(Cart)=  0.00632074 RMS(Int)=  0.00013451
 Iteration  3 RMS(Cart)=  0.00002076 RMS(Int)=  0.00013434
 Iteration  4 RMS(Cart)=  0.00000000 RMS(Int)=  0.00013434
 Variable       Old X    -DE/DX   Delta X   Delta X   Delta X     New X
                                 (Linear)    (Quad)   (Total)
    R1        2.76555   0.00283   0.00000   0.00664   0.00664   2.77219
    R2        1.92687  -0.00130   0.00000  -0.00122  -0.00122   1.92565
    R3        1.92522  -0.00066   0.00000   0.00032   0.00032   1.92554
    R4        2.90282   0.00020   0.00000   0.00009   0.00009   2.90291
    R5        2.06848   0.00105   0.00000   0.00255   0.00255   2.07103
    R6        2.07098  -0.00030   0.00000   0.00028   0.00028   2.07126
    R7        2.69697   0.00118   0.00000  -0.00446  -0.00446   2.69252
    R8        2.07261   0.00275   0.00000   0.00945   0.00945   2.08205
    R9        2.07093   0.00055   0.00000   0.00151   0.00151   2.07244
   R10        2.70606  -0.00188   0.00000  -0.01868  -0.01868   2.68738
   R11        2.88958  -0.00906   0.00000  -0.02831  -0.02831   2.86127
   R12        2.06813   0.00159   0.00000   0.00823   0.00823   2.07636
   R13        2.06976   0.00318   0.00000   0.01139   0.01139   2.08115
   R14        2.70566  -0.00035   0.00000  -0.01393  -0.01393   2.69173
   R15        2.06780   0.00235   0.00000   0.00934   0.00934   2.07714
   R16        2.07063   0.00197   0.00000   0.00863   0.00863   2.07926
   R17        2.69738  -0.00345   0.00000  -0.01126  -0.01126   2.68611
   R18        2.89241   0.00134   0.00000   0.00845   0.00845   2.90086
   R19        2.07022   0.00294   0.00000   0.00835   0.00835   2.07857
   R20        2.07100  -0.00044   0.00000  -0.00223  -0.00223   2.06878
   R21        2.69871  -0.00353   0.00000  -0.01210  -0.01210   2.68661
   R22        2.07092  -0.00018   0.00000  -0.00140  -0.00140   2.06952
   R23        2.07063   0.00250   0.00000   0.00731   0.00731   2.07794
   R24        2.70435  -0.00158   0.00000  -0.00835  -0.00835   2.69601
   R25        2.90062  -0.00343   0.00000  -0.01548  -0.01548   2.88514
   R26        2.06821   0.00327   0.00000   0.01031   0.01031   2.07852
   R27        2.07168   0.00312   0.00000   0.01133   0.01133   2.08301
   R28        2.77312   0.00374   0.00000  -0.00067  -0.00067   2.77244
   R29        2.06992   0.00034   0.00000   0.00239   0.00239   2.07230
   R30        2.06830   0.00021   0.00000   0.00258   0.00258   2.07088
   R31        1.93618  -0.00467   0.00000  -0.01070  -0.01070   1.92548
   R32        1.92554   0.00068   0.00000   0.00169   0.00169   1.92723
    A1        1.90992   0.00031   0.00000  -0.00290  -0.00295   1.90697
    A2        1.91837  -0.00060   0.00000  -0.00930  -0.00936   1.90902
    A3        1.85573  -0.00060   0.00000  -0.01422  -0.01433   1.84140
    A4        1.97125   0.00698   0.00000   0.02333   0.02339   1.99463
    A5        1.89585  -0.00267   0.00000  -0.00842  -0.00845   1.88739
    A6        1.90762  -0.00176   0.00000  -0.00895  -0.00884   1.89878
    A7        1.92422  -0.00133   0.00000  -0.00307  -0.00308   1.92114
    A8        1.91221  -0.00354   0.00000  -0.01801  -0.01795   1.89426
    A9        1.84858   0.00200   0.00000   0.01460   0.01456   1.86314
   A10        1.95073   0.00746   0.00000   0.02750   0.02754   1.97827
   A11        1.94648  -0.00407   0.00000  -0.02601  -0.02600   1.92047
   A12        1.90412  -0.00117   0.00000  -0.00013  -0.00023   1.90389
   A13        1.92885  -0.00136   0.00000   0.00023   0.00041   1.92926
   A14        1.85888  -0.00258   0.00000  -0.00658  -0.00668   1.85220
   A15        1.87074   0.00154   0.00000   0.00502   0.00493   1.87567
   A16        1.97469   0.00349   0.00000   0.01717   0.01717   1.99186
   A17        1.90416  -0.00317   0.00000  -0.00281  -0.00277   1.90139
   A18        1.92403   0.00287   0.00000   0.02170   0.02168   1.94572
   A19        1.88952   0.00389   0.00000   0.03605   0.03600   1.92552
   A20        1.92036  -0.00152   0.00000  -0.01611  -0.01626   1.90410
   A21        1.91157  -0.00078   0.00000  -0.00762  -0.00786   1.90371
   A22        1.91388  -0.00124   0.00000  -0.03040  -0.03099   1.88288
   A23        1.90410  -0.00377   0.00000  -0.00516  -0.00518   1.89891
   A24        1.90662  -0.00141   0.00000  -0.00766  -0.00792   1.89870
   A25        1.92215  -0.00055   0.00000  -0.01150  -0.01164   1.91051
   A26        1.89549   0.00550   0.00000   0.04860   0.04857   1.94406
   A27        1.91803   0.00160   0.00000   0.00668   0.00663   1.92466
   A28        1.91714  -0.00132   0.00000  -0.03006  -0.03048   1.88666
   A29        1.98186   0.00416   0.00000   0.01888   0.01888   2.00075
   A30        1.96775   0.00104   0.00000  -0.00359  -0.00366   1.96409
   A31        1.91948   0.00056   0.00000   0.00705   0.00701   1.92649
   A32        1.87213  -0.00167   0.00000  -0.01357  -0.01365   1.85849
   A33        1.95193  -0.00150   0.00000  -0.01441  -0.01440   1.93753
   A34        1.89855  -0.00065   0.00000  -0.00488  -0.00494   1.89361
   A35        1.84819   0.00227   0.00000   0.03145   0.03149   1.87968
   A36        1.96263   0.00043   0.00000  -0.00752  -0.00761   1.95502
   A37        1.89785  -0.00061   0.00000  -0.00303  -0.00308   1.89477
   A38        1.95190  -0.00078   0.00000  -0.01100  -0.01102   1.94088
   A39        1.87239  -0.00113   0.00000  -0.00881  -0.00888   1.86351
   A40        1.92284   0.00019   0.00000   0.00380   0.00371   1.92655
   A41        1.85085   0.00196   0.00000   0.02870   0.02873   1.87958
   A42        1.97665   0.00567   0.00000   0.02746   0.02746   2.00411
   A43        1.90373  -0.00763   0.00000  -0.02537  -0.02532   1.87842
   A44        1.92096   0.00294   0.00000   0.02137   0.02147   1.94244
   A45        1.91213   0.00259   0.00000   0.00554   0.00549   1.91762
   A46        1.90419   0.00351   0.00000   0.01595   0.01605   1.92024
   A47        1.92060   0.00090   0.00000   0.00404   0.00402   1.92462
   A48        1.90223  -0.00226   0.00000  -0.02128  -0.02130   1.88092
   A49        1.95713   0.01203   0.00000   0.05233   0.05226   2.00939
   A50        1.91140  -0.00369   0.00000  -0.01776  -0.01848   1.89292
   A51        1.91922  -0.00480   0.00000  -0.02476  -0.02503   1.89419
   A52        1.88152  -0.00245   0.00000   0.00701   0.00700   1.88852
   A53        1.90897  -0.00287   0.00000  -0.00569  -0.00536   1.90361
   A54        1.88384   0.00149   0.00000  -0.01283  -0.01333   1.87051
   A55        1.86119   0.00208   0.00000   0.01434   0.01435   1.87554
   A56        1.90669  -0.00189   0.00000  -0.00850  -0.00849   1.89819
   A57        1.82338   0.00016   0.00000   0.00683   0.00685   1.83024
    D1        1.06117  -0.00136   0.00000  -0.04090  -0.04086   1.02031
    D2       -3.08164  -0.00029   0.00000  -0.03520  -0.03519  -3.11683
    D3       -1.07231  -0.00031   0.00000  -0.02725  -0.02720  -1.09952
    D4       -0.97060  -0.00046   0.00000  -0.01670  -0.01673  -0.98733
    D5        1.16977   0.00060   0.00000  -0.01101  -0.01105   1.15872
    D6       -3.10409   0.00059   0.00000  -0.00305  -0.00307  -3.10716
    D7       -3.04271   0.00007   0.00000  -0.01495  -0.01499  -3.05771
    D8        1.07148  -0.00069   0.00000  -0.01629  -0.01617   1.05530
    D9       -0.99165   0.00062   0.00000  -0.00668  -0.00665  -0.99829
   D10        1.11601  -0.00038   0.00000  -0.01809  -0.01818   1.09783
   D11       -1.05299  -0.00113   0.00000  -0.01944  -0.01936  -1.07235
   D12       -3.11611   0.00018   0.00000  -0.00983  -0.00983  -3.12594
   D13       -0.91180   0.00003   0.00000  -0.02347  -0.02359  -0.93539
   D14       -3.08080  -0.00072   0.00000  -0.02481  -0.02476  -3.10557
   D15        1.13926   0.00059   0.00000  -0.01520  -0.01524   1.12402
   D16       -1.44849   0.00020   0.00000   0.00606   0.00601  -1.44248
   D17        0.73035  -0.00064   0.00000  -0.00749  -0.00743   0.72292
   D18        2.75664  -0.00097   0.00000  -0.00512  -0.00512   2.75152
   D19        3.04623  -0.00022   0.00000   0.04596   0.04588   3.09212
   D20        0.93564   0.00188   0.00000   0.05409   0.05424   0.98988
   D21       -1.15784  -0.00071   0.00000   0.05612   0.05605  -1.10179
   D22       -1.34795   0.00242   0.00000   0.07076   0.07072  -1.27722
   D23        2.86558  -0.00120   0.00000   0.01947   0.01957   2.88516
   D24        0.75857   0.00166   0.00000   0.06860   0.06850   0.82707
   D25        0.76489   0.00301   0.00000   0.08571   0.08555   0.85044
   D26       -1.30476  -0.00061   0.00000   0.03441   0.03440  -1.27036
   D27        2.87141   0.00225   0.00000   0.08355   0.08333   2.95474
   D28        2.86989   0.00003   0.00000   0.03320   0.03332   2.90320
   D29        0.80023  -0.00359   0.00000  -0.01809  -0.01783   0.78240
   D30       -1.30678  -0.00073   0.00000   0.03104   0.03110  -1.27568
   D31        2.92908  -0.00054   0.00000  -0.00034  -0.00048   2.92860
   D32       -1.27751  -0.00122   0.00000   0.01576   0.01580  -1.26170
   D33        0.82005   0.00151   0.00000   0.01292   0.01301   0.83305
   D34        1.28885   0.00101   0.00000   0.05880   0.05874   1.34759
   D35       -0.90259   0.00178   0.00000   0.07497   0.07498  -0.82760
   D36       -2.90476  -0.00027   0.00000   0.04166   0.04170  -2.86306
   D37        3.01278  -0.00136   0.00000  -0.00808  -0.00809   3.00469
   D38        0.94183   0.00019   0.00000   0.00947   0.00944   0.95127
   D39       -1.09615  -0.00137   0.00000  -0.01739  -0.01736  -1.11351
   D40       -1.09663  -0.00098   0.00000  -0.01277  -0.01275  -1.10938
   D41        3.11560   0.00056   0.00000   0.00478   0.00478   3.12039
   D42        1.07763  -0.00100   0.00000  -0.02208  -0.02202   1.05560
   D43        0.93854   0.00052   0.00000   0.01434   0.01430   0.95284
   D44       -1.13242   0.00207   0.00000   0.03188   0.03184  -1.10058
   D45        3.11279   0.00050   0.00000   0.00502   0.00503   3.11782
   D46        1.38182   0.00101   0.00000   0.03913   0.03908   1.42090
   D47       -2.81553  -0.00023   0.00000   0.02521   0.02525  -2.79028
   D48       -0.80835   0.00157   0.00000   0.05628   0.05629  -0.75206
[...]
   124    C    9  S      Ryd( 4S)     0.00005
   125    C    9  px     Val( 2p)     0.74903
   126    C    9  px     Ryd( 3p)     0.00546
   127    C    9  py     Val( 2p)     1.22088
   128    C    9  py     Ryd( 3p)     0.00436
   129    C    9  pz     Val( 2p)     1.10879
   130    C    9  pz     Ryd( 3p)     0.00159
   131    C    9  dxy    Ryd( 3d)     0.00107
   132    C    9  dxz    Ryd( 3d)     0.00161
   133    C    9  dyz    Ryd( 3d)     0.00076
   134    C    9  dx2y2  Ryd( 3d)     0.00171
   135    C    9  dz2    Ryd( 3d)     0.00106

   136    O   10  S      Cor( 1S)     1.99979
   137    O   10  S      Val( 2S)     1.61963
   138    O   10  S      Ryd( 3S)     0.00177
   139    O   10  S      Ryd( 4S)     0.00006
   140    O   10  px     Val( 2p)     1.47295
   141    O   10  px     Ryd( 3p)     0.00165
   142    O   10  py     Val( 2p)     1.61978
   143    O   10  py     Ryd( 3p)     0.00160
   144    O   10  pz     Val( 2p)     1.88119
   145    O   10  pz     Ryd( 3p)     0.00278
   146    O   10  dxy    Ryd( 3d)     0.00116
   147    O   10  dxz    Ryd( 3d)     0.00059
   148    O   10  dyz    Ryd( 3d)     0.00104
   149    O   10  dx2y2  Ryd( 3d)     0.00115
   150    O   10  dz2    Ryd( 3d)     0.00094

   151    C   11  S      Cor( 1S)     1.99926
   152    C   11  S      Val( 2S)     1.03598
   153    C   11  S      Ryd( 3S)     0.00249
   154    C   11  S      Ryd( 4S)     0.00005
   155    C   11  px     Val( 2p)     0.99826
   156    C   11  px     Ryd( 3p)     0.00187
   157    C   11  py     Val( 2p)     0.86182
   158    C   11  py     Ryd( 3p)     0.00307
   159    C   11  pz     Val( 2p)     1.21759
   160    C   11  pz     Ryd( 3p)     0.00191
   161    C   11  dxy    Ryd( 3d)     0.00153
   162    C   11  dxz    Ryd( 3d)     0.00068
   163    C   11  dyz    Ryd( 3d)     0.00159
   164    C   11  dx2y2  Ryd( 3d)     0.00140
   165    C   11  dz2    Ryd( 3d)     0.00104

   166    C   12  S      Cor( 1S)     1.99935
   167    C   12  S      Val( 2S)     1.02778
   168    C   12  S      Ryd( 3S)     0.00147
   169    C   12  S      Ryd( 4S)     0.00004
   170    C   12  px     Val( 2p)     1.03427
   171    C   12  px     Ryd( 3p)     0.00426
   172    C   12  py     Val( 2p)     1.10588
   173    C   12  py     Ryd( 3p)     0.00428
   174    C   12  pz     Val( 2p)     1.10704
   175    C   12  pz     Ryd( 3p)     0.00166
   176    C   12  dxy    Ryd( 3d)     0.00114
   177    C   12  dxz    Ryd( 3d)     0.00064
   178    C   12  dyz    Ryd( 3d)     0.00085
   179    C   12  dx2y2  Ryd( 3d)     0.00089
   180    C   12  dz2    Ryd( 3d)     0.00131

   181    N   13  S      Cor( 1S)     1.99971
   182    N   13  S      Val( 2S)     1.44598
   183    N   13  S      Ryd( 3S)     0.00034
   184    N   13  S      Ryd( 4S)     0.00001
   185    N   13  px     Val( 2p)     1.74845
   186    N   13  px     Ryd( 3p)     0.00592
   187    N   13  py     Val( 2p)     1.35082
   188    N   13  py     Ryd( 3p)     0.00227
   189    N   13  pz     Val( 2p)     1.36474
   190    N   13  pz     Ryd( 3p)     0.00227
   191    N   13  dxy    Ryd( 3d)     0.00145
   192    N   13  dxz    Ryd( 3d)     0.00095
   193    N   13  dyz    Ryd( 3d)     0.00037
   194    N   13  dx2y2  Ryd( 3d)     0.00091
   195    N   13  dz2    Ryd( 3d)     0.00099

   196    H   14  S      Val( 1S)     0.73990
   197    H   14  S      Ryd( 2S)     0.08182
   198    H   14  px     Ryd( 2p)     0.00030
   199    H   14  py     Ryd( 2p)     0.00034
   200    H   14  pz     Ryd( 2p)     0.00054

   201    H   15  S      Val( 1S)     0.73624
   202    H   15  S      Ryd( 2S)     0.08085
   203    H   15  px     Ryd( 2p)     0.00026
   204    H   15  py     Ryd( 2p)     0.00037
   205    H   15  pz     Ryd( 2p)     0.00055

   206    H   16  S      Val( 1S)     0.74897
   207    H   16  S      Ryd( 2S)     0.01424
   208    H   16  px     Ryd( 2p)     0.00015
   209    H   16  py     Ryd( 2p)     0.00015
   210    H   16  pz     Ryd( 2p)     0.00025

   211    H   17  S      Val( 1S)     0.74524
   212    H   17  S      Ryd( 2S)     0.01590
   213    H   17  px     Ryd( 2p)     0.00011
   214    H   17  py     Ryd( 2p)     0.00015
   215    H   17  pz     Ryd( 2p)     0.00026

   216    H   18  S      Val( 1S)     0.77062
   217    H   18  S      Ryd( 2S)     0.01164
   218    H   18  px     Ryd( 2p)     0.00011
   219    H   18  py     Ryd( 2p)     0.00022
   220    H   18  pz     Ryd( 2p)     0.00028

   221    H   19  S      Val( 1S)     0.75685
   222    H   19  S      Ryd( 2S)     0.01805
   223    H   19  px     Ryd( 2p)     0.00013
   224    H   19  py     Ryd( 2p)     0.00018
   225    H   19  pz     Ryd( 2p)     0.00028

   226    H   20  S      Val( 1S)     0.76739
   227    H   20  S      Ryd( 2S)     0.00230
   228    H   20  px     Ryd( 2p)     0.00011
   229    H   20  py     Ryd( 2p)     0.00037
   230    H   20  pz     Ryd( 2p)     0.00012

   231    H   21  S      Val( 1S)     0.77154
   232    H   21  S      Ryd( 2S)     0.00305
   233    H   21  px     Ryd( 2p)     0.00012
   234    H   21  py     Ryd( 2p)     0.00025
   235    H   21  pz     Ryd( 2p)     0.00022

   236    H   22  S      Val( 1S)     0.78216
   237    H   22  S      Ryd( 2S)     0.00373
   238    H   22  px     Ryd( 2p)     0.00022
   239    H   22  py     Ryd( 2p)     0.00008
   240    H   22  pz     Ryd( 2p)     0.00031

   241    H   23  S      Val( 1S)     0.78136
   242    H   23  S      Ryd( 2S)     0.00294
   243    H   23  px     Ryd( 2p)     0.00011
   244    H   23  py     Ryd( 2p)     0.00030
   245    H   23  pz     Ryd( 2p)     0.00018

   246    H   24  S      Val( 1S)     0.79135
   247    H   24  S      Ryd( 2S)     0.00190
   248    H   24  px     Ryd( 2p)     0.00009
   249    H   24  py     Ryd( 2p)     0.00038
   250    H   24  pz     Ryd( 2p)     0.00012

   251    H   25  S      Val( 1S)     0.76910
   252    H   25  S      Ryd( 2S)     0.00196
   253    H   25  px     Ryd( 2p)     0.00006
   254    H   25  py     Ryd( 2p)     0.00019
   255    H   25  pz     Ryd( 2p)     0.00032

   256    H   26  S      Val( 1S)     0.76949
   257    H   26  S      Ryd( 2S)     0.00188
   258    H   26  px     Ryd( 2p)     0.00007
   259    H   26  py     Ryd( 2p)     0.00039
   260    H   26  pz     Ryd( 2p)     0.00010

   261    H   27  S      Val( 1S)     0.79364
   262    H   27  S      Ryd( 2S)     0.00243
   263    H   27  px     Ryd( 2p)     0.00008
   264    H   27  py     Ryd( 2p)     0.00017
   265    H   27  pz     Ryd( 2p)     0.00034

   266    H   28  S      Val( 1S)     0.78814
   267    H   28  S      Ryd( 2S)     0.00229
   268    H   28  px     Ryd( 2p)     0.00015
   269    H   28  py     Ryd( 2p)     0.00021
   270    H   28  pz     Ryd( 2p)     0.00023

   271    H   29  S      Val( 1S)     0.79405
   272    H   29  S      Ryd( 2S)     0.00248
   273    H   29  px     Ryd( 2p)     0.00010
   274    H   29  py     Ryd( 2p)     0.00010
   275    H   29  pz     Ryd( 2p)     0.00038

   276    H   30  S      Val( 1S)     0.76776
   277    H   30  S      Ryd( 2S)     0.00206
   278    H   30  px     Ryd( 2p)     0.00010
   279    H   30  py     Ryd( 2p)     0.00009
   280    H   30  pz     Ryd( 2p)     0.00035

   281    H   31  S      Val( 1S)     0.76076
   282    H   31  S      Ryd( 2S)     0.00118
   283    H   31  px     Ryd( 2p)     0.00018
   284    H   31  py     Ryd( 2p)     0.00031
   285    H   31  pz     Ryd( 2p)     0.00007

   286    H   32  S      Val( 1S)     0.60790
   287    H   32  S      Ryd( 2S)     0.00253
   288    H   32  px     Ryd( 2p)     0.00063
   289    H   32  py     Ryd( 2p)     0.00048
   290    H   32  pz     Ryd( 2p)     0.00034

   291    H   33  S      Val( 1S)     0.61374
   292    H   33  S      Ryd( 2S)     0.00153
   293    H   33  px     Ryd( 2p)     0.00052
   294    H   33  py     Ryd( 2p)     0.00033
   295    H   33  pz     Ryd( 2p)     0.00058


 Summary of Natural Population Analysis:                  
                                                          
                                       Natural Population 
                Natural  -----------------------------------------------
    Atom  No    Charge         Core      Valence    Rydberg      Total
 -----------------------------------------------------------------------
      N    1   -0.51051      1.99942     5.48228    0.02881     7.51051
      C    2   -0.39685      1.99938     4.37163    0.02584     6.39685
      C    3   -0.16690      1.99917     4.13728    0.03046     6.16690
      O    4   -0.50205      1.99980     6.48776    0.01449     8.50205
      C    5   -0.14641      1.99924     4.12919    0.01798     6.14641
      C    6   -0.13221      1.99926     4.11565    0.01730     6.13221
      O    7   -0.59805      1.99980     6.58508    0.01318     8.59805
      C    8   -0.13760      1.99929     4.11918    0.01914     6.13760
      C    9   -0.13336      1.99929     4.11441    0.01966     6.13336
      O   10   -0.60606      1.99979     6.59354    0.01273     8.60606
      C   11   -0.12854      1.99926     4.11365    0.01563     6.12854
      C   12   -0.29086      1.99935     4.27497    0.01654     6.29086
      N   13   -0.92517      1.99971     5.90999    0.01547     7.92517
      H   14    0.17710      0.00000     0.73990    0.08300     0.82290
      H   15    0.18172      0.00000     0.73624    0.08204     0.81828
      H   16    0.23625      0.00000     0.74897    0.01479     0.76375
      H   17    0.23832      0.00000     0.74524    0.01643     0.76168
      H   18    0.21713      0.00000     0.77062    0.01225     0.78287
      H   19    0.22451      0.00000     0.75685    0.01864     0.77549
      H   20    0.22972      0.00000     0.76739    0.00290     0.77028
      H   21    0.22484      0.00000     0.77154    0.00363     0.77516
      H   22    0.21350      0.00000     0.78216    0.00434     0.78650
      H   23    0.21512      0.00000     0.78136    0.00352     0.78488
      H   24    0.20616      0.00000     0.79135    0.00249     0.79384
      H   25    0.22837      0.00000     0.76910    0.00253     0.77163
      H   26    0.22807      0.00000     0.76949    0.00244     0.77193
      H   27    0.20334      0.00000     0.79364    0.00302     0.79666
      H   28    0.20898      0.00000     0.78814    0.00289     0.79102
      H   29    0.20288      0.00000     0.79405    0.00307     0.79712
      H   30    0.22964      0.00000     0.76776    0.00260     0.77036
      H   31    0.23750      0.00000     0.76076    0.00174     0.76250
      H   32    0.38812      0.00000     0.60790    0.00398     0.61188
      H   33    0.38331      0.00000     0.61374    0.00295     0.61669
 =======================================================================
   * Total *   -0.00000     25.99275    79.49078    0.51647   106.00000

                                 Natural Population      
 --------------------------------------------------------
   Core                      25.99275 ( 99.9721% of  26)
   Valence                   79.49078 ( 99.3635% of  80)
   Natural Minimal Basis    105.48353 ( 99.5128% of 106)
   Natural Rydberg Basis      0.51647 (  0.4872% of 106)
 --------------------------------------------------------

    Atom  No          Natural Electron Configuration
 ----------------------------------------------------------------------------
      N    1      [core]2S( 1.52)2p( 3.97)3S( 0.02)3p( 0.01)
      C    2      [core]2S( 1.06)2p( 3.31)3p( 0.02)
      C    3      [core]2S( 1.05)2p( 3.09)3p( 0.02)3d( 0.01)
      O    4      [core]2S( 1.64)2p( 4.85)3p( 0.01)3d( 0.01)
      C    5      [core]2S( 1.03)2p( 3.09)3p( 0.01)3d( 0.01)
      C    6      [core]2S( 1.03)2p( 3.08)3p( 0.01)3d( 0.01)
      O    7      [core]2S( 1.62)2p( 4.96)3p( 0.01)3d( 0.01)
      C    8      [core]2S( 1.04)2p( 3.08)3p( 0.01)3d( 0.01)
      C    9      [core]2S( 1.04)2p( 3.08)3p( 0.01)3d( 0.01)
      O   10      [core]2S( 1.62)2p( 4.97)3p( 0.01)
      C   11      [core]2S( 1.04)2p( 3.08)3p( 0.01)3d( 0.01)
      C   12      [core]2S( 1.03)2p( 3.25)3p( 0.01)
      N   13      [core]2S( 1.45)2p( 4.46)3p( 0.01)
      H   14            1S( 0.74)2S( 0.08)
      H   15            1S( 0.74)2S( 0.08)
      H   16            1S( 0.75)2S( 0.01)
      H   17            1S( 0.75)2S( 0.02)
      H   18            1S( 0.77)2S( 0.01)
      H   19            1S( 0.76)2S( 0.02)
      H   20            1S( 0.77)
      H   21            1S( 0.77)
      H   22            1S( 0.78)
      H   23            1S( 0.78)
      H   24            1S( 0.79)
      H   25            1S( 0.77)
      H   26            1S( 0.77)
      H   27            1S( 0.79)
      H   28            1S( 0.79)
      H   29            1S( 0.79)
      H   30            1S( 0.77)
      H   31            1S( 0.76)
      H   32            1S( 0.61)
      H   33            1S( 0.61)


 NBO analysis skipped by request.
 1\1\GINC-DRG2-W001\SP\RB3LYP TD-FC\6-31G(d,p)\C8H20N2O3\QDUEZ\18-Jul-2
 024\0\\# TD(NStates=10, Root=1) B3LYP/6-31G** SCRF=(Solvent=water) vol
 ume pop=NPA density=current Geom=AllCheck Guess=Read\\NIQFAJBKEHPUAM-U
 HFFFAOYSA-N_conf_1\\0,1\N,0,6.4040687272,-0.5764141598,-0.1167667677\C
 ,0,4.9408553515,-0.6202911929,-0.0171481449\C,0,4.3401743354,0.4300876
 035,0.9295029179\O,0,2.9265012956,0.3274323888,1.0714105862\C,0,2.1887
 390608,0.9289575896,0.0159992805\C,0,0.710608821,0.8485723123,0.334834
 4969\O,0,0.2954647745,-0.511647567,0.2726309787\C,0,-1.0755320649,-0.7
 211039346,0.5914591693\C,0,-1.9756149244,-0.5432731965,-0.639182238\O,
 0,-3.3307603011,-0.8725777764,-0.362503266\C,0,-4.0921040345,0.1668171
 629,0.250672922\C,0,-5.5564921195,-0.264938479,0.2382426488\N,0,-6.130
 4133321,-0.4947271738,-1.0923338362\H,0,6.8079036785,-0.6772697356,0.8
 134905417\H,0,6.6921437284,0.3465515091,-0.438449483\H,0,4.5271247012,
 -0.4982616507,-1.0245049957\H,0,4.6410128667,-1.6159534893,0.32989079\
 H,0,4.6216257028,1.441643214,0.5939737422\H,0,4.7562204058,0.288336051
 3,1.9341718016\H,0,2.3787998734,0.4315416796,-0.9458161482\H,0,2.46961
 46507,1.9884402961,-0.0937399992\H,0,0.163961946,1.470861263,-0.388597
 946\H,0,0.525904741,1.2582839706,1.3395987889\H,0,-1.3891839797,-0.055
 9329373,1.4083675108\H,0,-1.1652992042,-1.752697662,0.9476175067\H,0,-
 1.6379610787,-1.2299298323,-1.4223153211\H,0,-1.9010710168,0.480386463
 5,-1.0341352695\H,0,-3.7605275721,0.3505799535,1.2837427111\H,0,-3.966
 5170541,1.1052771318,-0.3134593339\H,0,-5.6498987835,-1.1909649529,0.8
 189199849\H,0,-6.1493171432,0.4972431107,0.7565260212\H,0,-5.499280150
 9,-1.11628558,-1.5962178904\H,0,-6.1107519008,0.3812576202,-1.61367196
 38\\Version=ES64L-G16RevA.03\State=1-A\HF=-652.0483058\RMSD=1.063e-09\
 Dipole=-0.2607014,1.5422939,-0.3030485\Quadrupole=-19.5513607,10.17327
 53,9.3780854,-5.4030807,-4.880259,-0.5418437\PG=C01 [X(C8H20N2O3)]\\@


                                                                                    A
                                                                                  AA
                                                                                 AAA
                                                                                AAAA
                                                                               AAAAA
                                                                              AAAAAA   KKKKKKKK
                                                                             AAAAAAA   KKKKKKKK
                                                                            AAAAAAAA   KKKKKKKK
                                       ZZZZZZZZZZZZZZZZZZZZ                AAAA  AAA   KKKKKKKK
                                       ZZZZZZZZZZZZZZZZZZZ                AAAA   AAA   KKKKKKKK          K
                                       ZZZZZZZZZZZZZZZZZZ                AAAA    AAA   KKKKKKKK         KKK
                                       ZZZZZZZZZZZZZZZZZ                AAAA     AAA   KKKKKKKK        KKKKK
                                       ZZZZZZZZZZZZZZZZ                AAAA      AAA   KKKKKKKK       KKKKKKK
                                                ZZZZZZ                AAAA       AAA   KKKKKKKK      KKKKKKK
                                               ZZZZZZ                AAAA        AAA   KKKKKKKK     KKKKKKK
                                              ZZZZZZ                AAAA         AAA   KKKKKKKK    KKKKKKK
                                             ZZZZZZ                AAAA          AAA   KKKKKKKK   KKKKKKK
                                            ZZZZZZ                AAAAAAAAAAAAAAAAAA   KKKKKKKK  KKKKKKK
                                           ZZZZZZ                AAAAAAAAAAAAAAAAAAA   KKKKKKKK KKKKKKK
                                          ZZZZZZ                AAAAAAAAAAAAAAAAAAAA   KKKKKKKKKKKKKKK
                                         ZZZZZZ                AAAAAAAAAAAAAAAAAAAAA   KKKKKKKKKKKKKK
                                        ZZZZZZ                AAAAAA        AAAAAAAA   KKKKKKKKKKKKK
                                       ZZZZZZ                AAAAAA         AAAAAAAA   KKKKKKKKKKKK
                                      ZZZZZZ                AAAAAA          AAAAAAAA   KKKKKKKKKKK
                                     ZZZZZZ                AAAAAA           AAAAAAAA   KKKKKKKKKKKK
                                    ZZZZZZ                AAAAAA            AAAAAAAA   KKKKKKKKKKKKK
                                   ZZZZZZ                AAAAAA             AAAAAAAA   KKKKKKKKKKKKKK
                                  ZZZZZZ                AAAAAA              AAAAAAAA   KKKKKKKKKKKKKKK
                                 ZZZZZZ                AAAAAA               AAAAAAAA   KKKKK KKKKKKKKKK
                                ZZZZZZ                AAAAAA                AAAAAAAA   KKKKK  KKKKKKKKKK
                               ZZZZZZ                AAAAAA                            KKKKK   KKKKKKKKKK
                              ZZZZZZ                AAAAAA                             KKKKK    KKKKKKKKKK
                             ZZZZZZ                                                    KKKKK     KKKKKKKKKK
                            ZZZZZZ                                                     KKKKK      KKKKKKKKKK
                           ZZZZZZ                                                      KKKKK       KKKKKKKKKK
                          ZZZZZZ                                                       KKKKK        KKKKKKKKKK
                         ZZZZZZZZZZZZZZZZZZZZZZZZZZZZZZZZZZZZZZZZ                      KKKKK         KKKKKKKKKK
                        ZZZZZZZZZZZZZZZZZZZZZZZZZZZZZZZZZZZZZZZZZ                      KKKKK          KKKKKKKKKK
                       ZZZZZZZZZZZZZZZZZZZZZZZZZZZZZZZZZZZZZZZZZZ                      KKKKK           KKKKKKKKKK
                       ZZZZZZZZZZZZZZZZZZZZZZZZZZZZZZZZZZZZZZZZZZ                      KKKKK            KKKKKKKKKK
                       ZZZZZZZZZZZZZZZZZZZZZZZZZZZZZZZZZZZZZZZZZZ                      KKKKK             KKKKKKKKKK
                       ZZZZZZZZZZZZZZZZZZZZZZZZZZZZZZZZZZZZZZZZZZ                      KKKKK              KKKKKKKKKK
                       ZZZZZZZZZZZZZZZZZZZZZZZZZZZZZZZZZZZZZZZZZZ                      KKKKK               KKKKKKKKKK
                       ZZZZZZZZZZZZZZZZZZZZZZZZZZZZZZZZZZZZZZZZZZ                      KKKKK                KKKKKKKKKK
                       ZZZZZZZZZZZZZZZZZZZZZZZZZZZZZZZZZZZZZZZZZZ                      KKKKK
                                                                                       KKKKK
                                                                                          (J.P.)
 Job cpu time:       0 days  0 hours 43 minutes 28.0 seconds.
 Elapsed time:       0 days  0 hours 14 minutes 31.5 seconds.
 File lengths (MBytes):  RWF=    773 Int=      0 D2E=      0 Chk=     47 Scr=      1
 Normal termination of Gaussian 16 at Thu Jul 18 15:38:27 2024.
