 Entering Gaussian System, Link 0=g16
 Initial command:
 /opt/sw/arch/manual/gaussian/G16_A03/g16/l1.exe "/scratch/1380949/Gau-122705.inp" -scrdir="/scratch/1380949/"
 Entering Link 1 = /opt/sw/arch/manual/gaussian/G16_A03/g16/l1.exe PID=    122706.
  
 Copyright (c) 1988,1990,1992,1993,1995,1998,2003,2009,2016,
            Gaussian, Inc.  All Rights Reserved.
  
 This is part of the Gaussian(R) 16 program.  It is based on
 the Gaussian(R) 09 system (copyright 2009, Gaussian, Inc.),
 the Gaussian(R) 03 system (copyright 2003, Gaussian, Inc.),
 the Gaussian(R) 98 system (copyright 1998, Gaussian, Inc.),
 the Gaussian(R) 94 system (copyright 1995, Gaussian, Inc.),
 the Gaussian 92(TM) system (copyright 1992, Gaussian, Inc.),
 the Gaussian 90(TM) system (copyright 1990, Gaussian, Inc.),
 the Gaussian 88(TM) system (copyright 1988, Gaussian, Inc.),
 the Gaussian 86(TM) system (copyright 1986, Carnegie Mellon
 University), and the Gaussian 82(TM) system (copyright 1983,
 Carnegie Mellon University). Gaussian is a federally registered
 trademark of Gaussian, Inc.
  
 This software contains proprietary and confidential information,
 including trade secrets, belonging to Gaussian, Inc.
  
 This software is provided under written license and may be
 used, copied, transmitted, or stored only in accord with that
 written license.
  
 The following legend is applicable only to US Government
 contracts under FAR:
  
                    RESTRICTED RIGHTS LEGEND
  
 Use, reproduction and disclosure by the US Government is
 subject to restrictions as set forth in subparagraphs (a)
 and (c) of the Commercial Computer Software - Restricted
 Rights clause in FAR 52.227-19.
  
 Gaussian, Inc.
 340 Quinnipiac St., Bldg. 40, Wallingford CT 06492
  
  
 ---------------------------------------------------------------
 Warning -- This program may not be used in any manner that
 competes with the business of Gaussian, Inc. or will provide
 assistance to any competitor of Gaussian, Inc.  The licensee
 of this program is prohibited from giving any competitor of
 Gaussian, Inc. access to this program.  By using this program,
 the user acknowledges that Gaussian, Inc. is engaged in the
 business of creating and licensing software in the field of
 computational chemistry and represents and warrants to the
 licensee that it is not a competitor of Gaussian, Inc. and that
 it will not use this program in any manner prohibited above.
 ---------------------------------------------------------------
  

 Cite this work as:
 Gaussian 16, Revision A.03,
 M. J. Frisch, G. W. Trucks, H. B. Schlegel, G. E. Scuseria, 
 M. A. Robb, J. R. Cheeseman, G. Scalmani, V. Barone, 
 G. A. Petersson, H. Nakatsuji, X. Li, M. Caricato, A. V. Marenich, 
 J. Bloino, B. G. Janesko, R. Gomperts, B. Mennucci, H. P. Hratchian, 
 J. V. Ortiz, A. F. Izmaylov, J. L. Sonnenberg, D. Williams-Young, 
 F. Ding, F. Lipparini, F. Egidi, J. Goings, B. Peng, A. Petrone, 
 T. Henderson, D. Ranasinghe, V. G. Zakrzewski, J. Gao, N. Rega, 
 G. Zheng, W. Liang, M. Hada, M. Ehara, K. Toyota, R. Fukuda, 
 J. Hasegawa, M. Ishida, T. Nakajima, Y. Honda, O. Kitao, H. Nakai, 
 T. Vreven, K. Throssell, J. A. Montgomery, Jr., J. E. Peralta, 
 F. Ogliaro, M. J. Bearpark, J. J. Heyd, E. N. Brothers, K. N. Kudin, 
 V. N. Staroverov, T. A. Keith, R. Kobayashi, J. Normand, 
 K. Raghavachari, A. P. Rendell, J. C. Burant, S. S. Iyengar, 
 J. Tomasi, M. Cossi, J. M. Millam, M. Klene, C. Adamo, R. Cammi, 
 J. W. Ochterski, R. L. Martin, K. Morokuma, O. Farkas, 
 J. B. Foresman, and D. J. Fox, Gaussian, Inc., Wallingford CT, 2016.
 
 ******************************************
 Gaussian 16:  ES64L-G16RevA.03 25-Dec-2016
                18-Jul-2024 
 ******************************************
 %nprocshared=5
 Will use up to    5 processors via shared memory.
 %mem=10GB
 %Chk=NIQFAJBKEHPUAM-UHFFFAOYSA-N_conf_4_0.chk
 -------------------------------------------------------
 # opt=CalcFc B3LYP/6-31G** SCRF=(Solvent=water) scf=xqc
 -------------------------------------------------------
 1/10=4,18=20,19=15,26=3,38=1/1,3;
 2/9=110,12=2,17=6,18=5,40=1/2;
 3/5=1,6=6,7=101,11=2,25=1,30=1,70=2201,71=2,72=1,74=-5,140=1/1,2,3;
 4//1;
 5/5=2,8=3,13=1,38=5,53=1/2,8;
 8/6=4,10=90,11=11/1;
 11/6=1,8=1,9=11,15=111,16=1/1,2,10;
 10/6=1,13=1/2;
 6/7=2,8=2,9=2,10=2,28=1/1;
 7/10=1,18=20,25=1/1,2,3,16;
 1/10=4,18=20,19=15,26=3/3(2);
 2/9=110/2;
 99//99;
 2/9=110/2;
 3/5=1,6=6,7=101,11=2,25=1,30=1,70=2205,71=1,72=1,74=-5/1,2,3;
 4/5=5,16=3,69=1/1;
 5/5=2,8=3,13=1,38=5,53=1/2,8;
 7//1,2,3,16;
 1/18=20,19=15,26=3/3(-5);
 2/9=110/2;
 6/7=2,8=2,9=2,10=2,19=2,28=1/1;
 99/9=1/99;
 ----------------------------------
 NIQFAJBKEHPUAM-UHFFFAOYSA-N_conf_4
 ----------------------------------
 Symbolic Z-matrix:
 Charge =  0 Multiplicity = 1
 N                    -6.3413    0.57337   0.28831 
 C                    -4.89994   0.82006   0.22741 
 C                    -4.06537  -0.46463   0.28741 
 O                    -2.68214  -0.12275   0.22115 
 C                    -1.84413  -1.28215   0.28701 
 C                    -0.38146  -0.87059   0.11386 
 O                    -0.14186  -0.55548  -1.26243 
 C                     1.24072  -0.36306  -1.57795 
 C                     1.86156   0.86446  -0.89907 
 O                     2.29039   0.56747   0.43665 
 C                     3.60553   0.01714   0.51834 
 C                     4.66911   1.12457   0.5601 
 N                     6.02586   0.60911   0.7375 
 H                    -6.5656    0.06418   1.1418 
 H                    -6.61674  -0.02736  -0.48744 
 H                    -4.61234   1.48269   1.05173 
 H                    -4.66572   1.36753  -0.69275 
 H                    -4.26437  -0.99929   1.22373 
 H                    -4.32046  -1.11731  -0.55583 
 H                    -2.13377  -1.98476  -0.50259 
 H                    -1.97849  -1.75265   1.26703 
 H                    -0.17467   0.00891   0.73075 
 H                     0.26724  -1.70165   0.41081 
 H                     1.78821  -1.28328  -1.34884 
 H                     1.27741  -0.21448  -2.66215 
 H                     2.70489   1.23962  -1.48804 
 H                     1.11697   1.66379  -0.82551 
 H                     3.79063  -0.68304  -0.30439 
 H                     3.64781  -0.55763   1.45031 
 H                     4.63422   1.71645  -0.36034 
 H                     4.43828   1.82281   1.37274 
 H                     6.24289  -0.06464   0.00469 
 H                     6.08666   0.10257   1.62041 
 

 GradGradGradGradGradGradGradGradGradGradGradGradGradGradGradGradGradGrad
 Berny optimization.
 Initialization pass.
                           ----------------------------
                           !    Initial Parameters    !
                           ! (Angstroms and Degrees)  !
 --------------------------                            --------------------------
 ! Name  Definition              Value          Derivative Info.                !
 --------------------------------------------------------------------------------
 ! R1    R(1,2)                  1.4636         calculate D2E/DX2 analytically  !
 ! R2    R(1,14)                 1.0188         calculate D2E/DX2 analytically  !
 ! R3    R(1,15)                 1.0191         calculate D2E/DX2 analytically  !
 ! R4    R(2,3)                  1.5331         calculate D2E/DX2 analytically  !
 ! R5    R(2,16)                 1.096          calculate D2E/DX2 analytically  !
 ! R6    R(2,17)                 1.096          calculate D2E/DX2 analytically  !
 ! R7    R(3,4)                  1.4264         calculate D2E/DX2 analytically  !
 ! R8    R(3,18)                 1.0964         calculate D2E/DX2 analytically  !
 ! R9    R(3,19)                 1.0964         calculate D2E/DX2 analytically  !
 ! R10   R(4,5)                  1.4321         calculate D2E/DX2 analytically  !
 ! R11   R(5,6)                  1.5293         calculate D2E/DX2 analytically  !
 ! R12   R(5,20)                 1.0959         calculate D2E/DX2 analytically  !
 ! R13   R(5,21)                 1.0954         calculate D2E/DX2 analytically  !
 ! R14   R(6,7)                  1.4321         calculate D2E/DX2 analytically  !
 ! R15   R(6,22)                 1.094          calculate D2E/DX2 analytically  !
 ! R16   R(6,23)                 1.0953         calculate D2E/DX2 analytically  !
 ! R17   R(7,8)                  1.4311         calculate D2E/DX2 analytically  !
 ! R18   R(8,9)                  1.534          calculate D2E/DX2 analytically  !
 ! R19   R(8,24)                 1.095          calculate D2E/DX2 analytically  !
 ! R20   R(8,25)                 1.0949         calculate D2E/DX2 analytically  !
 ! R21   R(9,10)                 1.434          calculate D2E/DX2 analytically  !
 ! R22   R(9,26)                 1.0949         calculate D2E/DX2 analytically  !
 ! R23   R(9,27)                 1.0949         calculate D2E/DX2 analytically  !
 ! R24   R(10,11)                1.428          calculate D2E/DX2 analytically  !
 ! R25   R(11,12)                1.536          calculate D2E/DX2 analytically  !
 ! R26   R(11,28)                1.0961         calculate D2E/DX2 analytically  !
 ! R27   R(11,29)                1.0958         calculate D2E/DX2 analytically  !
 ! R28   R(12,13)                1.4622         calculate D2E/DX2 analytically  !
 ! R29   R(12,30)                1.0949         calculate D2E/DX2 analytically  !
 ! R30   R(12,31)                1.096          calculate D2E/DX2 analytically  !
 ! R31   R(13,32)                1.0189         calculate D2E/DX2 analytically  !
 ! R32   R(13,33)                1.0197         calculate D2E/DX2 analytically  !
 ! A1    A(2,1,14)             109.6279         calculate D2E/DX2 analytically  !
 ! A2    A(2,1,15)             109.5033         calculate D2E/DX2 analytically  !
 ! A3    A(14,1,15)            106.4735         calculate D2E/DX2 analytically  !
 ! A4    A(1,2,3)              113.1548         calculate D2E/DX2 analytically  !
 ! A5    A(1,2,16)             109.2095         calculate D2E/DX2 analytically  !
 ! A6    A(1,2,17)             109.2432         calculate D2E/DX2 analytically  !
 ! A7    A(3,2,16)             109.5317         calculate D2E/DX2 analytically  !
 ! A8    A(3,2,17)             109.5778         calculate D2E/DX2 analytically  !
 ! A9    A(16,2,17)            105.8635         calculate D2E/DX2 analytically  !
 ! A10   A(2,3,4)              108.9789         calculate D2E/DX2 analytically  !
 ! A11   A(2,3,18)             110.0745         calculate D2E/DX2 analytically  !
 ! A12   A(2,3,19)             110.003          calculate D2E/DX2 analytically  !
 ! A13   A(4,3,18)             109.4239         calculate D2E/DX2 analytically  !
 ! A14   A(4,3,19)             109.4249         calculate D2E/DX2 analytically  !
 ! A15   A(18,3,19)            108.9212         calculate D2E/DX2 analytically  !
 ! A16   A(3,4,5)              111.7948         calculate D2E/DX2 analytically  !
 ! A17   A(4,5,6)              109.6697         calculate D2E/DX2 analytically  !
 ! A18   A(4,5,20)             109.3453         calculate D2E/DX2 analytically  !
 ! A19   A(4,5,21)             108.4884         calculate D2E/DX2 analytically  !
 ! A20   A(6,5,20)             110.1048         calculate D2E/DX2 analytically  !
 ! A21   A(6,5,21)             109.524          calculate D2E/DX2 analytically  !
 ! A22   A(20,5,21)            109.6834         calculate D2E/DX2 analytically  !
 ! A23   A(5,6,7)              109.15           calculate D2E/DX2 analytically  !
 ! A24   A(5,6,22)             109.469          calculate D2E/DX2 analytically  !
 ! A25   A(5,6,23)             109.3646         calculate D2E/DX2 analytically  !
 ! A26   A(7,6,22)             109.4746         calculate D2E/DX2 analytically  !
 ! A27   A(7,6,23)             109.1726         calculate D2E/DX2 analytically  !
 ! A28   A(22,6,23)            110.1914         calculate D2E/DX2 analytically  !
 ! A29   A(6,7,8)              113.7722         calculate D2E/DX2 analytically  !
 ! A30   A(7,8,9)              113.642          calculate D2E/DX2 analytically  !
 ! A31   A(7,8,24)             108.8993         calculate D2E/DX2 analytically  !
 ! A32   A(7,8,25)             105.6            calculate D2E/DX2 analytically  !
 ! A33   A(9,8,24)             112.181          calculate D2E/DX2 analytically  !
 ! A34   A(9,8,25)             108.4252         calculate D2E/DX2 analytically  !
 ! A35   A(24,8,25)            107.7253         calculate D2E/DX2 analytically  !
 ! A36   A(8,9,10)             111.5634         calculate D2E/DX2 analytically  !
 ! A37   A(8,9,26)             110.3562         calculate D2E/DX2 analytically  !
 ! A38   A(8,9,27)             109.7977         calculate D2E/DX2 analytically  !
 ! A39   A(10,9,26)            109.9797         calculate D2E/DX2 analytically  !
 ! A40   A(10,9,27)            106.9778         calculate D2E/DX2 analytically  !
 ! A41   A(26,9,27)            108.0474         calculate D2E/DX2 analytically  !
 ! A42   A(9,10,11)            114.1122         calculate D2E/DX2 analytically  !
 ! A43   A(10,11,12)           111.1872         calculate D2E/DX2 analytically  !
 ! A44   A(10,11,28)           111.0254         calculate D2E/DX2 analytically  !
 ! A45   A(10,11,29)           106.6388         calculate D2E/DX2 analytically  !
 ! A46   A(12,11,28)           111.3484         calculate D2E/DX2 analytically  !
 ! A47   A(12,11,29)           109.1675         calculate D2E/DX2 analytically  !
 ! A48   A(28,11,29)           107.2658         calculate D2E/DX2 analytically  !
 ! A49   A(11,12,13)           113.0569         calculate D2E/DX2 analytically  !
 ! A50   A(11,12,30)           110.1711         calculate D2E/DX2 analytically  !
 ! A51   A(11,12,31)           109.4899         calculate D2E/DX2 analytically  !
 ! A52   A(13,12,30)           108.7926         calculate D2E/DX2 analytically  !
 ! A53   A(13,12,31)           109.2727         calculate D2E/DX2 analytically  !
 ! A54   A(30,12,31)           105.7962         calculate D2E/DX2 analytically  !
 ! A55   A(12,13,32)           110.0908         calculate D2E/DX2 analytically  !
 ! A56   A(12,13,33)           109.6026         calculate D2E/DX2 analytically  !
 ! A57   A(32,13,33)           106.3544         calculate D2E/DX2 analytically  !
 ! D1    D(14,1,2,3)            57.6175         calculate D2E/DX2 analytically  !
 ! D2    D(14,1,2,16)          -64.6633         calculate D2E/DX2 analytically  !
 ! D3    D(14,1,2,17)          179.9819         calculate D2E/DX2 analytically  !
 ! D4    D(15,1,2,3)           -58.8511         calculate D2E/DX2 analytically  !
 ! D5    D(15,1,2,16)          178.8682         calculate D2E/DX2 analytically  !
 ! D6    D(15,1,2,17)           63.5134         calculate D2E/DX2 analytically  !
 ! D7    D(1,2,3,4)            179.966          calculate D2E/DX2 analytically  !
 ! D8    D(1,2,3,18)           -60.0274         calculate D2E/DX2 analytically  !
 ! D9    D(1,2,3,19)            60.0015         calculate D2E/DX2 analytically  !
 ! D10   D(16,2,3,4)           -57.9332         calculate D2E/DX2 analytically  !
 ! D11   D(16,2,3,18)           62.0735         calculate D2E/DX2 analytically  !
 ! D12   D(16,2,3,19)         -177.8976         calculate D2E/DX2 analytically  !
 ! D13   D(17,2,3,4)            57.7882         calculate D2E/DX2 analytically  !
 ! D14   D(17,2,3,18)          177.7948         calculate D2E/DX2 analytically  !
 ! D15   D(17,2,3,19)          -62.1762         calculate D2E/DX2 analytically  !
 ! D16   D(2,3,4,5)            179.3828         calculate D2E/DX2 analytically  !
 ! D17   D(18,3,4,5)            58.9749         calculate D2E/DX2 analytically  !
 ! D18   D(19,3,4,5)           -60.2961         calculate D2E/DX2 analytically  !
 ! D19   D(3,4,5,6)            176.0638         calculate D2E/DX2 analytically  !
 ! D20   D(3,4,5,20)            55.2413         calculate D2E/DX2 analytically  !
 ! D21   D(3,4,5,21)           -64.349          calculate D2E/DX2 analytically  !
 ! D22   D(4,5,6,7)            -74.6917         calculate D2E/DX2 analytically  !
 ! D23   D(4,5,6,22)            45.1154         calculate D2E/DX2 analytically  !
 ! D24   D(4,5,6,23)           165.9317         calculate D2E/DX2 analytically  !
 ! D25   D(20,5,6,7)            45.6701         calculate D2E/DX2 analytically  !
 ! D26   D(20,5,6,22)          165.4771         calculate D2E/DX2 analytically  !
 ! D27   D(20,5,6,23)          -73.7065         calculate D2E/DX2 analytically  !
 ! D28   D(21,5,6,7)           166.3575         calculate D2E/DX2 analytically  !
 ! D29   D(21,5,6,22)          -73.8354         calculate D2E/DX2 analytically  !
 ! D30   D(21,5,6,23)           46.981          calculate D2E/DX2 analytically  !
 ! D31   D(5,6,7,8)           -170.5986         calculate D2E/DX2 analytically  !
 ! D32   D(22,6,7,8)            69.5978         calculate D2E/DX2 analytically  !
 ! D33   D(23,6,7,8)           -51.1031         calculate D2E/DX2 analytically  !
 ! D34   D(6,7,8,9)            -65.8365         calculate D2E/DX2 analytically  !
 ! D35   D(6,7,8,24)            60.0005         calculate D2E/DX2 analytically  !
 ! D36   D(6,7,8,25)           175.449          calculate D2E/DX2 analytically  !
 ! D37   D(7,8,9,10)            83.8216         calculate D2E/DX2 analytically  !
 ! D38   D(7,8,9,26)          -153.5969         calculate D2E/DX2 analytically  !
 ! D39   D(7,8,9,27)           -34.6002         calculate D2E/DX2 analytically  !
 ! D40   D(24,8,9,10)          -40.2561         calculate D2E/DX2 analytically  !
 ! D41   D(24,8,9,26)           82.3254         calculate D2E/DX2 analytically  !
 ! D42   D(24,8,9,27)         -158.678          calculate D2E/DX2 analytically  !
 ! D43   D(25,8,9,10)         -159.0968         calculate D2E/DX2 analytically  !
 ! D44   D(25,8,9,26)          -36.5153         calculate D2E/DX2 analytically  !
 ! D45   D(25,8,9,27)           82.4814         calculate D2E/DX2 analytically  !
 ! D46   D(8,9,10,11)           85.9142         calculate D2E/DX2 analytically  !
 ! D47   D(26,9,10,11)         -36.8828         calculate D2E/DX2 analytically  !
 ! D48   D(27,9,10,11)        -153.9905         calculate D2E/DX2 analytically  !
 ! D49   D(9,10,11,12)          85.6487         calculate D2E/DX2 analytically  !
 ! D50   D(9,10,11,28)         -38.9112         calculate D2E/DX2 analytically  !
 ! D51   D(9,10,11,29)        -155.4461         calculate D2E/DX2 analytically  !
 ! D52   D(10,11,12,13)        176.0023         calculate D2E/DX2 analytically  !
 ! D53   D(10,11,12,30)        -62.036          calculate D2E/DX2 analytically  !
 ! D54   D(10,11,12,31)         53.9178         calculate D2E/DX2 analytically  !
 ! D55   D(28,11,12,13)        -59.6201         calculate D2E/DX2 analytically  !
 ! D56   D(28,11,12,30)         62.3416         calculate D2E/DX2 analytically  !
 ! D57   D(28,11,12,31)        178.2954         calculate D2E/DX2 analytically  !
 ! D58   D(29,11,12,13)         58.6245         calculate D2E/DX2 analytically  !
 ! D59   D(29,11,12,30)       -179.4138         calculate D2E/DX2 analytically  !
 ! D60   D(29,11,12,31)        -63.46           calculate D2E/DX2 analytically  !
 ! D61   D(11,12,13,32)         55.9884         calculate D2E/DX2 analytically  !
 ! D62   D(11,12,13,33)        -60.6611         calculate D2E/DX2 analytically  !
 ! D63   D(30,12,13,32)        -66.7434         calculate D2E/DX2 analytically  !
 ! D64   D(30,12,13,33)        176.6071         calculate D2E/DX2 analytically  !
 ! D65   D(31,12,13,32)        178.1945         calculate D2E/DX2 analytically  !
 ! D66   D(31,12,13,33)         61.545          calculate D2E/DX2 analytically  !
 --------------------------------------------------------------------------------
 Trust Radius=3.00D-01 FncErr=1.00D-07 GrdErr=1.00D-06 EigMax=2.50D+02 EigMin=1.00D-04
 Number of steps in this run=    165 maximum allowed number of steps=    198.
 GradGradGradGradGradGradGradGradGradGradGradGradGradGradGradGradGradGrad

                          Input orientation:                          
 ---------------------------------------------------------------------
 Center     Atomic      Atomic             Coordinates (Angstroms)
 Number     Number       Type             X           Y           Z
 ---------------------------------------------------------------------
      1          7           0       -6.341299    0.573368    0.288314
      2          6           0       -4.899937    0.820059    0.227414
      3          6           0       -4.065372   -0.464628    0.287414
      4          8           0       -2.682139   -0.122747    0.221151
      5          6           0       -1.844133   -1.282149    0.287006
      6          6           0       -0.381462   -0.870595    0.113863
      7          8           0       -0.141856   -0.555481   -1.262429
      8          6           0        1.240718   -0.363058   -1.577945
      9          6           0        1.861558    0.864464   -0.899072
     10          8           0        2.290389    0.567467    0.436652
     11          6           0        3.605527    0.017142    0.518336
     12          6           0        4.669113    1.124566    0.560104
     13          7           0        6.025861    0.609110    0.737504
     14          1           0       -6.565603    0.064178    1.141797
     15          1           0       -6.616740   -0.027356   -0.487438
     16          1           0       -4.612337    1.482694    1.051728
     17          1           0       -4.665717    1.367534   -0.692752
     18          1           0       -4.264370   -0.999295    1.223732
     19          1           0       -4.320464   -1.117307   -0.555827
     20          1           0       -2.133775   -1.984755   -0.502593
     21          1           0       -1.978494   -1.752646    1.267028
     22          1           0       -0.174668    0.008910    0.730752
     23          1           0        0.267241   -1.701649    0.410812
     24          1           0        1.788207   -1.283279   -1.348839
     25          1           0        1.277407   -0.214482   -2.662146
     26          1           0        2.704895    1.239621   -1.488042
     27          1           0        1.116968    1.663789   -0.825513
     28          1           0        3.790627   -0.683042   -0.304385
     29          1           0        3.647807   -0.557632    1.450308
     30          1           0        4.634219    1.716453   -0.360343
     31          1           0        4.438275    1.822806    1.372741
     32          1           0        6.242889   -0.064636    0.004685
     33          1           0        6.086662    0.102574    1.620413
 ---------------------------------------------------------------------
                    Distance matrix (angstroms):
                    1          2          3          4          5
     1  N    0.000000
     2  C    1.463587   0.000000
     3  C    2.501455   1.533141   0.000000
     4  O    3.725391   2.409887   1.426397   0.000000
     5  C    4.864919   3.709551   2.366906   1.432062   0.000000
     6  C    6.134747   4.825746   3.710273   2.421549   1.529302
     7  O    6.489391   5.172145   4.219509   2.973433   2.413824
     8  C    7.864273   6.508973   5.625343   4.322418   3.720092
     9  C    8.293460   6.854835   6.188920   4.782746   4.443746
    10  O    8.632964   7.197803   6.440744   5.024825   4.531859
    11  C    9.965021   8.548230   7.689481   6.296239   5.607180
    12  C   11.027549   9.579672   8.882067   7.464019   6.949046
    13  N   12.375367  10.939733  10.158174   8.753942   8.106579
    14  H    1.018833   2.044968   2.694579   3.995475   4.983526
    15  H    1.019082   2.043657   2.702051   3.999035   4.995202
    16  H    2.097375   1.096035   2.162270   2.644422   3.986491
    17  H    2.097800   1.096035   2.162858   2.644000   3.992753
    18  H    2.768015   2.169480   1.096430   2.068082   2.610557
    19  H    2.766718   2.168558   1.096411   2.068080   2.621022
    20  H    4.987262   4.006438   2.581853   2.071613   1.095908
    21  H    5.040068   4.029198   2.640775   2.060472   1.095382
    22  H    6.208196   4.820735   3.944410   2.562116   2.156585
    23  H    6.990244   5.752598   4.507437   3.350782   2.156203
    24  H    8.498016   7.186089   6.132855   4.878083   3.983703
    25  H    8.207960   6.897783   6.108009   4.898961   4.425090
    26  H    9.242995   7.807195   7.203695   5.813563   5.495796
    27  H    7.619408   6.166335   5.711867   4.326711   4.322543
    28  H   10.226719   8.835612   7.881285   6.518191   5.697298
    29  H   10.119863   8.743995   7.800904   6.462830   5.660354
    30  H   11.053931   9.594223   8.992197   7.566365   7.167966
    31  H   10.905791   9.461474   8.872559   7.470718   7.091419
    32  H   12.603542  11.180110  10.319892   8.927841   8.183030
    33  H   12.508011  11.097774  10.254872   8.882599   8.160450
                    6          7          8          9         10
     6  C    0.000000
     7  O    1.432092   0.000000
     8  C    2.398182   1.431114   0.000000
     9  C    3.011246   2.482325   1.533988   0.000000
    10  O    3.051393   3.172334   2.454850   1.433967   0.000000
    11  C    4.104602   4.188305   3.182966   2.401755   1.427977
    12  C    5.448679   5.411987   4.305597   3.174777   2.446207
    13  N    6.605471   6.587620   5.404074   4.481630   3.747800
    14  H    6.338300   6.886857   8.277570   8.707619   8.898264
    15  H    6.320705   6.542450   7.939871   8.535005   8.974669
    16  H    4.931315   5.430901   6.676843   6.789635   6.990249
    17  H    4.900478   4.948519   6.218078   6.549883   7.092465
    18  H    4.040464   4.834573   6.209685   6.745879   6.785211
    19  H    4.003135   4.275009   5.704416   6.500971   6.893972
    20  H    2.166096   2.566694   3.895316   4.923203   5.193192
    21  H    2.158313   3.347327   4.515324   5.127109   4.929077
    22  H    1.094004   2.071807   2.733452   2.744907   2.544599
    23  H    1.095283   2.069009   2.587401   3.292807   3.040178
    24  H    2.649013   2.064533   1.095007   2.195557   2.620196
    25  H    3.299781   2.022324   1.094948   2.147972   3.352629
    26  H    4.067518   3.373022   2.172665   1.094918   2.080398
    27  H    3.090440   2.588569   2.165543   1.094872   2.042523
    28  H    4.197193   4.049511   2.868167   2.543568   2.088929
    29  H    4.256647   4.660525   3.873275   3.276069   2.033699
    30  H    5.663457   5.365290   4.162063   2.950214   2.729270
    31  H    5.662954   5.794650   4.869181   3.566374   2.658111
    32  H    6.674092   6.527746   5.255044   4.569033   4.025967
    33  H    6.712181   6.894798   5.824901   4.977929   4.003636
                   11         12         13         14         15
    11  C    0.000000
    12  C    1.536017   0.000000
    13  N    2.501296   1.462167   0.000000
    14  H   10.190328  11.299629  12.609733   0.000000
    15  H   10.271723  11.392749  12.717741   1.632605   0.000000
    16  H    8.364547   9.301358  10.678631   2.415688   2.943962
    17  H    8.467808   9.421662  10.813449   2.945144   2.407148
    18  H    7.966555   9.206427  10.426516   2.536407   3.066987
    19  H    8.078498   9.331869  10.568806   3.052618   2.542745
    20  H    6.163560   7.554898   8.651338   5.152013   4.891688
    21  H    5.905419   7.277964   8.362296   4.935392   5.250533
    22  H    3.786167   4.973532   6.229514   6.404378   6.556340
    23  H    3.756322   5.233188   6.213537   7.095085   7.141380
    24  H    2.912060   4.212054   5.088387   8.820717   8.541808
    25  H    3.948323   4.866169   5.897774   8.721263   8.190356
    26  H    2.516177   2.840122   4.047150   9.707721   9.460407
    27  H    3.272660   3.850770   5.258574   8.090177   7.923667
    28  H    1.096080   2.187813   2.784145  10.483381  10.429608
    29  H    1.095776   2.159935   2.743086  10.236971  10.459301
    30  H    2.172083   1.094884   2.090011  11.420265  11.386005
    31  H    2.164232   1.095995   2.096906  11.145916  11.362074
    32  H    2.688160   2.049259   1.018852  12.859513  12.869096
    33  H    2.716229   2.044057   1.019708  12.661372  12.877745
                   16         17         18         19         20
    16  H    0.000000
    17  H    1.749092   0.000000
    18  H    2.512158   3.071786   0.000000
    19  H    3.070737   2.512445   1.784350   0.000000
    20  H    4.536782   4.205322   2.913892   2.353064   0.000000
    21  H    4.177429   4.560419   2.407206   3.035009   1.791520
    22  H    4.687001   4.903238   4.240893   4.484560   3.055150
    23  H    5.861834   5.913697   4.657214   4.724710   2.584441
    24  H    7.374300   7.007881   6.582739   6.162165   4.073100
    25  H    7.166753   6.457709   6.813756   6.048788   4.408367
    26  H    7.749284   7.414497   7.806223   7.468587   5.897494
    27  H    6.031730   5.791791   6.344306   6.113337   4.897293
    28  H    8.782896   8.710077   8.204763   8.126599   6.068961
    29  H    8.517733   8.798503   7.927733   8.235968   6.267152
    30  H    9.356676   9.312414   9.437662   9.394401   7.715240
    31  H    9.062688   9.346454   9.149999   9.438175   7.823442
    32  H   11.014829  11.024301  10.618952  10.630462   8.608872
    33  H   10.802625  11.070885  10.417069  10.701981   8.742979
                   21         22         23         24         25
    21  H    0.000000
    22  H    2.577685   0.000000
    23  H    2.403961   1.795455   0.000000
    24  H    4.609891   3.138045   2.363207   0.000000
    25  H    5.329657   3.697321   3.560221   1.768620   0.000000
    26  H    6.203080   3.837913   4.266014   2.687884   2.351734
    27  H    5.062869   2.613218   3.684659   3.067514   2.631893
    28  H    6.074220   4.156185   3.736752   2.336847   3.477766
    29  H    5.754730   3.930655   3.717197   3.438009   4.759078
    30  H    7.642706   5.218389   5.598983   4.251506   4.504996
    31  H    7.346425   4.998161   5.544783   4.906896   5.515609
    32  H    8.487286   6.458917   6.209116   4.812620   5.638302
    33  H    8.283324   6.324912   6.211603   5.404976   6.447462
                   26         27         28         29         30
    26  H    0.000000
    27  H    1.772110   0.000000
    28  H    2.505293   3.595503   0.000000
    29  H    3.571149   4.064385   1.764957   0.000000
    30  H    2.285031   3.548269   2.544083   3.069680   0.000000
    31  H    3.395408   3.986062   3.084068   2.509450   1.747366
    32  H    4.055456   5.472819   2.547850   3.011199   2.427621
    33  H    4.731989   5.754807   3.097388   2.532354   2.938978
                   31         32         33
    31  H    0.000000
    32  H    2.947990   0.000000
    33  H    2.395353   1.631853   0.000000
 Stoichiometry    C8H20N2O3
 Framework group  C1[X(C8H20N2O3)]
 Deg. of freedom    93
 Full point group                 C1      NOp   1
 Largest Abelian subgroup         C1      NOp   1
 Largest concise Abelian subgroup C1      NOp   1
                         Standard orientation:                         
 ---------------------------------------------------------------------
 Center     Atomic      Atomic             Coordinates (Angstroms)
 Number     Number       Type             X           Y           Z
 ---------------------------------------------------------------------
      1          7           0        6.259114   -0.810869   -0.412147
      2          6           0        4.807239   -0.873571   -0.585973
      3          6           0        4.040693   -0.023500    0.433981
      4          8           0        2.641916   -0.148360    0.184093
      5          6           0        1.865339    0.613523    1.115362
      6          6           0        0.384278    0.524321    0.744868
      7          8           0        0.137392    1.342419   -0.404327
      8          6           0       -1.251294    1.502409   -0.710990
      9          6           0       -1.939902    0.201293   -1.142310
     10          8           0       -2.361209   -0.572203   -0.010734
     11          6           0       -3.646239   -0.211302    0.496778
     12          6           0       -4.766579   -0.942164   -0.258223
     13          7           0       -6.095604   -0.673898    0.289189
     14          1           0        6.504251   -1.110875    0.530150
     15          1           0        6.570621    0.155636   -0.497927
     16          1           0        4.480036   -1.917077   -0.512989
     17          1           0        4.550626   -0.549424   -1.601044
     18          1           0        4.261358   -0.366795    1.451633
     19          1           0        4.335033    1.028654    0.342038
     20          1           0        2.196449    1.658021    1.095206
     21          1           0        2.017816    0.197410    2.117092
     22          1           0        0.127756   -0.514100    0.515253
     23          1           0       -0.221938    0.887303    1.581762
     24          1           0       -1.751332    1.971394    0.142857
     25          1           0       -1.288713    2.207620   -1.547763
     26          1           0       -2.797901    0.419874   -1.786442
     27          1           0       -1.238662   -0.418778   -1.710219
     28          1           0       -3.789123    0.875068    0.468945
     29          1           0       -3.664388   -0.514857    1.549512
     30          1           0       -4.756776   -0.658326   -1.315630
     31          1           0       -4.577854   -2.021585   -0.237299
     32          1           0       -6.272335    0.329409    0.303259
     33          1           0       -6.135503   -0.986104    1.259106
 ---------------------------------------------------------------------
 Rotational constants (GHZ):           2.2874751           0.1865471           0.1836340
 Standard basis: 6-31G(d,p) (6D, 7F)
 There are   295 symmetry adapted cartesian basis functions of A   symmetry.
 There are   295 symmetry adapted basis functions of A   symmetry.
   295 basis functions,   504 primitive gaussians,   295 cartesian basis functions
    53 alpha electrons       53 beta electrons
       nuclear repulsion energy       826.0601207680 Hartrees.
 NAtoms=   33 NActive=   33 NUniq=   33 SFac= 1.00D+00 NAtFMM=   60 NAOKFM=F Big=F
 Integral buffers will be    131072 words long.
 Raffenetti 2 integral format.
 Two-electron integral symmetry is turned on.
 Force inversion solution in PCM.
 ------------------------------------------------------------------------------
 Polarizable Continuum Model (PCM)
 =================================
 Model                : PCM.
 Atomic radii         : UFF (Universal Force Field).
 Polarization charges : Total charges.
 Charge compensation  : None.
 Solution method      : Matrix inversion.
 Cavity type          : Scaled VdW (van der Waals Surface) (Alpha=1.100).
 Cavity algorithm     : GePol (No added spheres)
                        Default sphere list used, NSphG=   33.
                        Lebedev-Laikov grids with approx.  5.0 points / Ang**2.
                        Smoothing algorithm: York/Karplus (Gamma=1.0000).
                        Polarization charges: spherical gaussians, with
                                              point-specific exponents (IZeta= 3).
                        Self-potential: point-specific (ISelfS= 7).
                        Self-field    : sphere-specific E.n sum rule (ISelfD= 2).
 1st derivatives      : Analytical E(r).r(x)/FMM algorithm (CHGder, D1EAlg=3).
                        Cavity 1st derivative terms included.
 2nd derivatives      : Analytical E(r).r(xy)/FMM algorithm (CHGder, D2EAlg=3).
                        Cavity 2nd derivative terms included.
 Solvent              : Water, Eps=  78.355300 Eps(inf)=   1.777849
 ------------------------------------------------------------------------------
 One-electron integrals computed using PRISM.
 NBasis=   295 RedAO= T EigKep=  3.57D-03  NBF=   295
 NBsUse=   295 1.00D-06 EigRej= -1.00D+00 NBFU=   295
 ExpMin= 1.61D-01 ExpMax= 5.48D+03 ExpMxC= 8.25D+02 IAcc=3 IRadAn=         5 AccDes= 0.00D+00
 Harris functional with IExCor=  402 and IRadAn=       5 diagonalized for initial guess.
 HarFok:  IExCor=  402 AccDes= 0.00D+00 IRadAn=         5 IDoV= 1 UseB2=F ITyADJ=14
 ICtDFT=  3500011 ScaDFX=  1.000000  1.000000  1.000000  1.000000
 FoFCou: FMM=F IPFlag=           0 FMFlag=      100000 FMFlg1=           0
         NFxFlg=           0 DoJE=T BraDBF=F KetDBF=T FulRan=T
         wScrn=  0.000000 ICntrl=       500 IOpCl=  0 I1Cent=   200000004 NGrid=           0
         NMat0=    1 NMatS0=      1 NMatT0=    0 NMatD0=    1 NMtDS0=    0 NMtDT0=    0
 Petite list used in FoFCou.
 Requested convergence on RMS density matrix=1.00D-08 within  32 cycles.
 Requested convergence on MAX density matrix=1.00D-06.
 Requested convergence on             energy=1.00D-06.
 No special actions if energy rises.
 Inv3:  Mode=1 IEnd=    16595712.
 Iteration    1 A*A^-1 deviation from unit magnitude is 3.11D-15 for    226.
 Iteration    1 A*A^-1 deviation from orthogonality  is 1.78D-15 for   1774    508.
 Iteration    1 A^-1*A deviation from unit magnitude is 3.11D-15 for    226.
 Iteration    1 A^-1*A deviation from orthogonality  is 2.35D-15 for   1494     95.
 Error on total polarization charges =  0.01016
 SCF Done:  E(RB3LYP) =  -652.045619917     A.U. after   11 cycles
            NFock= 11  Conv=0.70D-08     -V/T= 2.0092
 QCSCF skips out because SCF is already converged.
 DoSCS=F DFT=T ScalE2(SS,OS)=  1.000000  1.000000
 Range of M.O.s used for correlation:     1   295
 NBasis=   295 NAE=    53 NBE=    53 NFC=     0 NFV=     0
 NROrb=    295 NOA=    53 NOB=    53 NVA=   242 NVB=   242
 Symmetrizing basis deriv contribution to polar:
 IMax=3 JMax=2 DiffMx= 0.00D+00
 G2DrvN: will do    34 centers at a time, making    1 passes.
 Calling FoFCou, ICntrl=  3107 FMM=F I1Cent=   0 AccDes= 0.00D+00.
 NEqPCM:  Using equilibrium solvation (IEInf=0, Eps=  78.3553, EpsInf=   1.7778)
 G2PCM: DoFxE=T DoFxN=T DoGrad=T DoDP/DQ/DG/TGxP=FFFF NFrqRd=   0 IEInf=0 SqF1=F DoCFld=F IF1Alg=4.
 End of G2Drv F.D. properties file   721 does not exist.
 End of G2Drv F.D. properties file   722 does not exist.
 End of G2Drv F.D. properties file   788 does not exist.
          IDoAtm=111111111111111111111111111111111
 NEqPCM:  Using equilibrium solvation (IEInf=0, Eps=  78.3553, EpsInf=   1.7778)
          Differentiating once with respect to nuclear coordinates.
 Keep R1 ints in memory in canonical form, NReq=966711190.
          There are   102 degrees of freedom in the 1st order CPHF.  IDoFFX=6 NUNeed=     0.
     96 vectors produced by pass  0 Test12= 1.28D-14 1.00D-09 XBig12= 8.52D-02 7.10D-02.
 AX will form    96 AO Fock derivatives at one time.
     96 vectors produced by pass  1 Test12= 1.28D-14 1.00D-09 XBig12= 7.10D-03 2.08D-02.
     96 vectors produced by pass  2 Test12= 1.28D-14 1.00D-09 XBig12= 1.21D-04 1.97D-03.
     96 vectors produced by pass  3 Test12= 1.28D-14 1.00D-09 XBig12= 7.41D-07 1.23D-04.
     96 vectors produced by pass  4 Test12= 1.28D-14 1.00D-09 XBig12= 7.26D-10 2.77D-06.
     46 vectors produced by pass  5 Test12= 1.28D-14 1.00D-09 XBig12= 5.23D-13 8.82D-08.
      4 vectors produced by pass  6 Test12= 1.28D-14 1.00D-09 XBig12= 3.15D-16 1.69D-09.
 InvSVY:  IOpt=1 It=  1 EMax= 4.44D-16
 Solved reduced A of dimension   530 with   102 vectors.
 End of Minotr F.D. properties file   721 does not exist.
 End of Minotr F.D. properties file   722 does not exist.
 End of Minotr F.D. properties file   788 does not exist.

 **********************************************************************

            Population analysis using the SCF density.

 **********************************************************************

 Orbital symmetries:
       Occupied  (A) (A) (A) (A) (A) (A) (A) (A) (A) (A) (A) (A)
                 (A) (A) (A) (A) (A) (A) (A) (A) (A) (A) (A) (A)
                 (A) (A) (A) (A) (A) (A) (A) (A) (A) (A) (A) (A)
                 (A) (A) (A) (A) (A) (A) (A) (A) (A) (A) (A) (A)
                 (A) (A) (A) (A) (A)
       Virtual   (A) (A) (A) (A) (A) (A) (A) (A) (A) (A) (A) (A)
                 (A) (A) (A) (A) (A) (A) (A) (A) (A) (A) (A) (A)
                 (A) (A) (A) (A) (A) (A) (A) (A) (A) (A) (A) (A)
                 (A) (A) (A) (A) (A) (A) (A) (A) (A) (A) (A) (A)
                 (A) (A) (A) (A) (A) (A) (A) (A) (A) (A) (A) (A)
                 (A) (A) (A) (A) (A) (A) (A) (A) (A) (A) (A) (A)
                 (A) (A) (A) (A) (A) (A) (A) (A) (A) (A) (A) (A)
                 (A) (A) (A) (A) (A) (A) (A) (A) (A) (A) (A) (A)
                 (A) (A) (A) (A) (A) (A) (A) (A) (A) (A) (A) (A)
                 (A) (A) (A) (A) (A) (A) (A) (A) (A) (A) (A) (A)
                 (A) (A) (A) (A) (A) (A) (A) (A) (A) (A) (A) (A)
                 (A) (A) (A) (A) (A) (A) (A) (A) (A) (A) (A) (A)
                 (A) (A) (A) (A) (A) (A) (A) (A) (A) (A) (A) (A)
                 (A) (A) (A) (A) (A) (A) (A) (A) (A) (A) (A) (A)
                 (A) (A) (A) (A) (A) (A) (A) (A) (A) (A) (A) (A)
                 (A) (A) (A) (A) (A) (A) (A) (A) (A) (A) (A) (A)
                 (A) (A) (A) (A) (A) (A) (A) (A) (A) (A) (A) (A)
                 (A) (A) (A) (A) (A) (A) (A) (A) (A) (A) (A) (A)
                 (A) (A) (A) (A) (A) (A) (A) (A) (A) (A) (A) (A)
                 (A) (A) (A) (A) (A) (A) (A) (A) (A) (A) (A) (A)
                 (A) (A)
 The electronic state is 1-A.
 Alpha  occ. eigenvalues --  -19.14751 -19.14574 -19.14544 -14.31455 -14.31377
 Alpha  occ. eigenvalues --  -10.23066 -10.22960 -10.22934 -10.22767 -10.22562
 Alpha  occ. eigenvalues --  -10.22412 -10.20586 -10.20393  -1.03364  -1.02516
 Alpha  occ. eigenvalues --   -1.01403  -0.87945  -0.87871  -0.77086  -0.74177
 Alpha  occ. eigenvalues --   -0.70802  -0.68544  -0.63483  -0.60767  -0.60240
 Alpha  occ. eigenvalues --   -0.58134  -0.51149  -0.50415  -0.49731  -0.49361
 Alpha  occ. eigenvalues --   -0.48929  -0.46634  -0.45763  -0.45246  -0.44077
 Alpha  occ. eigenvalues --   -0.43014  -0.42231  -0.40675  -0.40038  -0.39120
 Alpha  occ. eigenvalues --   -0.38426  -0.38018  -0.36489  -0.34975  -0.34463
 Alpha  occ. eigenvalues --   -0.32379  -0.31707  -0.30826  -0.27920  -0.25732
 Alpha  occ. eigenvalues --   -0.24912  -0.23964  -0.22504
 Alpha virt. eigenvalues --    0.08280   0.08321   0.08939   0.09179   0.11571
 Alpha virt. eigenvalues --    0.12099   0.12445   0.13453   0.13659   0.14596
 Alpha virt. eigenvalues --    0.14653   0.15285   0.15502   0.17266   0.17605
 Alpha virt. eigenvalues --    0.18110   0.18689   0.19191   0.19816   0.20429
 Alpha virt. eigenvalues --    0.21160   0.21331   0.21876   0.22505   0.23282
 Alpha virt. eigenvalues --    0.23482   0.25981   0.26380   0.27053   0.28025
 Alpha virt. eigenvalues --    0.28538   0.30158   0.49908   0.51093   0.51126
 Alpha virt. eigenvalues --    0.52665   0.53795   0.54168   0.54484   0.56534
 Alpha virt. eigenvalues --    0.56927   0.57636   0.57994   0.59952   0.60373
 Alpha virt. eigenvalues --    0.62560   0.63098   0.63532   0.65329   0.66259
 Alpha virt. eigenvalues --    0.66915   0.68681   0.70600   0.71144   0.71602
 Alpha virt. eigenvalues --    0.73891   0.75045   0.77862   0.78349   0.78764
 Alpha virt. eigenvalues --    0.79457   0.80377   0.81186   0.81725   0.82097
 Alpha virt. eigenvalues --    0.84279   0.85113   0.86521   0.87114   0.88730
 Alpha virt. eigenvalues --    0.88982   0.89846   0.90591   0.91398   0.91647
 Alpha virt. eigenvalues --    0.91891   0.93502   0.93657   0.95007   0.95304
 Alpha virt. eigenvalues --    0.95902   0.97381   0.98688   1.00241   1.04180
 Alpha virt. eigenvalues --    1.04975   1.10461   1.12022   1.13663   1.14437
 Alpha virt. eigenvalues --    1.16707   1.21086   1.21490   1.24941   1.28026
 Alpha virt. eigenvalues --    1.30547   1.32070   1.32258   1.34105   1.36160
 Alpha virt. eigenvalues --    1.38838   1.40130   1.42044   1.47096   1.48857
 Alpha virt. eigenvalues --    1.49164   1.52400   1.55646   1.57013   1.59341
 Alpha virt. eigenvalues --    1.60757   1.62589   1.64435   1.65243   1.67459
 Alpha virt. eigenvalues --    1.69763   1.72107   1.72356   1.78166   1.79311
 Alpha virt. eigenvalues --    1.82566   1.84418   1.85106   1.86337   1.86625
 Alpha virt. eigenvalues --    1.88965   1.91983   1.92376   1.92980   1.93854
 Alpha virt. eigenvalues --    1.94390   1.95192   1.96347   1.98781   1.99467
 Alpha virt. eigenvalues --    1.99602   2.00778   2.01454   2.01991   2.03146
 Alpha virt. eigenvalues --    2.03624   2.04895   2.06560   2.07420   2.07695
 Alpha virt. eigenvalues --    2.09146   2.10764   2.15788   2.16098   2.17686
 Alpha virt. eigenvalues --    2.19296   2.21221   2.21912   2.22223   2.25369
 Alpha virt. eigenvalues --    2.25973   2.26444   2.28498   2.29253   2.30022
 Alpha virt. eigenvalues --    2.31871   2.32460   2.33044   2.34786   2.35746
 Alpha virt. eigenvalues --    2.36113   2.37025   2.39249   2.43072   2.45087
 Alpha virt. eigenvalues --    2.48506   2.50301   2.52010   2.52727   2.55101
 Alpha virt. eigenvalues --    2.59247   2.61304   2.62536   2.63590   2.64603
 Alpha virt. eigenvalues --    2.67202   2.67645   2.69434   2.70124   2.70512
 Alpha virt. eigenvalues --    2.72371   2.72769   2.74264   2.75135   2.77034
 Alpha virt. eigenvalues --    2.77575   2.79839   2.80698   2.83955   2.84561
 Alpha virt. eigenvalues --    2.85884   2.87735   2.88294   2.89940   2.91021
 Alpha virt. eigenvalues --    2.92643   2.95459   2.97998   2.98254   2.99019
 Alpha virt. eigenvalues --    2.99549   3.01069   3.03014   3.08131   3.24016
 Alpha virt. eigenvalues --    3.24576   3.27197   3.28883   3.29000   3.29396
 Alpha virt. eigenvalues --    3.30328   3.32132   3.32348   3.33607   3.36908
 Alpha virt. eigenvalues --    3.37562   3.41477   3.43296   3.48509   3.50819
 Alpha virt. eigenvalues --    3.52795   3.53786   3.58612   3.59035   3.87263
 Alpha virt. eigenvalues --    3.92297   3.97829   4.06567   4.13984   4.36770
 Alpha virt. eigenvalues --    4.38336   4.38614   4.40763   4.58616   4.61652
 Alpha virt. eigenvalues --    4.64157   4.66357
          Condensed to atoms (all electrons):
               1          2          3          4          5          6
     1  N    6.751779   0.306180  -0.057527   0.002570  -0.000098   0.000002
     2  C    0.306180   4.846106   0.372309  -0.034845   0.003814  -0.000211
     3  C   -0.057527   0.372309   4.813157   0.199833  -0.020287   0.003677
     4  O    0.002570  -0.034845   0.199833   8.316034   0.225382  -0.038129
     5  C   -0.000098   0.003814  -0.020287   0.225382   4.785341   0.356828
     6  C    0.000002  -0.000211   0.003677  -0.038129   0.356828   4.775599
     7  O   -0.000000   0.000001  -0.000019   0.002116  -0.041572   0.232898
     8  C    0.000000  -0.000000   0.000000   0.000041   0.003959  -0.037198
     9  C    0.000000  -0.000000   0.000000  -0.000035  -0.000195  -0.006863
    10  O   -0.000000   0.000000   0.000000  -0.000000   0.000361   0.003730
    11  C   -0.000000   0.000000  -0.000000   0.000000  -0.000002   0.000249
    12  C   -0.000000   0.000000   0.000000   0.000000   0.000000   0.000014
    13  N    0.000000   0.000000  -0.000000   0.000000  -0.000000  -0.000000
    14  H    0.347815  -0.045866  -0.003140   0.000000   0.000001   0.000000
    15  H    0.347626  -0.045705  -0.003065  -0.000001   0.000001   0.000000
    16  H   -0.033843   0.380620  -0.044404   0.004853  -0.000104   0.000005
    17  H   -0.033386   0.380523  -0.043795   0.004832  -0.000163   0.000018
    18  H    0.002592  -0.039870   0.362056  -0.038168  -0.007127   0.000099
    19  H    0.002742  -0.039910   0.363164  -0.037731  -0.008072   0.000241
    20  H    0.000006   0.000087  -0.008856  -0.041360   0.353424  -0.031195
    21  H    0.000005   0.000067  -0.007728  -0.041336   0.359914  -0.033762
    22  H    0.000000   0.000003  -0.000225   0.000719  -0.038308   0.363029
    23  H   -0.000000   0.000002  -0.000142   0.002881  -0.031952   0.358170
    24  H   -0.000000  -0.000000   0.000000   0.000000   0.000049  -0.009975
    25  H   -0.000000   0.000000  -0.000000   0.000005  -0.000180   0.006085
    26  H    0.000000  -0.000000   0.000000  -0.000000   0.000013   0.000408
    27  H   -0.000000  -0.000000  -0.000000   0.000027  -0.000143  -0.000238
    28  H   -0.000000  -0.000000  -0.000000  -0.000000   0.000000  -0.000098
    29  H   -0.000000   0.000000  -0.000000   0.000000  -0.000003  -0.000030
    30  H    0.000000  -0.000000  -0.000000   0.000000  -0.000000  -0.000001
    31  H   -0.000000   0.000000  -0.000000  -0.000000   0.000000  -0.000001
    32  H    0.000000   0.000000  -0.000000  -0.000000   0.000000  -0.000000
    33  H    0.000000  -0.000000  -0.000000  -0.000000  -0.000000  -0.000000
               7          8          9         10         11         12
     1  N   -0.000000   0.000000   0.000000  -0.000000  -0.000000  -0.000000
     2  C    0.000001  -0.000000  -0.000000   0.000000   0.000000   0.000000
     3  C   -0.000019   0.000000   0.000000   0.000000  -0.000000   0.000000
     4  O    0.002116   0.000041  -0.000035  -0.000000   0.000000   0.000000
     5  C   -0.041572   0.003959  -0.000195   0.000361  -0.000002   0.000000
     6  C    0.232898  -0.037198  -0.006863   0.003730   0.000249   0.000014
     7  O    8.264495   0.259527  -0.046839   0.000474  -0.000033  -0.000003
     8  C    0.259527   4.788372   0.336707  -0.045827  -0.008983  -0.000073
     9  C   -0.046839   0.336707   4.855853   0.225514  -0.034141  -0.008248
    10  O    0.000474  -0.045827   0.225514   8.277157   0.206236  -0.037976
    11  C   -0.000033  -0.008983  -0.034141   0.206236   4.849791   0.353572
    12  C   -0.000003  -0.000073  -0.008248  -0.037976   0.353572   4.896837
    13  N    0.000000   0.000008   0.000190   0.003198  -0.055844   0.289466
    14  H   -0.000000   0.000000  -0.000000   0.000000  -0.000000  -0.000000
    15  H    0.000000  -0.000000  -0.000000   0.000000  -0.000000  -0.000000
    16  H    0.000000  -0.000000  -0.000000   0.000000  -0.000000   0.000000
    17  H   -0.000000   0.000000  -0.000000   0.000000   0.000000  -0.000000
    18  H    0.000002   0.000000  -0.000000  -0.000000  -0.000000  -0.000000
    19  H   -0.000021  -0.000001  -0.000000  -0.000000  -0.000000   0.000000
    20  H    0.001404   0.000062   0.000028  -0.000004   0.000000  -0.000000
    21  H    0.002962  -0.000153   0.000012  -0.000000   0.000000  -0.000000
    22  H   -0.042870  -0.004150   0.006544   0.003516  -0.000130   0.000002
    23  H   -0.039902  -0.006823  -0.002995   0.000912   0.000265   0.000010
    24  H   -0.039216   0.370217  -0.049360  -0.003968   0.001304   0.000119
    25  H   -0.035654   0.369811  -0.035971   0.003449   0.000401   0.000001
    26  H    0.002961  -0.038068   0.351394  -0.033331  -0.003827   0.002910
    27  H    0.000967  -0.043884   0.380662  -0.035482   0.004861   0.000240
    28  H    0.000011   0.004351  -0.005691  -0.031562   0.360795  -0.049653
    29  H    0.000003   0.000166   0.005639  -0.031450   0.382325  -0.048103
    30  H    0.000000   0.000098   0.001601   0.001007  -0.045727   0.385873
    31  H    0.000000   0.000026   0.000004   0.004857  -0.044020   0.380860
    32  H    0.000000   0.000000   0.000018   0.000009  -0.003483  -0.045863
    33  H   -0.000000   0.000000   0.000008   0.000043  -0.002842  -0.046869
              13         14         15         16         17         18
     1  N    0.000000   0.347815   0.347626  -0.033843  -0.033386   0.002592
     2  C    0.000000  -0.045866  -0.045705   0.380620   0.380523  -0.039870
     3  C   -0.000000  -0.003140  -0.003065  -0.044404  -0.043795   0.362056
     4  O    0.000000   0.000000  -0.000001   0.004853   0.004832  -0.038168
     5  C   -0.000000   0.000001   0.000001  -0.000104  -0.000163  -0.007127
     6  C   -0.000000   0.000000   0.000000   0.000005   0.000018   0.000099
     7  O    0.000000  -0.000000   0.000000   0.000000  -0.000000   0.000002
     8  C    0.000008   0.000000  -0.000000  -0.000000   0.000000   0.000000
     9  C    0.000190  -0.000000  -0.000000  -0.000000  -0.000000  -0.000000
    10  O    0.003198   0.000000   0.000000   0.000000   0.000000  -0.000000
    11  C   -0.055844  -0.000000  -0.000000  -0.000000   0.000000  -0.000000
    12  C    0.289466  -0.000000  -0.000000   0.000000  -0.000000  -0.000000
    13  N    6.763934   0.000000   0.000000  -0.000000   0.000000   0.000000
    14  H    0.000000   0.472980  -0.033166  -0.005196   0.006362   0.005485
    15  H    0.000000  -0.033166   0.473225   0.006389  -0.005472  -0.000554
    16  H   -0.000000  -0.005196   0.006389   0.620014  -0.038733  -0.007911
    17  H    0.000000   0.006362  -0.005472  -0.038733   0.618837   0.006579
    18  H    0.000000   0.005485  -0.000554  -0.007911   0.006579   0.676445
    19  H   -0.000000  -0.000553   0.005397   0.006577  -0.007865  -0.057318
    20  H    0.000000  -0.000000   0.000001   0.000044  -0.000050  -0.002988
    21  H    0.000000   0.000001  -0.000000  -0.000056   0.000040   0.012911
    22  H   -0.000000  -0.000000   0.000000   0.000010  -0.000000  -0.000026
    23  H   -0.000000   0.000000   0.000000   0.000000   0.000000   0.000011
    24  H    0.000003  -0.000000  -0.000000   0.000000  -0.000000  -0.000000
    25  H   -0.000001  -0.000000   0.000000   0.000000  -0.000000   0.000000
    26  H   -0.000378   0.000000  -0.000000  -0.000000  -0.000000  -0.000000
    27  H    0.000000  -0.000000   0.000000   0.000000   0.000000   0.000000
    28  H    0.004078   0.000000   0.000000   0.000000   0.000000  -0.000000
    29  H    0.003320  -0.000000  -0.000000  -0.000000  -0.000000  -0.000000
    30  H   -0.034356  -0.000000  -0.000000   0.000000  -0.000000  -0.000000
    31  H   -0.032449   0.000000  -0.000000  -0.000000   0.000000   0.000000
    32  H    0.348040   0.000000   0.000000  -0.000000   0.000000   0.000000
    33  H    0.348152  -0.000000   0.000000  -0.000000   0.000000   0.000000
              19         20         21         22         23         24
     1  N    0.002742   0.000006   0.000005   0.000000  -0.000000  -0.000000
     2  C   -0.039910   0.000087   0.000067   0.000003   0.000002  -0.000000
     3  C    0.363164  -0.008856  -0.007728  -0.000225  -0.000142   0.000000
     4  O   -0.037731  -0.041360  -0.041336   0.000719   0.002881   0.000000
     5  C   -0.008072   0.353424   0.359914  -0.038308  -0.031952   0.000049
     6  C    0.000241  -0.031195  -0.033762   0.363029   0.358170  -0.009975
     7  O   -0.000021   0.001404   0.002962  -0.042870  -0.039902  -0.039216
     8  C   -0.000001   0.000062  -0.000153  -0.004150  -0.006823   0.370217
     9  C   -0.000000   0.000028   0.000012   0.006544  -0.002995  -0.049360
    10  O   -0.000000  -0.000004  -0.000000   0.003516   0.000912  -0.003968
    11  C   -0.000000   0.000000   0.000000  -0.000130   0.000265   0.001304
    12  C    0.000000  -0.000000  -0.000000   0.000002   0.000010   0.000119
    13  N   -0.000000   0.000000   0.000000  -0.000000  -0.000000   0.000003
    14  H   -0.000553  -0.000000   0.000001  -0.000000   0.000000  -0.000000
    15  H    0.005397   0.000001  -0.000000   0.000000   0.000000  -0.000000
    16  H    0.006577   0.000044  -0.000056   0.000010   0.000000   0.000000
    17  H   -0.007865  -0.000050   0.000040  -0.000000   0.000000  -0.000000
    18  H   -0.057318  -0.002988   0.012911  -0.000026   0.000011  -0.000000
    19  H    0.672816   0.013770  -0.002680   0.000050   0.000010   0.000000
    20  H    0.013770   0.661476  -0.048566   0.006985  -0.001505  -0.000044
    21  H   -0.002680  -0.048566   0.661362  -0.000927   0.000591  -0.000002
    22  H    0.000050   0.006985  -0.000927   0.647007  -0.047333  -0.001687
    23  H    0.000010  -0.001505   0.000591  -0.047333   0.658940   0.013706
    24  H    0.000000  -0.000044  -0.000002  -0.001687   0.013706   0.640778
    25  H    0.000000  -0.000035   0.000003  -0.000286   0.000020  -0.035320
    26  H    0.000000  -0.000000  -0.000000  -0.000126   0.000043   0.001645
    27  H    0.000000  -0.000001   0.000003  -0.001163   0.000533   0.005391
    28  H    0.000000   0.000000   0.000000   0.000101   0.000025   0.003561
    29  H    0.000000   0.000000  -0.000000  -0.000112   0.000097  -0.000196
    30  H    0.000000   0.000000  -0.000000  -0.000002   0.000000   0.000012
    31  H   -0.000000   0.000000  -0.000000   0.000003  -0.000000   0.000000
    32  H   -0.000000   0.000000  -0.000000   0.000000  -0.000000  -0.000002
    33  H   -0.000000   0.000000   0.000000  -0.000000  -0.000000   0.000000
              25         26         27         28         29         30
     1  N   -0.000000   0.000000  -0.000000  -0.000000  -0.000000   0.000000
     2  C    0.000000  -0.000000  -0.000000  -0.000000   0.000000  -0.000000
     3  C   -0.000000   0.000000  -0.000000  -0.000000  -0.000000  -0.000000
     4  O    0.000005  -0.000000   0.000027  -0.000000   0.000000   0.000000
     5  C   -0.000180   0.000013  -0.000143   0.000000  -0.000003  -0.000000
     6  C    0.006085   0.000408  -0.000238  -0.000098  -0.000030  -0.000001
     7  O   -0.035654   0.002961   0.000967   0.000011   0.000003   0.000000
     8  C    0.369811  -0.038068  -0.043884   0.004351   0.000166   0.000098
     9  C   -0.035971   0.351394   0.380662  -0.005691   0.005639   0.001601
    10  O    0.003449  -0.033331  -0.035482  -0.031562  -0.031450   0.001007
    11  C    0.000401  -0.003827   0.004861   0.360795   0.382325  -0.045727
    12  C    0.000001   0.002910   0.000240  -0.049653  -0.048103   0.385873
    13  N   -0.000001  -0.000378   0.000000   0.004078   0.003320  -0.034356
    14  H   -0.000000   0.000000  -0.000000   0.000000  -0.000000  -0.000000
    15  H    0.000000  -0.000000   0.000000   0.000000  -0.000000  -0.000000
    16  H    0.000000  -0.000000   0.000000   0.000000  -0.000000   0.000000
    17  H   -0.000000  -0.000000   0.000000   0.000000  -0.000000  -0.000000
    18  H    0.000000  -0.000000   0.000000  -0.000000  -0.000000  -0.000000
    19  H    0.000000   0.000000   0.000000   0.000000   0.000000   0.000000
    20  H   -0.000035  -0.000000  -0.000001   0.000000   0.000000   0.000000
    21  H    0.000003  -0.000000   0.000003   0.000000  -0.000000  -0.000000
    22  H   -0.000286  -0.000126  -0.001163   0.000101  -0.000112  -0.000002
    23  H    0.000020   0.000043   0.000533   0.000025   0.000097   0.000000
    24  H   -0.035320   0.001645   0.005391   0.003561  -0.000196   0.000012
    25  H    0.618093  -0.000031   0.000892  -0.000832   0.000001  -0.000007
    26  H   -0.000031   0.639464  -0.032180   0.000625  -0.000151   0.002048
    27  H    0.000892  -0.032180   0.599837  -0.000141  -0.000273  -0.000167
    28  H   -0.000832   0.000625  -0.000141   0.654604  -0.040983  -0.006320
    29  H    0.000001  -0.000151  -0.000273  -0.040983   0.621026   0.005759
    30  H   -0.000007   0.002048  -0.000167  -0.006320   0.005759   0.616088
    31  H   -0.000001   0.000032  -0.000048   0.006179  -0.006568  -0.038270
    32  H    0.000000   0.000004  -0.000000   0.005290  -0.000472  -0.004733
    33  H   -0.000000  -0.000003  -0.000000  -0.000442   0.005295   0.006347
              31         32         33
     1  N   -0.000000   0.000000   0.000000
     2  C    0.000000   0.000000  -0.000000
     3  C   -0.000000  -0.000000  -0.000000
     4  O   -0.000000  -0.000000  -0.000000
     5  C    0.000000   0.000000  -0.000000
     6  C   -0.000001  -0.000000  -0.000000
     7  O    0.000000   0.000000  -0.000000
     8  C    0.000026   0.000000   0.000000
     9  C    0.000004   0.000018   0.000008
    10  O    0.004857   0.000009   0.000043
    11  C   -0.044020  -0.003483  -0.002842
    12  C    0.380860  -0.045863  -0.046869
    13  N   -0.032449   0.348040   0.348152
    14  H    0.000000   0.000000  -0.000000
    15  H   -0.000000   0.000000   0.000000
    16  H   -0.000000  -0.000000  -0.000000
    17  H    0.000000   0.000000   0.000000
    18  H    0.000000   0.000000   0.000000
    19  H   -0.000000  -0.000000  -0.000000
    20  H    0.000000   0.000000   0.000000
    21  H   -0.000000  -0.000000   0.000000
    22  H    0.000003   0.000000  -0.000000
    23  H   -0.000000  -0.000000  -0.000000
    24  H    0.000000  -0.000002   0.000000
    25  H   -0.000001   0.000000  -0.000000
    26  H    0.000032   0.000004  -0.000003
    27  H   -0.000048  -0.000000  -0.000000
    28  H    0.006179   0.005290  -0.000442
    29  H   -0.006568  -0.000472   0.005295
    30  H   -0.038270  -0.004733   0.006347
    31  H    0.617269   0.006303  -0.005929
    32  H    0.006303   0.473401  -0.033266
    33  H   -0.005929  -0.033266   0.474672
 Mulliken charges:
               1
     1  N   -0.636462
     2  C   -0.083306
     3  C    0.074991
     4  O   -0.527688
     5  C    0.059120
     6  C    0.056646
     7  O   -0.521693
     8  C    0.051813
     9  C    0.026161
    10  O   -0.510862
    11  C    0.039233
    12  C   -0.073116
    13  N   -0.637363
    14  H    0.255277
    15  H    0.255322
    16  H    0.111734
    17  H    0.112273
    18  H    0.087782
    19  H    0.089382
    20  H    0.097317
    21  H    0.097338
    22  H    0.109377
    23  H    0.094436
    24  H    0.102982
    25  H    0.109557
    26  H    0.106546
    27  H    0.120310
    28  H    0.096101
    29  H    0.104708
    30  H    0.110748
    31  H    0.111751
    32  H    0.254753
    33  H    0.254832
 Sum of Mulliken charges =  -0.00000
 Mulliken charges with hydrogens summed into heavy atoms:
               1
     1  N   -0.125863
     2  C    0.140702
     3  C    0.252156
     4  O   -0.527688
     5  C    0.253775
     6  C    0.260459
     7  O   -0.521693
     8  C    0.264352
     9  C    0.253017
    10  O   -0.510862
    11  C    0.240041
    12  C    0.149383
    13  N   -0.127779
 APT charges:
               1
     1  N   -1.304654
     2  C   -0.286122
     3  C   -0.642013
     4  O   -0.416173
     5  C   -0.563469
     6  C   -0.387951
     7  O   -0.428961
     8  C   -0.704383
     9  C   -0.599615
    10  O   -0.412007
    11  C   -0.475178
    12  C   -0.583479
    13  N   -1.051036
    14  H    0.651983
    15  H    0.620482
    16  H    0.234055
    17  H    0.206412
    18  H    0.392696
    19  H    0.369661
    20  H    0.409675
    21  H    0.404676
    22  H    0.180108
    23  H    0.341329
    24  H    0.368785
    25  H    0.527947
    26  H    0.573981
    27  H    0.204977
    28  H    0.291010
    29  H    0.373407
    30  H    0.318271
    31  H    0.332805
    32  H    0.501092
    33  H    0.551689
 Sum of APT charges =   0.00000
 APT charges with hydrogens summed into heavy atoms:
               1
     1  N   -0.032189
     2  C    0.154344
     3  C    0.120343
     4  O   -0.416173
     5  C    0.250882
     6  C    0.133486
     7  O   -0.428961
     8  C    0.192348
     9  C    0.179344
    10  O   -0.412007
    11  C    0.189239
    12  C    0.067598
    13  N    0.001745
 Electronic spatial extent (au):  <R**2>=           5942.4909
 Charge=             -0.0000 electrons
 Dipole moment (field-independent basis, Debye):
    X=             -1.2686    Y=              2.9854    Z=              3.3026  Tot=              4.6292
 Quadrupole moment (field-independent basis, Debye-Ang):
   XX=            -84.0732   YY=            -82.6463   ZZ=            -75.7335
   XY=             -2.1435   XZ=              6.0078   YZ=             -2.5716
 Traceless Quadrupole moment (field-independent basis, Debye-Ang):
   XX=             -3.2555   YY=             -1.8286   ZZ=              5.0841
   XY=             -2.1435   XZ=              6.0078   YZ=             -2.5716
 Octapole moment (field-independent basis, Debye-Ang**2):
  XXX=             59.4742  YYY=              1.3857  ZZZ=              2.7960  XYY=             -6.0061
  XXY=            106.5913  XXZ=            107.2020  XZZ=            -15.2937  YZZ=              0.8726
  YYZ=              4.0577  XYZ=             -5.1274
 Hexadecapole moment (field-independent basis, Debye-Ang**3):
 XXXX=          -7874.1697 YYYY=           -433.5466 ZZZZ=           -337.1050 XXXY=             20.2026
 XXXZ=            122.4056 YYYX=              0.9947 YYYZ=            -10.2297 ZZZX=             -5.2810
 ZZZY=            -11.9143 XXYY=          -1270.6584 XXZZ=          -1147.8592 YYZZ=           -127.2848
 XXYZ=           -149.7642 YYXZ=              9.6861 ZZXY=             14.6285
 N-N= 8.260601207680D+02 E-N=-3.173267131093D+03  KE= 6.460740622107D+02
  Exact polarizability:   0.000   0.000   0.000   0.000   0.000   0.000
 Approx polarizability: 155.527  -2.430 141.426  -2.837  -5.507 145.010
 D2PCM: PCM CHGder 2nd derivatives, FixD1E=F FixD2E=F DoIter=F DoCFld=F I1PDM=0
 Calling FoFJK, ICntrl=    100147 FMM=F ISym2X=0 I1Cent= 0 IOpClX= 0 NMat=1 NMatS=1 NMatT=0.
 ***** Axes restored to original set *****
 -------------------------------------------------------------------
 Center     Atomic                   Forces (Hartrees/Bohr)
 Number     Number              X              Y              Z
 -------------------------------------------------------------------
      1        7          -0.002093724    0.003481786   -0.000663260
      2        6           0.001218528   -0.003271302    0.000603100
      3        6           0.008825255    0.010105021   -0.001028563
      4        8           0.002403966   -0.002660681   -0.001973871
      5        6           0.002034057    0.013423187   -0.001520914
      6        6          -0.009289849    0.000846448   -0.008900638
      7        8           0.000864352    0.000720172    0.000776294
      8        6          -0.010414267    0.006347976   -0.003472198
      9        6           0.003731079   -0.009430124    0.005889011
     10        8          -0.002754669    0.002265248   -0.000317155
     11        6          -0.003806569    0.007836218    0.004018145
     12        6           0.001002060   -0.004934413   -0.001385408
     13        7           0.005262179    0.002803316    0.001695997
     14        1           0.000046786   -0.000518193   -0.001214320
     15        1           0.000038312   -0.000347382    0.001543282
     16        1          -0.000281062   -0.001321259    0.001264737
     17        1          -0.000422740   -0.001556331   -0.001020994
     18        1          -0.003190326   -0.003026853    0.002045229
     19        1          -0.003131123   -0.003260623   -0.001199185
     20        1           0.001235290   -0.004106336   -0.000267429
     21        1           0.001542178   -0.004885760    0.001702250
     22        1           0.001389669   -0.002412228    0.004845502
     23        1           0.001408432   -0.000925711    0.004172870
     24        1           0.005707698   -0.000106326    0.002059386
     25        1          -0.001758015   -0.000887110   -0.000755601
     26        1           0.000423080    0.000239617   -0.002690996
     27        1          -0.000456911   -0.000881830   -0.000909388
     28        1           0.002079029   -0.000485709   -0.002048078
     29        1          -0.000529192   -0.000292800    0.000319776
     30        1           0.000359322   -0.000421508   -0.001665769
     31        1          -0.000452714   -0.002000219    0.001171301
     32        1          -0.000706715    0.000055303    0.000871920
     33        1          -0.000283398   -0.000391596   -0.001945032
 -------------------------------------------------------------------
 Cartesian Forces:  Max     0.013423187 RMS     0.003596400
 FormGI is forming the generalized inverse of G from B-inverse, IUseBI=4.

 GradGradGradGradGradGradGradGradGradGradGradGradGradGradGradGradGradGrad
 Berny optimization.
 Internal  Forces:  Max     0.008612836 RMS     0.002241110
 Search for a local minimum.
 Step number   1 out of a maximum of  165
 All quantities printed in internal units (Hartrees-Bohrs-Radians)
 Mixed Optimization -- RFO/linear search
 Second derivative matrix not updated -- analytic derivatives used.
 ITU=  0
     Eigenvalues ---    0.00236   0.00261   0.00277   0.00289   0.00331
     Eigenvalues ---    0.00349   0.00480   0.00500   0.00531   0.00546
     Eigenvalues ---    0.00690   0.00812   0.03180   0.03247   0.04433
     Eigenvalues ---    0.04449   0.04470   0.04488   0.04614   0.04643
     Eigenvalues ---    0.04692   0.04898   0.04953   0.04972   0.05713
     Eigenvalues ---    0.05757   0.06272   0.06337   0.06415   0.06660
     Eigenvalues ---    0.08136   0.08225   0.09591   0.09673   0.09791
     Eigenvalues ---    0.10017   0.10193   0.10300   0.11379   0.11475
     Eigenvalues ---    0.12226   0.12631   0.13034   0.13183   0.14317
     Eigenvalues ---    0.14395   0.14594   0.14618   0.17053   0.17284
     Eigenvalues ---    0.18694   0.18780   0.20834   0.21481   0.22603
     Eigenvalues ---    0.22743   0.23972   0.24319   0.24875   0.25128
     Eigenvalues ---    0.25823   0.26544   0.27297   0.27799   0.28591
     Eigenvalues ---    0.30852   0.31134   0.31835   0.32501   0.33000
     Eigenvalues ---    0.33030   0.33111   0.33124   0.33202   0.33318
     Eigenvalues ---    0.33465   0.33564   0.33648   0.33679   0.33855
     Eigenvalues ---    0.34398   0.35278   0.35603   0.36112   0.36656
     Eigenvalues ---    0.37338   0.39653   0.40384   0.44010   0.44057
     Eigenvalues ---    0.44169   0.44344   0.44396
 RFO step:  Lambda=-5.15070028D-03 EMin= 2.36140205D-03
 Linear search not attempted -- first point.
 Iteration  1 RMS(Cart)=  0.12360092 RMS(Int)=  0.00285660
 Iteration  2 RMS(Cart)=  0.00709421 RMS(Int)=  0.00010772
 Iteration  3 RMS(Cart)=  0.00001874 RMS(Int)=  0.00010754
 Iteration  4 RMS(Cart)=  0.00000000 RMS(Int)=  0.00010754
 Variable       Old X    -DE/DX   Delta X   Delta X   Delta X     New X
                                 (Linear)    (Quad)   (Total)
    R1        2.76578   0.00152   0.00000   0.00379   0.00379   2.76957
    R2        1.92531  -0.00077   0.00000  -0.00017  -0.00017   1.92515
    R3        1.92579  -0.00098   0.00000  -0.00068  -0.00068   1.92510
    R4        2.89722  -0.00217   0.00000  -0.00728  -0.00728   2.88993
    R5        2.07121   0.00008   0.00000   0.00022   0.00022   2.07142
    R6        2.07121  -0.00001   0.00000   0.00013   0.00013   2.07134
    R7        2.69550  -0.00103   0.00000  -0.01272  -0.01272   2.68278
    R8        2.07195   0.00380   0.00000   0.01301   0.01301   2.08496
    R9        2.07192   0.00359   0.00000   0.01246   0.01246   2.08438
   R10        2.70621  -0.00386   0.00000  -0.02306  -0.02306   2.68315
   R11        2.88996  -0.00861   0.00000  -0.02912  -0.02912   2.86084
   R12        2.07097   0.00250   0.00000   0.00995   0.00995   2.08091
   R13        2.06997   0.00343   0.00000   0.01222   0.01222   2.08219
   R14        2.70626  -0.00173   0.00000  -0.01415  -0.01415   2.69212
   R15        2.06737   0.00106   0.00000   0.00469   0.00469   2.07206
   R16        2.06979   0.00267   0.00000   0.01165   0.01165   2.08143
   R17        2.70441  -0.00273   0.00000  -0.01891  -0.01891   2.68550
   R18        2.89882  -0.00161   0.00000  -0.00806  -0.00806   2.89076
   R19        2.06926   0.00337   0.00000   0.01284   0.01284   2.08210
   R20        2.06915   0.00057   0.00000   0.00115   0.00115   2.07030
   R21        2.70981  -0.00021   0.00000  -0.01128  -0.01128   2.69852
   R22        2.06910   0.00186   0.00000   0.00738   0.00738   2.07647
   R23        2.06901  -0.00039   0.00000   0.00094   0.00094   2.06995
   R24        2.69849   0.00191   0.00000  -0.00009  -0.00009   2.69839
   R25        2.90265   0.00003   0.00000  -0.00126  -0.00126   2.90139
   R26        2.07129   0.00220   0.00000   0.00737   0.00737   2.07866
   R27        2.07072   0.00040   0.00000   0.00123   0.00123   2.07194
   R28        2.76310   0.00317   0.00000   0.00816   0.00816   2.77126
   R29        2.06903   0.00116   0.00000   0.00302   0.00302   2.07205
   R30        2.07113  -0.00031   0.00000  -0.00008  -0.00008   2.07105
   R31        1.92535  -0.00081   0.00000   0.00011   0.00011   1.92546
   R32        1.92697  -0.00151   0.00000  -0.00155  -0.00155   1.92542
    A1        1.91337   0.00007   0.00000  -0.00394  -0.00397   1.90940
    A2        1.91119   0.00041   0.00000  -0.00200  -0.00203   1.90917
    A3        1.85831  -0.00092   0.00000  -0.01559  -0.01565   1.84266
    A4        1.97492   0.00581   0.00000   0.02663   0.02672   2.00164
    A5        1.90607  -0.00180   0.00000  -0.00810  -0.00803   1.89803
    A6        1.90665  -0.00187   0.00000  -0.00905  -0.00897   1.89768
    A7        1.91169  -0.00212   0.00000  -0.01254  -0.01253   1.89916
    A8        1.91249  -0.00220   0.00000  -0.01326  -0.01323   1.89926
    A9        1.84767   0.00192   0.00000   0.01564   0.01556   1.86322
   A10        1.90204  -0.00140   0.00000  -0.00558  -0.00557   1.89647
   A11        1.92116  -0.00050   0.00000  -0.00189  -0.00192   1.91924
   A12        1.91991  -0.00023   0.00000   0.00012   0.00008   1.91999
   A13        1.90981   0.00184   0.00000   0.01816   0.01816   1.92796
   A14        1.90982   0.00174   0.00000   0.01800   0.01799   1.92782
   A15        1.90103  -0.00141   0.00000  -0.02843  -0.02854   1.87249
   A16        1.95119   0.00334   0.00000   0.01990   0.01990   1.97109
   A17        1.91410  -0.00382   0.00000  -0.00539  -0.00535   1.90875
   A18        1.90843   0.00256   0.00000   0.01972   0.01971   1.92814
   A19        1.89348   0.00389   0.00000   0.03390   0.03388   1.92736
   A20        1.92169  -0.00033   0.00000  -0.00880  -0.00891   1.91278
   A21        1.91155  -0.00074   0.00000  -0.00727  -0.00742   1.90413
   A22        1.91434  -0.00150   0.00000  -0.03155  -0.03197   1.88237
   A23        1.90503  -0.00473   0.00000  -0.00670  -0.00673   1.89830
   A24        1.91059   0.00023   0.00000   0.00630   0.00618   1.91677
   A25        1.90877   0.00032   0.00000  -0.00441  -0.00444   1.90433
   A26        1.91069   0.00378   0.00000   0.02961   0.02955   1.94024
   A27        1.90542   0.00294   0.00000   0.01865   0.01866   1.92408
   A28        1.92320  -0.00258   0.00000  -0.04319  -0.04333   1.87987
   A29        1.98570   0.00433   0.00000   0.01794   0.01794   2.00364
   A30        1.98343   0.00383   0.00000   0.01415   0.01421   1.99764
   A31        1.90065   0.00222   0.00000   0.02480   0.02497   1.92562
   A32        1.84307  -0.00260   0.00000  -0.00230  -0.00233   1.84074
   A33        1.95793  -0.00558   0.00000  -0.03747  -0.03756   1.92037
   A34        1.89238   0.00106   0.00000   0.00110   0.00097   1.89334
   A35        1.88016   0.00113   0.00000   0.00097   0.00071   1.88087
   A36        1.94715   0.00855   0.00000   0.03754   0.03756   1.98471
   A37        1.92608  -0.00322   0.00000  -0.02071  -0.02121   1.90487
   A38        1.91633  -0.00342   0.00000  -0.02113  -0.02126   1.89507
   A39        1.91951  -0.00077   0.00000   0.01620   0.01624   1.93575
   A40        1.86712  -0.00260   0.00000  -0.00919  -0.00890   1.85822
   A41        1.88578   0.00126   0.00000  -0.00366  -0.00411   1.88167
   A42        1.99163   0.00285   0.00000   0.01270   0.01270   2.00433
   A43        1.94058   0.00654   0.00000   0.01874   0.01874   1.95932
   A44        1.93776  -0.00110   0.00000   0.00172   0.00183   1.93958
   A45        1.86120  -0.00228   0.00000  -0.00310  -0.00321   1.85799
   A46        1.94340  -0.00361   0.00000  -0.02158  -0.02156   1.92184
   A47        1.90533  -0.00076   0.00000   0.00452   0.00444   1.90978
   A48        1.87214   0.00108   0.00000  -0.00007  -0.00009   1.87205
   A49        1.97321   0.00697   0.00000   0.02539   0.02547   1.99868
   A50        1.92285  -0.00166   0.00000  -0.00759  -0.00760   1.91525
   A51        1.91096  -0.00337   0.00000  -0.01690  -0.01686   1.89410
   A52        1.89879  -0.00253   0.00000  -0.00820  -0.00819   1.89060
   A53        1.90717  -0.00178   0.00000  -0.00828  -0.00817   1.89900
   A54        1.84649   0.00203   0.00000   0.01493   0.01487   1.86136
   A55        1.92145  -0.00081   0.00000  -0.01134  -0.01141   1.91003
   A56        1.91293   0.00008   0.00000  -0.00532  -0.00540   1.90753
   A57        1.85623  -0.00045   0.00000  -0.01408  -0.01425   1.84198
    D1        1.00561  -0.00033   0.00000  -0.00642  -0.00640   0.99921
    D2       -1.12859  -0.00026   0.00000  -0.00261  -0.00259  -1.13117
    D3        3.14128  -0.00054   0.00000  -0.01182  -0.01181   3.12947
    D4       -1.02714   0.00050   0.00000   0.01580   0.01579  -1.01135
    D5        3.12184   0.00056   0.00000   0.01962   0.01960   3.14144
    D6        1.10852   0.00029   0.00000   0.01040   0.01038   1.11890
    D7        3.14100  -0.00004   0.00000  -0.00022  -0.00022   3.14078
    D8       -1.04768   0.00105   0.00000   0.01743   0.01741  -1.03027
    D9        1.04722  -0.00116   0.00000  -0.01889  -0.01886   1.02836
   D10       -1.01112   0.00010   0.00000  -0.00146  -0.00150  -1.01263
   D11        1.08339   0.00118   0.00000   0.01619   0.01612   1.09951
   D12       -3.10490  -0.00103   0.00000  -0.02013  -0.02015  -3.12505
   D13        1.00859  -0.00003   0.00000   0.00275   0.00279   1.01139
   D14        3.10311   0.00105   0.00000   0.02040   0.02042   3.12352
   D15       -1.08518  -0.00116   0.00000  -0.01592  -0.01585  -1.10103
   D16        3.13082  -0.00009   0.00000   0.00007   0.00006   3.13088
   D17        1.02931   0.00026   0.00000  -0.00521  -0.00519   1.02412
   D18       -1.05237  -0.00018   0.00000   0.00769   0.00766  -1.04470
   D19        3.07289   0.00020   0.00000   0.02696   0.02691   3.09981
   D20        0.96414   0.00138   0.00000   0.02880   0.02892   0.99306
   D21       -1.12310  -0.00060   0.00000   0.03534   0.03527  -1.08784
   D22       -1.30362   0.00045   0.00000   0.03841   0.03839  -1.26522
   D23        0.78741   0.00234   0.00000   0.07427   0.07424   0.86165
   D24        2.89605  -0.00049   0.00000   0.02237   0.02239   2.91845
   D25        0.79709   0.00099   0.00000   0.05385   0.05375   0.85085
   D26        2.88812   0.00288   0.00000   0.08971   0.08960   2.97772
   D27       -1.28642   0.00005   0.00000   0.03781   0.03775  -1.24867
   D28        2.90349  -0.00155   0.00000   0.00466   0.00475   2.90823
   D29       -1.28867   0.00034   0.00000   0.04052   0.04059  -1.24808
   D30        0.81997  -0.00249   0.00000  -0.01138  -0.01125   0.80872
   D31       -2.97751  -0.00014   0.00000  -0.02021  -0.02015  -2.99766
   D32        1.21471   0.00016   0.00000  -0.04169  -0.04172   1.17299
   D33       -0.89192  -0.00081   0.00000  -0.01846  -0.01849  -0.91041
   D34       -1.14906  -0.00005   0.00000  -0.10160  -0.10168  -1.25075
   D35        1.04721  -0.00282   0.00000  -0.12102  -0.12094   0.92626
   D36        3.06216  -0.00180   0.00000  -0.10936  -0.10935   2.95281
   D37        1.46296  -0.00076   0.00000  -0.07556  -0.07564   1.38733
   D38       -2.68077   0.00190   0.00000  -0.04345  -0.04372  -2.72450
   D39       -0.60389  -0.00066   0.00000  -0.07392  -0.07377  -0.67766
   D40       -0.70260  -0.00229   0.00000  -0.08997  -0.08985  -0.79245
   D41        1.43685   0.00038   0.00000  -0.05786  -0.05794   1.37891
   D42       -2.76945  -0.00219   0.00000  -0.08833  -0.08799  -2.85744
   D43       -2.77676  -0.00100   0.00000  -0.06922  -0.06930  -2.84606
   D44       -0.63731   0.00166   0.00000  -0.03711  -0.03738  -0.67470
   D45        1.43957  -0.00090   0.00000  -0.06759  -0.06743   1.37214
   D46        1.49949   0.00103   0.00000   0.01029   0.01056   1.51005
   D47       -0.64373  -0.00020   0.00000  -0.00049  -0.00086  -0.64458
   D48       -2.68764   0.00018   0.00000   0.00047   0.00056  -2.68708
[...]
    21    C    2  px     Ryd( 3p)     0.00492
    22    C    2  py     Val( 2p)     1.17243
    23    C    2  py     Ryd( 3p)     0.00271
    24    C    2  pz     Val( 2p)     1.16956
    25    C    2  pz     Ryd( 3p)     0.00214
    26    C    2  dxy    Ryd( 3d)     0.00118
    27    C    2  dxz    Ryd( 3d)     0.00095
    28    C    2  dyz    Ryd( 3d)     0.00052
    29    C    2  dx2y2  Ryd( 3d)     0.00112
    30    C    2  dz2    Ryd( 3d)     0.00106

    31    C    3  S      Cor( 1S)     1.99928
    32    C    3  S      Val( 2S)     1.03679
    33    C    3  S      Ryd( 3S)     0.00285
    34    C    3  S      Ryd( 4S)     0.00005
    35    C    3  px     Val( 2p)     0.73720
    36    C    3  px     Ryd( 3p)     0.00310
    37    C    3  py     Val( 2p)     1.17145
    38    C    3  py     Ryd( 3p)     0.00159
    39    C    3  pz     Val( 2p)     1.16368
    40    C    3  pz     Ryd( 3p)     0.00192
    41    C    3  dxy    Ryd( 3d)     0.00149
    42    C    3  dxz    Ryd( 3d)     0.00130
    43    C    3  dyz    Ryd( 3d)     0.00048
    44    C    3  dx2y2  Ryd( 3d)     0.00167
    45    C    3  dz2    Ryd( 3d)     0.00133

    46    O    4  S      Cor( 1S)     1.99978
    47    O    4  S      Val( 2S)     1.62035
    48    O    4  S      Ryd( 3S)     0.00208
    49    O    4  S      Ryd( 4S)     0.00007
    50    O    4  px     Val( 2p)     1.43662
    51    O    4  px     Ryd( 3p)     0.00141
    52    O    4  py     Val( 2p)     1.76474
    53    O    4  py     Ryd( 3p)     0.00243
    54    O    4  pz     Val( 2p)     1.76394
    55    O    4  pz     Ryd( 3p)     0.00231
    56    O    4  dxy    Ryd( 3d)     0.00081
    57    O    4  dxz    Ryd( 3d)     0.00097
    58    O    4  dyz    Ryd( 3d)     0.00115
    59    O    4  dx2y2  Ryd( 3d)     0.00087
    60    O    4  dz2    Ryd( 3d)     0.00118

    61    C    5  S      Cor( 1S)     1.99927
    62    C    5  S      Val( 2S)     1.02954
    63    C    5  S      Ryd( 3S)     0.00298
    64    C    5  S      Ryd( 4S)     0.00005
    65    C    5  px     Val( 2p)     0.99401
    66    C    5  px     Ryd( 3p)     0.00137
    67    C    5  py     Val( 2p)     1.04753
    68    C    5  py     Ryd( 3p)     0.00258
    69    C    5  pz     Val( 2p)     1.04165
    70    C    5  pz     Ryd( 3p)     0.00341
    71    C    5  dxy    Ryd( 3d)     0.00112
    72    C    5  dxz    Ryd( 3d)     0.00090
    73    C    5  dyz    Ryd( 3d)     0.00113
    74    C    5  dx2y2  Ryd( 3d)     0.00143
    75    C    5  dz2    Ryd( 3d)     0.00175

    76    C    6  S      Cor( 1S)     1.99924
    77    C    6  S      Val( 2S)     1.03218
    78    C    6  S      Ryd( 3S)     0.00281
    79    C    6  S      Ryd( 4S)     0.00005
    80    C    6  px     Val( 2p)     1.08383
    81    C    6  px     Ryd( 3p)     0.00257
    82    C    6  py     Val( 2p)     1.15407
    83    C    6  py     Ryd( 3p)     0.00249
    84    C    6  pz     Val( 2p)     0.84703
    85    C    6  pz     Ryd( 3p)     0.00338
    86    C    6  dxy    Ryd( 3d)     0.00069
    87    C    6  dxz    Ryd( 3d)     0.00106
    88    C    6  dyz    Ryd( 3d)     0.00160
    89    C    6  dx2y2  Ryd( 3d)     0.00102
    90    C    6  dz2    Ryd( 3d)     0.00187

    91    O    7  S      Cor( 1S)     1.99980
    92    O    7  S      Val( 2S)     1.62100
    93    O    7  S      Ryd( 3S)     0.00168
    94    O    7  S      Ryd( 4S)     0.00004
    95    O    7  px     Val( 2p)     1.53994
    96    O    7  px     Ryd( 3p)     0.00176
    97    O    7  py     Val( 2p)     1.81721
    98    O    7  py     Ryd( 3p)     0.00279
    99    O    7  pz     Val( 2p)     1.59193
   100    O    7  pz     Ryd( 3p)     0.00183
   101    O    7  dxy    Ryd( 3d)     0.00093
   102    O    7  dxz    Ryd( 3d)     0.00123
   103    O    7  dyz    Ryd( 3d)     0.00086
   104    O    7  dx2y2  Ryd( 3d)     0.00099
   105    O    7  dz2    Ryd( 3d)     0.00096

   106    C    8  S      Cor( 1S)     1.99925
   107    C    8  S      Val( 2S)     1.03404
   108    C    8  S      Ryd( 3S)     0.00187
   109    C    8  S      Ryd( 4S)     0.00006
   110    C    8  px     Val( 2p)     0.77467
   111    C    8  px     Ryd( 3p)     0.00474
   112    C    8  py     Val( 2p)     1.10468
   113    C    8  py     Ryd( 3p)     0.00184
   114    C    8  pz     Val( 2p)     1.20688
   115    C    8  pz     Ryd( 3p)     0.00404
   116    C    8  dxy    Ryd( 3d)     0.00153
   117    C    8  dxz    Ryd( 3d)     0.00140
   118    C    8  dyz    Ryd( 3d)     0.00101
   119    C    8  dx2y2  Ryd( 3d)     0.00156
   120    C    8  dz2    Ryd( 3d)     0.00078

   121    C    9  S      Cor( 1S)     1.99922
   122    C    9  S      Val( 2S)     1.04565
   123    C    9  S      Ryd( 3S)     0.00191
   124    C    9  S      Ryd( 4S)     0.00006
   125    C    9  px     Val( 2p)     1.20431
   126    C    9  px     Ryd( 3p)     0.00394
   127    C    9  py     Val( 2p)     0.92180
   128    C    9  py     Ryd( 3p)     0.00477
   129    C    9  pz     Val( 2p)     0.96739
   130    C    9  pz     Ryd( 3p)     0.00161
   131    C    9  dxy    Ryd( 3d)     0.00100
   132    C    9  dxz    Ryd( 3d)     0.00112
   133    C    9  dyz    Ryd( 3d)     0.00186
   134    C    9  dx2y2  Ryd( 3d)     0.00106
   135    C    9  dz2    Ryd( 3d)     0.00109

   136    O   10  S      Cor( 1S)     1.99981
   137    O   10  S      Val( 2S)     1.63332
   138    O   10  S      Ryd( 3S)     0.00227
   139    O   10  S      Ryd( 4S)     0.00005
   140    O   10  px     Val( 2p)     1.57099
   141    O   10  px     Ryd( 3p)     0.00173
   142    O   10  py     Val( 2p)     1.70548
   143    O   10  py     Ryd( 3p)     0.00220
   144    O   10  pz     Val( 2p)     1.57193
   145    O   10  pz     Ryd( 3p)     0.00167
   146    O   10  dxy    Ryd( 3d)     0.00122
   147    O   10  dxz    Ryd( 3d)     0.00083
   148    O   10  dyz    Ryd( 3d)     0.00100
   149    O   10  dx2y2  Ryd( 3d)     0.00133
   150    O   10  dz2    Ryd( 3d)     0.00061

   151    C   11  S      Cor( 1S)     1.99915
   152    C   11  S      Val( 2S)     1.05556
   153    C   11  S      Ryd( 3S)     0.00224
   154    C   11  S      Ryd( 4S)     0.00006
   155    C   11  px     Val( 2p)     0.81897
   156    C   11  px     Ryd( 3p)     0.01272
   157    C   11  py     Val( 2p)     1.20733
   158    C   11  py     Ryd( 3p)     0.00491
   159    C   11  pz     Val( 2p)     1.04626
   160    C   11  pz     Ryd( 3p)     0.00187
   161    C   11  dxy    Ryd( 3d)     0.00099
   162    C   11  dxz    Ryd( 3d)     0.00164
   163    C   11  dyz    Ryd( 3d)     0.00080
   164    C   11  dx2y2  Ryd( 3d)     0.00148
   165    C   11  dz2    Ryd( 3d)     0.00123

   166    C   12  S      Cor( 1S)     1.99938
   167    C   12  S      Val( 2S)     1.06105
   168    C   12  S      Ryd( 3S)     0.00193
   169    C   12  S      Ryd( 4S)     0.00004
   170    C   12  px     Val( 2p)     0.92021
   171    C   12  px     Ryd( 3p)     0.00989
   172    C   12  py     Val( 2p)     1.22790
   173    C   12  py     Ryd( 3p)     0.00249
   174    C   12  pz     Val( 2p)     1.15418
   175    C   12  pz     Ryd( 3p)     0.00737
   176    C   12  dxy    Ryd( 3d)     0.00064
   177    C   12  dxz    Ryd( 3d)     0.00115
   178    C   12  dyz    Ryd( 3d)     0.00064
   179    C   12  dx2y2  Ryd( 3d)     0.00125
   180    C   12  dz2    Ryd( 3d)     0.00089

   181    N   13  S      Cor( 1S)     1.99945
   182    N   13  S      Val( 2S)     1.51297
   183    N   13  S      Ryd( 3S)     0.01909
   184    N   13  S      Ryd( 4S)     0.00002
   185    N   13  px     Val( 2p)     1.22237
   186    N   13  px     Ryd( 3p)     0.00054
   187    N   13  py     Val( 2p)     1.40096
   188    N   13  py     Ryd( 3p)     0.00253
   189    N   13  pz     Val( 2p)     1.37593
   190    N   13  pz     Ryd( 3p)     0.00534
   191    N   13  dxy    Ryd( 3d)     0.00016
   192    N   13  dxz    Ryd( 3d)     0.00035
   193    N   13  dyz    Ryd( 3d)     0.00014
   194    N   13  dx2y2  Ryd( 3d)     0.00085
   195    N   13  dz2    Ryd( 3d)     0.00077

   196    H   14  S      Val( 1S)     0.60987
   197    H   14  S      Ryd( 2S)     0.00155
   198    H   14  px     Ryd( 2p)     0.00031
   199    H   14  py     Ryd( 2p)     0.00044
   200    H   14  pz     Ryd( 2p)     0.00067

   201    H   15  S      Val( 1S)     0.60982
   202    H   15  S      Ryd( 2S)     0.00155
   203    H   15  px     Ryd( 2p)     0.00035
   204    H   15  py     Ryd( 2p)     0.00063
   205    H   15  pz     Ryd( 2p)     0.00044

   206    H   16  S      Val( 1S)     0.76790
   207    H   16  S      Ryd( 2S)     0.00202
   208    H   16  px     Ryd( 2p)     0.00012
   209    H   16  py     Ryd( 2p)     0.00034
   210    H   16  pz     Ryd( 2p)     0.00009

   211    H   17  S      Val( 1S)     0.76784
   212    H   17  S      Ryd( 2S)     0.00202
   213    H   17  px     Ryd( 2p)     0.00007
   214    H   17  py     Ryd( 2p)     0.00011
   215    H   17  pz     Ryd( 2p)     0.00036

   216    H   18  S      Val( 1S)     0.79725
   217    H   18  S      Ryd( 2S)     0.00263
   218    H   18  px     Ryd( 2p)     0.00007
   219    H   18  py     Ryd( 2p)     0.00013
   220    H   18  pz     Ryd( 2p)     0.00039

   221    H   19  S      Val( 1S)     0.79660
   222    H   19  S      Ryd( 2S)     0.00261
   223    H   19  px     Ryd( 2p)     0.00010
   224    H   19  py     Ryd( 2p)     0.00038
   225    H   19  pz     Ryd( 2p)     0.00011

   226    H   20  S      Val( 1S)     0.78529
   227    H   20  S      Ryd( 2S)     0.00289
   228    H   20  px     Ryd( 2p)     0.00015
   229    H   20  py     Ryd( 2p)     0.00036
   230    H   20  pz     Ryd( 2p)     0.00008

   231    H   21  S      Val( 1S)     0.78168
   232    H   21  S      Ryd( 2S)     0.00204
   233    H   21  px     Ryd( 2p)     0.00011
   234    H   21  py     Ryd( 2p)     0.00011
   235    H   21  pz     Ryd( 2p)     0.00037

   236    H   22  S      Val( 1S)     0.77287
   237    H   22  S      Ryd( 2S)     0.00286
   238    H   22  px     Ryd( 2p)     0.00018
   239    H   22  py     Ryd( 2p)     0.00037
   240    H   22  pz     Ryd( 2p)     0.00007

   241    H   23  S      Val( 1S)     0.77965
   242    H   23  S      Ryd( 2S)     0.00189
   243    H   23  px     Ryd( 2p)     0.00019
   244    H   23  py     Ryd( 2p)     0.00017
   245    H   23  pz     Ryd( 2p)     0.00023

   246    H   24  S      Val( 1S)     0.78390
   247    H   24  S      Ryd( 2S)     0.00281
   248    H   24  px     Ryd( 2p)     0.00013
   249    H   24  py     Ryd( 2p)     0.00015
   250    H   24  pz     Ryd( 2p)     0.00029

   251    H   25  S      Val( 1S)     0.74961
   252    H   25  S      Ryd( 2S)     0.00113
   253    H   25  px     Ryd( 2p)     0.00005
   254    H   25  py     Ryd( 2p)     0.00028
   255    H   25  pz     Ryd( 2p)     0.00024

   256    H   26  S      Val( 1S)     0.76494
   257    H   26  S      Ryd( 2S)     0.00585
   258    H   26  px     Ryd( 2p)     0.00032
   259    H   26  py     Ryd( 2p)     0.00012
   260    H   26  pz     Ryd( 2p)     0.00015

   261    H   27  S      Val( 1S)     0.75478
   262    H   27  S      Ryd( 2S)     0.00285
   263    H   27  px     Ryd( 2p)     0.00019
   264    H   27  py     Ryd( 2p)     0.00013
   265    H   27  pz     Ryd( 2p)     0.00023

   266    H   28  S      Val( 1S)     0.78433
   267    H   28  S      Ryd( 2S)     0.02566
   268    H   28  px     Ryd( 2p)     0.00013
   269    H   28  py     Ryd( 2p)     0.00037
   270    H   28  pz     Ryd( 2p)     0.00009

   271    H   29  S      Val( 1S)     0.75991
   272    H   29  S      Ryd( 2S)     0.02160
   273    H   29  px     Ryd( 2p)     0.00011
   274    H   29  py     Ryd( 2p)     0.00015
   275    H   29  pz     Ryd( 2p)     0.00033

   276    H   30  S      Val( 1S)     0.75755
   277    H   30  S      Ryd( 2S)     0.02013
   278    H   30  px     Ryd( 2p)     0.00009
   279    H   30  py     Ryd( 2p)     0.00011
   280    H   30  pz     Ryd( 2p)     0.00034

   281    H   31  S      Val( 1S)     0.74753
   282    H   31  S      Ryd( 2S)     0.01690
   283    H   31  px     Ryd( 2p)     0.00008
   284    H   31  py     Ryd( 2p)     0.00035
   285    H   31  pz     Ryd( 2p)     0.00009

   286    H   32  S      Val( 1S)     0.74544
   287    H   32  S      Ryd( 2S)     0.08290
   288    H   32  px     Ryd( 2p)     0.00022
   289    H   32  py     Ryd( 2p)     0.00073
   290    H   32  pz     Ryd( 2p)     0.00024

   291    H   33  S      Val( 1S)     0.73579
   292    H   33  S      Ryd( 2S)     0.08030
   293    H   33  px     Ryd( 2p)     0.00026
   294    H   33  py     Ryd( 2p)     0.00028
   295    H   33  pz     Ryd( 2p)     0.00067


 Summary of Natural Population Analysis:                  
                                                          
                                       Natural Population 
                Natural  -----------------------------------------------
    Atom  No    Charge         Core      Valence    Rydberg      Total
 -----------------------------------------------------------------------
      N    1   -0.92270      1.99971     5.90773    0.01527     7.92270
      C    2   -0.28444      1.99936     4.26886    0.01622     6.28444
      C    3   -0.12416      1.99928     4.10911    0.01576     6.12416
      O    4   -0.59872      1.99978     6.58566    0.01328     8.59872
      C    5   -0.12871      1.99927     4.11274    0.01671     6.12871
      C    6   -0.13388      1.99924     4.11710    0.01753     6.13388
      O    7   -0.58296      1.99980     6.57009    0.01308     8.58296
      C    8   -0.13833      1.99925     4.12026    0.01882     6.13833
      C    9   -0.15678      1.99922     4.13914    0.01841     6.15678
      O   10   -0.49443      1.99981     6.48172    0.01290     8.49443
      C   11   -0.15521      1.99915     4.12813    0.02793     6.15521
      C   12   -0.38901      1.99938     4.36335    0.02628     6.38901
      N   13   -0.54144      1.99945     5.51223    0.02977     7.54144
      H   14    0.38716      0.00000     0.60987    0.00297     0.61284
      H   15    0.38721      0.00000     0.60982    0.00297     0.61279
      H   16    0.22953      0.00000     0.76790    0.00257     0.77047
      H   17    0.22959      0.00000     0.76784    0.00257     0.77041
      H   18    0.19953      0.00000     0.79725    0.00322     0.80047
      H   19    0.20020      0.00000     0.79660    0.00320     0.79980
      H   20    0.21123      0.00000     0.78529    0.00348     0.78877
      H   21    0.21568      0.00000     0.78168    0.00264     0.78432
      H   22    0.22364      0.00000     0.77287    0.00349     0.77636
      H   23    0.21786      0.00000     0.77965    0.00249     0.78214
      H   24    0.21271      0.00000     0.78390    0.00339     0.78729
      H   25    0.24869      0.00000     0.74961    0.00170     0.75131
      H   26    0.22862      0.00000     0.76494    0.00644     0.77138
      H   27    0.24181      0.00000     0.75478    0.00341     0.75819
      H   28    0.18942      0.00000     0.78433    0.02625     0.81058
      H   29    0.21790      0.00000     0.75991    0.02218     0.78210
      H   30    0.22178      0.00000     0.75755    0.02067     0.77822
      H   31    0.23504      0.00000     0.74753    0.01743     0.76496
      H   32    0.17047      0.00000     0.74544    0.08409     0.82953
      H   33    0.18270      0.00000     0.73579    0.08151     0.81730
 =======================================================================
   * Total *   -0.00000     25.99269    79.46868    0.53863   106.00000

                                 Natural Population      
 --------------------------------------------------------
   Core                      25.99269 ( 99.9719% of  26)
   Valence                   79.46868 ( 99.3359% of  80)
   Natural Minimal Basis    105.46137 ( 99.4919% of 106)
   Natural Rydberg Basis      0.53863 (  0.5081% of 106)
 --------------------------------------------------------

    Atom  No          Natural Electron Configuration
 ----------------------------------------------------------------------------
      N    1      [core]2S( 1.44)2p( 4.47)3p( 0.01)
      C    2      [core]2S( 1.03)2p( 3.24)3p( 0.01)
      C    3      [core]2S( 1.04)2p( 3.07)3p( 0.01)3d( 0.01)
      O    4      [core]2S( 1.62)2p( 4.97)3p( 0.01)
      C    5      [core]2S( 1.03)2p( 3.08)3p( 0.01)3d( 0.01)
      C    6      [core]2S( 1.03)2p( 3.08)3p( 0.01)3d( 0.01)
      O    7      [core]2S( 1.62)2p( 4.95)3p( 0.01)
      C    8      [core]2S( 1.03)2p( 3.09)3p( 0.01)3d( 0.01)
      C    9      [core]2S( 1.05)2p( 3.09)3p( 0.01)3d( 0.01)
      O   10      [core]2S( 1.63)2p( 4.85)3p( 0.01)
      C   11      [core]2S( 1.06)2p( 3.07)3p( 0.02)3d( 0.01)
      C   12      [core]2S( 1.06)2p( 3.30)3p( 0.02)
      N   13      [core]2S( 1.51)2p( 4.00)3S( 0.02)3p( 0.01)
      H   14            1S( 0.61)
      H   15            1S( 0.61)
      H   16            1S( 0.77)
      H   17            1S( 0.77)
      H   18            1S( 0.80)
      H   19            1S( 0.80)
      H   20            1S( 0.79)
      H   21            1S( 0.78)
      H   22            1S( 0.77)
      H   23            1S( 0.78)
      H   24            1S( 0.78)
      H   25            1S( 0.75)
      H   26            1S( 0.76)2S( 0.01)
      H   27            1S( 0.75)
      H   28            1S( 0.78)2S( 0.03)
      H   29            1S( 0.76)2S( 0.02)
      H   30            1S( 0.76)2S( 0.02)
      H   31            1S( 0.75)2S( 0.02)
      H   32            1S( 0.75)2S( 0.08)
      H   33            1S( 0.74)2S( 0.08)


 NBO analysis skipped by request.
 1\1\GINC-DRG2-W001\SP\RB3LYP TD-FC\6-31G(d,p)\C8H20N2O3\QDUEZ\18-Jul-2
 024\0\\# TD(NStates=10, Root=1) B3LYP/6-31G** SCRF=(Solvent=water) vol
 ume pop=NPA density=current Geom=AllCheck Guess=Read\\NIQFAJBKEHPUAM-U
 HFFFAOYSA-N_conf_4\\0,1\N,0,-6.0767505907,0.8397228646,0.586204203\C,0
 ,-4.6223249729,0.8969559863,0.4133557449\C,0,-3.9322063603,-0.46579958
 97,0.3392423548\O,0,-2.5375569509,-0.2602936394,0.1730203118\C,0,-1.80
 29759114,-1.4727574885,0.1015243579\C,0,-0.3325776558,-1.1619562064,-0
 .0810424957\O,0,-0.1335720747,-0.6189931778,-1.3830516165\C,0,1.226696
 1248,-0.450259263,-1.7609308475\C,0,1.8699208269,0.8226532651,-1.21480
 01546\O,0,2.1014935115,0.7924456977,0.1935526451\C,0,3.3454389914,0.20
 95460008,0.5855777312\C,0,4.4701375695,1.2517696359,0.6598763786\N,0,5
 .7653716131,0.7242513173,1.1021211735\H,0,-6.2961131712,0.3167335774,1
 .4326126086\H,0,-6.4871002102,0.3050961294,-0.1778686135\H,0,-4.191684
 6129,1.4661834472,1.2451888084\H,0,-4.3988353532,1.4560274236,-0.50259
 10674\H,0,-4.131691086,-1.0400632902,1.2602953594\H,0,-4.3405272022,-1
 .0499547475,-0.5030405187\H,0,-2.1591088205,-2.0921698852,-0.736971359
 1\H,0,-1.9309937948,-2.0576259675,1.0269425177\H,0,0.0032554593,-0.462
 9897488,0.6938833271\H,0,0.2425974229,-2.0945372199,0.0346195718\H,0,1
 .8190779664,-1.3335972185,-1.4753417583\H,0,1.2302258024,-0.3888335184
 ,-2.8556853399\H,0,2.8031818042,1.0146075777,-1.7638304588\H,0,1.19502
 78099,1.6654084076,-1.3995564837\H,0,3.6323139307,-0.6073730863,-0.092
 664183\H,0,3.1866770108,-0.23142011,1.5768545723\H,0,4.6047732295,1.71
 7363991,-0.3237407076\H,0,4.1617136923,2.0490219203,1.3459161642\H,0,6
 .0605694181,-0.0198805438,0.4718130687\H,0,5.655546584,0.2807174589,2.
 0129425727\\Version=ES64L-G16RevA.03\State=1-A\HF=-652.0490668\RMSD=4.
 014e-09\Dipole=-0.602028,-1.1839358,-0.5656564\Quadrupole=-8.9687069,4
 .3562952,4.6124117,10.7343783,-7.2096473,-2.5619889\PG=C01 [X(C8H20N2O
 3)]\\@


 AN OPTIMIST IS A GUY
 THAT HAS NEVER HAD
 MUCH EXPERIENCE
   (CERTAIN MAXIMS OF ARCHY  -- DON MARQUIS)
 Job cpu time:       0 days  0 hours 41 minutes 36.2 seconds.
 Elapsed time:       0 days  0 hours 13 minutes 54.6 seconds.
 File lengths (MBytes):  RWF=    772 Int=      0 D2E=      0 Chk=     47 Scr=      1
 Normal termination of Gaussian 16 at Thu Jul 18 15:41:49 2024.
