 Entering Gaussian System, Link 0=g16
 Initial command:
 /opt/sw/arch/manual/gaussian/G16_A03/g16/l1.exe "/scratch/1380947/Gau-167042.inp" -scrdir="/scratch/1380947/"
 Entering Link 1 = /opt/sw/arch/manual/gaussian/G16_A03/g16/l1.exe PID=    167043.
  
 Copyright (c) 1988,1990,1992,1993,1995,1998,2003,2009,2016,
            Gaussian, Inc.  All Rights Reserved.
  
 This is part of the Gaussian(R) 16 program.  It is based on
 the Gaussian(R) 09 system (copyright 2009, Gaussian, Inc.),
 the Gaussian(R) 03 system (copyright 2003, Gaussian, Inc.),
 the Gaussian(R) 98 system (copyright 1998, Gaussian, Inc.),
 the Gaussian(R) 94 system (copyright 1995, Gaussian, Inc.),
 the Gaussian 92(TM) system (copyright 1992, Gaussian, Inc.),
 the Gaussian 90(TM) system (copyright 1990, Gaussian, Inc.),
 the Gaussian 88(TM) system (copyright 1988, Gaussian, Inc.),
 the Gaussian 86(TM) system (copyright 1986, Carnegie Mellon
 University), and the Gaussian 82(TM) system (copyright 1983,
 Carnegie Mellon University). Gaussian is a federally registered
 trademark of Gaussian, Inc.
  
 This software contains proprietary and confidential information,
 including trade secrets, belonging to Gaussian, Inc.
  
 This software is provided under written license and may be
 used, copied, transmitted, or stored only in accord with that
 written license.
  
 The following legend is applicable only to US Government
 contracts under FAR:
  
                    RESTRICTED RIGHTS LEGEND
  
 Use, reproduction and disclosure by the US Government is
 subject to restrictions as set forth in subparagraphs (a)
 and (c) of the Commercial Computer Software - Restricted
 Rights clause in FAR 52.227-19.
  
 Gaussian, Inc.
 340 Quinnipiac St., Bldg. 40, Wallingford CT 06492
  
  
 ---------------------------------------------------------------
 Warning -- This program may not be used in any manner that
 competes with the business of Gaussian, Inc. or will provide
 assistance to any competitor of Gaussian, Inc.  The licensee
 of this program is prohibited from giving any competitor of
 Gaussian, Inc. access to this program.  By using this program,
 the user acknowledges that Gaussian, Inc. is engaged in the
 business of creating and licensing software in the field of
 computational chemistry and represents and warrants to the
 licensee that it is not a competitor of Gaussian, Inc. and that
 it will not use this program in any manner prohibited above.
 ---------------------------------------------------------------
  

 Cite this work as:
 Gaussian 16, Revision A.03,
 M. J. Frisch, G. W. Trucks, H. B. Schlegel, G. E. Scuseria, 
 M. A. Robb, J. R. Cheeseman, G. Scalmani, V. Barone, 
 G. A. Petersson, H. Nakatsuji, X. Li, M. Caricato, A. V. Marenich, 
 J. Bloino, B. G. Janesko, R. Gomperts, B. Mennucci, H. P. Hratchian, 
 J. V. Ortiz, A. F. Izmaylov, J. L. Sonnenberg, D. Williams-Young, 
 F. Ding, F. Lipparini, F. Egidi, J. Goings, B. Peng, A. Petrone, 
 T. Henderson, D. Ranasinghe, V. G. Zakrzewski, J. Gao, N. Rega, 
 G. Zheng, W. Liang, M. Hada, M. Ehara, K. Toyota, R. Fukuda, 
 J. Hasegawa, M. Ishida, T. Nakajima, Y. Honda, O. Kitao, H. Nakai, 
 T. Vreven, K. Throssell, J. A. Montgomery, Jr., J. E. Peralta, 
 F. Ogliaro, M. J. Bearpark, J. J. Heyd, E. N. Brothers, K. N. Kudin, 
 V. N. Staroverov, T. A. Keith, R. Kobayashi, J. Normand, 
 K. Raghavachari, A. P. Rendell, J. C. Burant, S. S. Iyengar, 
 J. Tomasi, M. Cossi, J. M. Millam, M. Klene, C. Adamo, R. Cammi, 
 J. W. Ochterski, R. L. Martin, K. Morokuma, O. Farkas, 
 J. B. Foresman, and D. J. Fox, Gaussian, Inc., Wallingford CT, 2016.
 
 ******************************************
 Gaussian 16:  ES64L-G16RevA.03 25-Dec-2016
                18-Jul-2024 
 ******************************************
 %nprocshared=5
 Will use up to    5 processors via shared memory.
 %mem=10GB
 %Chk=NIQFAJBKEHPUAM-UHFFFAOYSA-N_conf_2_0.chk
 -------------------------------------------------------
 # opt=CalcFc B3LYP/6-31G** SCRF=(Solvent=water) scf=xqc
 -------------------------------------------------------
 1/10=4,18=20,19=15,26=3,38=1/1,3;
 2/9=110,12=2,17=6,18=5,40=1/2;
 3/5=1,6=6,7=101,11=2,25=1,30=1,70=2201,71=2,72=1,74=-5,140=1/1,2,3;
 4//1;
 5/5=2,8=3,13=1,38=5,53=1/2,8;
 8/6=4,10=90,11=11/1;
 11/6=1,8=1,9=11,15=111,16=1/1,2,10;
 10/6=1,13=1/2;
 6/7=2,8=2,9=2,10=2,28=1/1;
 7/10=1,18=20,25=1/1,2,3,16;
 1/10=4,18=20,19=15,26=3/3(2);
 2/9=110/2;
 99//99;
 2/9=110/2;
 3/5=1,6=6,7=101,11=2,25=1,30=1,70=2205,71=1,72=1,74=-5/1,2,3;
 4/5=5,16=3,69=1/1;
 5/5=2,8=3,13=1,38=5,53=1/2,8;
 7//1,2,3,16;
 1/18=20,19=15,26=3/3(-5);
 2/9=110/2;
 6/7=2,8=2,9=2,10=2,19=2,28=1/1;
 99/9=1/99;
 ----------------------------------
 NIQFAJBKEHPUAM-UHFFFAOYSA-N_conf_2
 ----------------------------------
 Symbolic Z-matrix:
 Charge =  0 Multiplicity = 1
 N                     4.24875   1.4279   -1.22411 
 C                     4.70637   0.91888   0.07586 
 C                     4.58139  -0.60778   0.21044 
 O                     3.28097  -1.04512   0.60492 
 C                     2.2902   -0.96475  -0.42406 
 C                     1.2692    0.139    -0.12125 
 O                     0.43895  -0.18796   1.00168 
 C                    -0.67895  -1.01116   0.67448 
 C                    -1.89015  -0.16278   0.28915 
 O                    -2.97706  -1.0225   -0.05344 
 C                    -4.1535   -0.31365  -0.44464 
 C                    -4.94143   0.21121   0.76491 
 N                    -6.22675   0.8046    0.39614 
 H                     4.3729    2.44043  -1.24011 
 H                     4.85079   1.05971  -1.96026 
 H                     5.7586    1.2012    0.19074 
 H                     4.13418   1.41164   0.8686 
 H                     5.25824  -0.92951   1.01003 
 H                     4.90246  -1.13159  -0.69816 
 H                     1.79409  -1.9397   -0.44452 
 H                     2.74513  -0.81273  -1.40849 
 H                     0.64977   0.34035  -1.00178 
 H                     1.78389   1.06553   0.14566 
 H                    -0.92762  -1.59977   1.56479 
 H                    -0.43862  -1.73477  -0.11279 
 H                    -2.15892   0.48618   1.12943 
 H                    -1.64652   0.48093  -0.56333 
 H                    -4.77592  -1.02803  -0.9954 
 H                    -3.89931   0.49551  -1.13992 
 H                    -4.35296   0.96118   1.30289 
 H                    -5.11053  -0.60591   1.4753 
 H                    -6.08235   1.54968  -0.28391 
 H                    -6.80529   0.10378  -0.06642 
 

 GradGradGradGradGradGradGradGradGradGradGradGradGradGradGradGradGradGrad
 Berny optimization.
 Initialization pass.
                           ----------------------------
                           !    Initial Parameters    !
                           ! (Angstroms and Degrees)  !
 --------------------------                            --------------------------
 ! Name  Definition              Value          Derivative Info.                !
 --------------------------------------------------------------------------------
 ! R1    R(1,2)                  1.4692         calculate D2E/DX2 analytically  !
 ! R2    R(1,14)                 1.0202         calculate D2E/DX2 analytically  !
 ! R3    R(1,15)                 1.0198         calculate D2E/DX2 analytically  !
 ! R4    R(2,3)                  1.5377         calculate D2E/DX2 analytically  !
 ! R5    R(2,16)                 1.0955         calculate D2E/DX2 analytically  !
 ! R6    R(2,17)                 1.0948         calculate D2E/DX2 analytically  !
 ! R7    R(3,4)                  1.4276         calculate D2E/DX2 analytically  !
 ! R8    R(3,18)                 1.0959         calculate D2E/DX2 analytically  !
 ! R9    R(3,19)                 1.0968         calculate D2E/DX2 analytically  !
 ! R10   R(4,5)                  1.4307         calculate D2E/DX2 analytically  !
 ! R11   R(5,6)                  1.5338         calculate D2E/DX2 analytically  !
 ! R12   R(5,20)                 1.0941         calculate D2E/DX2 analytically  !
 ! R13   R(5,21)                 1.0951         calculate D2E/DX2 analytically  !
 ! R14   R(6,7)                  1.4343         calculate D2E/DX2 analytically  !
 ! R15   R(6,22)                 1.0952         calculate D2E/DX2 analytically  !
 ! R16   R(6,23)                 1.093          calculate D2E/DX2 analytically  !
 ! R17   R(7,8)                  1.4263         calculate D2E/DX2 analytically  !
 ! R18   R(8,9)                  1.5281         calculate D2E/DX2 analytically  !
 ! R19   R(8,24)                 1.0959         calculate D2E/DX2 analytically  !
 ! R20   R(8,25)                 1.096          calculate D2E/DX2 analytically  !
 ! R21   R(9,10)                 1.4275         calculate D2E/DX2 analytically  !
 ! R22   R(9,26)                 1.0952         calculate D2E/DX2 analytically  !
 ! R23   R(9,27)                 1.0956         calculate D2E/DX2 analytically  !
 ! R24   R(10,11)                1.4281         calculate D2E/DX2 analytically  !
 ! R25   R(11,12)                1.536          calculate D2E/DX2 analytically  !
 ! R26   R(11,28)                1.0959         calculate D2E/DX2 analytically  !
 ! R27   R(11,29)                1.0967         calculate D2E/DX2 analytically  !
 ! R28   R(12,13)                1.4629         calculate D2E/DX2 analytically  !
 ! R29   R(12,30)                1.0946         calculate D2E/DX2 analytically  !
 ! R30   R(12,31)                1.0959         calculate D2E/DX2 analytically  !
 ! R31   R(13,32)                1.0191         calculate D2E/DX2 analytically  !
 ! R32   R(13,33)                1.0197         calculate D2E/DX2 analytically  !
 ! A1    A(2,1,14)             108.6522         calculate D2E/DX2 analytically  !
 ! A2    A(2,1,15)             109.2541         calculate D2E/DX2 analytically  !
 ! A3    A(14,1,15)            105.9715         calculate D2E/DX2 analytically  !
 ! A4    A(1,2,3)              113.3358         calculate D2E/DX2 analytically  !
 ! A5    A(1,2,16)             107.6194         calculate D2E/DX2 analytically  !
 ! A6    A(1,2,17)             108.7817         calculate D2E/DX2 analytically  !
 ! A7    A(3,2,16)             108.9504         calculate D2E/DX2 analytically  !
 ! A8    A(3,2,17)             109.9377         calculate D2E/DX2 analytically  !
 ! A9    A(16,2,17)            108.0636         calculate D2E/DX2 analytically  !
 ! A10   A(2,3,4)              113.727          calculate D2E/DX2 analytically  !
 ! A11   A(2,3,18)             107.7663         calculate D2E/DX2 analytically  !
 ! A12   A(2,3,19)             112.2008         calculate D2E/DX2 analytically  !
 ! A13   A(4,3,18)             105.7278         calculate D2E/DX2 analytically  !
 ! A14   A(4,3,19)             110.4417         calculate D2E/DX2 analytically  !
 ! A15   A(18,3,19)            106.4645         calculate D2E/DX2 analytically  !
 ! A16   A(3,4,5)              114.5119         calculate D2E/DX2 analytically  !
 ! A17   A(4,5,6)              111.065          calculate D2E/DX2 analytically  !
 ! A18   A(4,5,20)             106.1052         calculate D2E/DX2 analytically  !
 ! A19   A(4,5,21)             111.5097         calculate D2E/DX2 analytically  !
 ! A20   A(6,5,20)             110.0664         calculate D2E/DX2 analytically  !
 ! A21   A(6,5,21)             110.7401         calculate D2E/DX2 analytically  !
 ! A22   A(20,5,21)            107.1737         calculate D2E/DX2 analytically  !
 ! A23   A(5,6,7)              112.0776         calculate D2E/DX2 analytically  !
 ! A24   A(5,6,22)             110.491          calculate D2E/DX2 analytically  !
 ! A25   A(5,6,23)             110.1686         calculate D2E/DX2 analytically  !
 ! A26   A(7,6,22)             110.1183         calculate D2E/DX2 analytically  !
 ! A27   A(7,6,23)             105.9405         calculate D2E/DX2 analytically  !
 ! A28   A(22,6,23)            107.8671         calculate D2E/DX2 analytically  !
 ! A29   A(6,7,8)              113.9317         calculate D2E/DX2 analytically  !
 ! A30   A(7,8,9)              111.0162         calculate D2E/DX2 analytically  !
 ! A31   A(7,8,24)             107.5457         calculate D2E/DX2 analytically  !
 ! A32   A(7,8,25)             111.961          calculate D2E/DX2 analytically  !
 ! A33   A(9,8,24)             108.8559         calculate D2E/DX2 analytically  !
 ! A34   A(9,8,25)             111.0526         calculate D2E/DX2 analytically  !
 ! A35   A(24,8,25)            106.1835         calculate D2E/DX2 analytically  !
 ! A36   A(8,9,10)             109.247          calculate D2E/DX2 analytically  !
 ! A37   A(8,9,26)             109.2693         calculate D2E/DX2 analytically  !
 ! A38   A(8,9,27)             110.2502         calculate D2E/DX2 analytically  !
 ! A39   A(10,9,26)            110.7405         calculate D2E/DX2 analytically  !
 ! A40   A(10,9,27)            109.6578         calculate D2E/DX2 analytically  !
 ! A41   A(26,9,27)            107.662          calculate D2E/DX2 analytically  !
 ! A42   A(9,10,11)            113.2051         calculate D2E/DX2 analytically  !
 ! A43   A(10,11,12)           112.1152         calculate D2E/DX2 analytically  !
 ! A44   A(10,11,28)           106.3778         calculate D2E/DX2 analytically  !
 ! A45   A(10,11,29)           110.4232         calculate D2E/DX2 analytically  !
 ! A46   A(12,11,28)           109.095          calculate D2E/DX2 analytically  !
 ! A47   A(12,11,29)           111.4696         calculate D2E/DX2 analytically  !
 ! A48   A(28,11,29)           107.0954         calculate D2E/DX2 analytically  !
 ! A49   A(11,12,13)           113.0041         calculate D2E/DX2 analytically  !
 ! A50   A(11,12,30)           110.2037         calculate D2E/DX2 analytically  !
 ! A51   A(11,12,31)           109.562          calculate D2E/DX2 analytically  !
 ! A52   A(13,12,30)           108.5619         calculate D2E/DX2 analytically  !
 ! A53   A(13,12,31)           109.286          calculate D2E/DX2 analytically  !
 ! A54   A(30,12,31)           105.9756         calculate D2E/DX2 analytically  !
 ! A55   A(12,13,32)           109.8948         calculate D2E/DX2 analytically  !
 ! A56   A(12,13,33)           109.5151         calculate D2E/DX2 analytically  !
 ! A57   A(32,13,33)           106.2704         calculate D2E/DX2 analytically  !
 ! D1    D(14,1,2,3)          -179.3363         calculate D2E/DX2 analytically  !
 ! D2    D(14,1,2,16)          -58.7988         calculate D2E/DX2 analytically  !
 ! D3    D(14,1,2,17)           58.05           calculate D2E/DX2 analytically  !
 ! D4    D(15,1,2,3)           -64.1523         calculate D2E/DX2 analytically  !
 ! D5    D(15,1,2,16)           56.3851         calculate D2E/DX2 analytically  !
 ! D6    D(15,1,2,17)          173.2339         calculate D2E/DX2 analytically  !
 ! D7    D(1,2,3,4)            -83.6829         calculate D2E/DX2 analytically  !
 ! D8    D(1,2,3,18)           159.4607         calculate D2E/DX2 analytically  !
 ! D9    D(1,2,3,19)            42.5752         calculate D2E/DX2 analytically  !
 ! D10   D(16,2,3,4)           156.5365         calculate D2E/DX2 analytically  !
 ! D11   D(16,2,3,18)           39.6801         calculate D2E/DX2 analytically  !
 ! D12   D(16,2,3,19)          -77.2054         calculate D2E/DX2 analytically  !
 ! D13   D(17,2,3,4)            38.2882         calculate D2E/DX2 analytically  !
 ! D14   D(17,2,3,18)          -78.5682         calculate D2E/DX2 analytically  !
 ! D15   D(17,2,3,19)          164.5463         calculate D2E/DX2 analytically  !
 ! D16   D(2,3,4,5)             74.0157         calculate D2E/DX2 analytically  !
 ! D17   D(18,3,4,5)          -167.9469         calculate D2E/DX2 analytically  !
 ! D18   D(19,3,4,5)           -53.163          calculate D2E/DX2 analytically  !
 ! D19   D(3,4,5,6)           -110.0698         calculate D2E/DX2 analytically  !
 ! D20   D(3,4,5,20)           130.3323         calculate D2E/DX2 analytically  !
 ! D21   D(3,4,5,21)            13.9647         calculate D2E/DX2 analytically  !
 ! D22   D(4,5,6,7)            -68.9839         calculate D2E/DX2 analytically  !
 ! D23   D(4,5,6,22)           167.7983         calculate D2E/DX2 analytically  !
 ! D24   D(4,5,6,23)            48.7075         calculate D2E/DX2 analytically  !
 ! D25   D(20,5,6,7)            48.221          calculate D2E/DX2 analytically  !
 ! D26   D(20,5,6,22)          -74.9969         calculate D2E/DX2 analytically  !
 ! D27   D(20,5,6,23)          165.9124         calculate D2E/DX2 analytically  !
 ! D28   D(21,5,6,7)           166.5449         calculate D2E/DX2 analytically  !
 ! D29   D(21,5,6,22)           43.327          calculate D2E/DX2 analytically  !
 ! D30   D(21,5,6,23)          -75.7637         calculate D2E/DX2 analytically  !
 ! D31   D(5,6,7,8)            -83.8081         calculate D2E/DX2 analytically  !
 ! D32   D(22,6,7,8)            39.6194         calculate D2E/DX2 analytically  !
 ! D33   D(23,6,7,8)           156.0069         calculate D2E/DX2 analytically  !
 ! D34   D(6,7,8,9)            -89.2849         calculate D2E/DX2 analytically  !
 ! D35   D(6,7,8,24)           151.7298         calculate D2E/DX2 analytically  !
 ! D36   D(6,7,8,25)            35.4549         calculate D2E/DX2 analytically  !
 ! D37   D(7,8,9,10)           178.963          calculate D2E/DX2 analytically  !
 ! D38   D(7,8,9,26)           -59.7433         calculate D2E/DX2 analytically  !
 ! D39   D(7,8,9,27)            58.392          calculate D2E/DX2 analytically  !
 ! D40   D(24,8,9,10)          -62.8422         calculate D2E/DX2 analytically  !
 ! D41   D(24,8,9,26)           58.4515         calculate D2E/DX2 analytically  !
 ! D42   D(24,8,9,27)          176.5869         calculate D2E/DX2 analytically  !
 ! D43   D(25,8,9,10)           53.7119         calculate D2E/DX2 analytically  !
 ! D44   D(25,8,9,26)          175.0056         calculate D2E/DX2 analytically  !
 ! D45   D(25,8,9,27)          -66.8591         calculate D2E/DX2 analytically  !
 ! D46   D(8,9,10,11)         -179.2857         calculate D2E/DX2 analytically  !
 ! D47   D(26,9,10,11)          60.3175         calculate D2E/DX2 analytically  !
 ! D48   D(27,9,10,11)         -58.3532         calculate D2E/DX2 analytically  !
 ! D49   D(9,10,11,12)         -79.6804         calculate D2E/DX2 analytically  !
 ! D50   D(9,10,11,28)         161.1447         calculate D2E/DX2 analytically  !
 ! D51   D(9,10,11,29)          45.2714         calculate D2E/DX2 analytically  !
 ! D52   D(10,11,12,13)       -173.3496         calculate D2E/DX2 analytically  !
 ! D53   D(10,11,12,30)         64.9996         calculate D2E/DX2 analytically  !
 ! D54   D(10,11,12,31)        -51.232          calculate D2E/DX2 analytically  !
 ! D55   D(28,11,12,13)        -55.7842         calculate D2E/DX2 analytically  !
 ! D56   D(28,11,12,30)       -177.435          calculate D2E/DX2 analytically  !
 ! D57   D(28,11,12,31)         66.3334         calculate D2E/DX2 analytically  !
 ! D58   D(29,11,12,13)         62.2779         calculate D2E/DX2 analytically  !
 ! D59   D(29,11,12,30)        -59.373          calculate D2E/DX2 analytically  !
 ! D60   D(29,11,12,31)       -175.6046         calculate D2E/DX2 analytically  !
 ! D61   D(11,12,13,32)        -56.2126         calculate D2E/DX2 analytically  !
 ! D62   D(11,12,13,33)         60.1706         calculate D2E/DX2 analytically  !
 ! D63   D(30,12,13,32)         66.3587         calculate D2E/DX2 analytically  !
 ! D64   D(30,12,13,33)       -177.2581         calculate D2E/DX2 analytically  !
 ! D65   D(31,12,13,32)       -178.4847         calculate D2E/DX2 analytically  !
 ! D66   D(31,12,13,33)        -62.1015         calculate D2E/DX2 analytically  !
 --------------------------------------------------------------------------------
 Trust Radius=3.00D-01 FncErr=1.00D-07 GrdErr=1.00D-06 EigMax=2.50D+02 EigMin=1.00D-04
 Number of steps in this run=    165 maximum allowed number of steps=    198.
 GradGradGradGradGradGradGradGradGradGradGradGradGradGradGradGradGradGrad

                          Input orientation:                          
 ---------------------------------------------------------------------
 Center     Atomic      Atomic             Coordinates (Angstroms)
 Number     Number       Type             X           Y           Z
 ---------------------------------------------------------------------
      1          7           0        4.248748    1.427900   -1.224108
      2          6           0        4.706370    0.918882    0.075855
      3          6           0        4.581392   -0.607781    0.210443
      4          8           0        3.280966   -1.045117    0.604918
      5          6           0        2.290199   -0.964748   -0.424059
      6          6           0        1.269197    0.139000   -0.121251
      7          8           0        0.438952   -0.187955    1.001676
      8          6           0       -0.678947   -1.011159    0.674477
      9          6           0       -1.890150   -0.162780    0.289152
     10          8           0       -2.977062   -1.022502   -0.053436
     11          6           0       -4.153496   -0.313653   -0.444639
     12          6           0       -4.941434    0.211214    0.764915
     13          7           0       -6.226747    0.804598    0.396144
     14          1           0        4.372904    2.440431   -1.240109
     15          1           0        4.850788    1.059708   -1.960258
     16          1           0        5.758604    1.201195    0.190739
     17          1           0        4.134176    1.411639    0.868604
     18          1           0        5.258243   -0.929505    1.010029
     19          1           0        4.902456   -1.131591   -0.698158
     20          1           0        1.794092   -1.939696   -0.444519
     21          1           0        2.745127   -0.812726   -1.408486
     22          1           0        0.649771    0.340347   -1.001776
     23          1           0        1.783886    1.065531    0.145656
     24          1           0       -0.927616   -1.599767    1.564794
     25          1           0       -0.438618   -1.734770   -0.112785
     26          1           0       -2.158916    0.486176    1.129432
     27          1           0       -1.646525    0.480929   -0.563332
     28          1           0       -4.775922   -1.028028   -0.995399
     29          1           0       -3.899309    0.495511   -1.139923
     30          1           0       -4.352961    0.961177    1.302892
     31          1           0       -5.110529   -0.605913    1.475304
     32          1           0       -6.082349    1.549677   -0.283911
     33          1           0       -6.805289    0.103776   -0.066420
 ---------------------------------------------------------------------
                    Distance matrix (angstroms):
                    1          2          3          4          5
     1  N    0.000000
     2  C    1.469157   0.000000
     3  C    2.512486   1.537671   0.000000
     4  O    3.224554   2.483742   1.427579   0.000000
     5  C    3.193862   3.104168   2.404077   1.430690   0.000000
     6  C    3.428597   3.530046   3.411501   2.444723   1.533753
     7  O    4.698898   4.504785   4.238173   2.994860   2.462365
     8  C    5.816856   5.751960   5.296150   3.960670   3.166191
     9  C    6.519684   6.688016   6.487301   5.255346   4.315917
    10  O    7.719279   7.925958   7.574421   6.292603   5.280599
    11  C    8.616164   8.960317   8.764355   7.543728   6.476539
    12  C    9.481349   9.698233   9.574048   8.319365   7.422470
    13  N   10.618367  10.938404  10.901613   9.688222   8.737373
    14  H    1.020241   2.039136   3.382184   4.092127   4.074168
    15  H    1.019772   2.046080   2.750461   3.670797   3.607623
    16  H    2.081550   1.095489   2.158382   3.369889   4.135108
    17  H    2.095909   1.094836   2.170538   2.614029   3.273904
    18  H    3.401148   2.143310   1.095888   2.021659   3.296534
    19  H    2.693501   2.200451   1.096820   2.081998   2.631892
    20  H    4.239551   4.113832   3.157849   2.027901   1.094104
    21  H    2.704676   3.008024   2.456583   2.096408   1.095064
    22  H    3.766276   4.236979   4.222093   3.379965   2.174404
    23  H    2.843081   2.926994   3.260400   2.628118   2.168631
    24  H    6.613583   6.348412   5.759121   4.352145   3.835768
    25  H    5.762717   5.792094   5.155102   3.850458   2.852414
    26  H    6.890874   6.959124   6.890068   5.675587   4.930836
    27  H    6.007297   6.399971   6.369534   5.289025   4.196090
    28  H    9.355669   9.739194   9.444045   8.214301   7.089463
    29  H    8.201663   8.701441   8.658119   7.548136   6.399596
    30  H    8.977358   9.142149   9.136615   7.923965   7.129033
    31  H    9.950843  10.032694   9.774109   8.447938   7.648994
    32  H   10.374505  10.813131  10.891023   9.756774   8.743085
    33  H   11.193091  11.541358  11.412251  10.173652   9.165018
                    6          7          8          9         10
     6  C    0.000000
     7  O    1.434284   0.000000
     8  C    2.398190   1.426332   0.000000
     9  C    3.200152   2.435783   1.528147   0.000000
    10  O    4.402772   3.671360   2.410668   1.427539   0.000000
    11  C    5.451154   4.816452   3.716373   2.384103   1.428112
    12  C    6.273950   5.400366   4.435219   3.110716   2.459779
    13  N    7.543202   6.766342   5.844016   4.444473   3.755113
    14  H    4.022615   5.235455   6.410953   6.952783   8.211096
    15  H    4.130065   5.458389   6.465933   7.210725   8.321466
    16  H    4.623891   5.557522   6.824264   7.770041   9.017555
    17  H    3.287481   4.028783   5.392012   6.253564   7.572642
    18  H    4.281820   4.876015   5.947225   7.225444   8.304207
    19  H    3.892016   4.868547   5.748973   6.932017   7.906603
    20  H    2.168177   2.645086   2.868842   4.155640   4.874228
    21  H    2.177412   3.393768   4.012779   4.978975   5.884183
    22  H    1.095242   2.082635   2.530195   2.893238   3.988812
    23  H    1.092979   2.028015   3.264635   3.876580   5.202513
    24  H    3.269869   2.043972   1.095883   2.149108   2.674347
    25  H    2.535294   2.098759   1.095972   2.177074   2.637148
    26  H    3.665610   2.686949   2.153904   1.095194   2.084382
    27  H    2.968802   2.691815   2.166727   1.095647   2.071383
    28  H    6.218484   5.647029   4.424248   3.275119   2.030571
    29  H    5.279986   4.886112   3.991596   2.551926   2.082152
    30  H    5.857714   4.936969   4.217036   2.890742   2.769063
    31  H    6.618518   5.585316   4.521555   3.460370   2.657494
    32  H    7.487436   6.870187   6.055835   4.564586   4.038815
    33  H    8.074749   7.328368   6.270891   4.935188   3.990488
                   11         12         13         14         15
    11  C    0.000000
    12  C    1.536018   0.000000
    13  N    2.501153   1.462917   0.000000
    14  H    8.995402   9.785010  10.849234   0.000000
    15  H    9.233653  10.199711  11.328260   1.628922   0.000000
    16  H   10.047298  10.761066  11.993670   2.345889   2.339003
    17  H    8.566607   9.155243  10.389439   2.358405   2.939362
    18  H    9.543383  10.266193  11.631378   4.147700   3.597998
    19  H    9.096349  10.042205  11.349250   3.651503   2.529299
    20  H    6.165859   7.173315   8.518904   5.144779   4.542826
    21  H    6.983486   8.053281   9.293382   3.641571   2.871283
    22  H    4.879497   5.865104   7.032511   4.281224   4.368605
    23  H    6.123978   6.807589   8.018795   3.242485   3.720322
    24  H    4.012257   4.475510   5.935276   7.230920   7.272465
    25  H    3.991243   4.983228   6.341123   6.469460   6.260996
    26  H    2.663790   2.819731   4.145643   7.217930   7.681866
    27  H    2.632557   3.562782   4.690820   6.366412   6.670941
    28  H    1.095939   2.159124   2.720258   9.787293   9.897632
    29  H    1.096712   2.189808   2.805709   8.498369   8.806558
    30  H    2.172290   1.094608   2.087531   9.208462   9.765595
    31  H    2.165065   1.095874   2.097634  10.324203  10.667952
    32  H    2.686690   2.047732   1.019052  10.536607  11.071752
    33  H    2.710960   2.043677   1.019719  11.479961  11.847555
                   16         17         18         19         20
    16  H    0.000000
    17  H    1.772725   0.000000
    18  H    2.336981   2.600862   0.000000
    19  H    2.639132   3.084317   1.756509   0.000000
    20  H    5.097656   4.293219   3.890570   3.221691   0.000000
    21  H    3.961621   3.473096   3.489786   2.293536   1.761749
    22  H    5.316327   4.097203   5.186318   4.510445   2.611245
    23  H    3.977288   2.483206   4.098593   3.907025   3.062645
    24  H    7.378276   5.930851   6.246748   6.271354   3.400086
    25  H    6.864224   5.636795   5.862029   5.406806   2.266503
    26  H    8.004968   6.366123   7.551997   7.471294   4.897800
    27  H    7.478191   6.027700   7.220845   6.745928   4.208489
    28  H   10.832940   9.424241  10.233079   9.683495   6.655801
    29  H    9.774658   8.331288   9.513870   8.961790   6.231263
    30  H   10.175374   8.510171   9.799780   9.697763   7.018174
    31  H   11.092961   9.481728  10.384248  10.259636   7.289615
    32  H   11.855585  10.282253  11.680310  11.314890   8.616254
    33  H   12.614352  11.056974  12.155460  11.789678   8.846926
                   21         22         23         24         25
    21  H    0.000000
    22  H    2.426006   0.000000
    23  H    2.620532   1.768816   0.000000
    24  H    4.790497   3.583221   4.058326   0.000000
    25  H    3.558825   2.506193   3.584410   1.752603   0.000000
    26  H    5.672549   3.528745   4.104772   2.461056   3.071666
    27  H    4.655581   2.342001   3.551357   3.061869   2.563465
    28  H    7.535460   5.595590   6.979690   4.657352   4.482265
    29  H    6.777325   4.553821   5.854600   4.531737   4.243295
    30  H    7.802637   5.542946   6.245876   4.284858   4.959270
    31  H    8.370803   6.341323   7.217662   4.300292   5.061926
    32  H    9.207059   6.877445   7.892818   6.317276   6.532119
    33  H    9.687702   7.517232   8.645454   6.333242   6.626983
                   26         27         28         29         30
    26  H    0.000000
    27  H    1.768622   0.000000
    28  H    3.695462   3.500965   0.000000
    29  H    2.859901   2.325448   1.763663   0.000000
    30  H    2.251565   3.322383   3.068872   2.527844   0.000000
    31  H    3.166118   4.163722   2.528738   3.085385   1.749116
    32  H    4.303708   4.571306   2.976160   2.570931   2.419723
    33  H    4.813011   5.196346   2.502462   3.122593   2.936676
                   31         32         33
    31  H    0.000000
    32  H    2.947174   0.000000
    33  H    2.398496   1.631126   0.000000
 Stoichiometry    C8H20N2O3
 Framework group  C1[X(C8H20N2O3)]
 Deg. of freedom    93
 Full point group                 C1      NOp   1
 Largest Abelian subgroup         C1      NOp   1
 Largest concise Abelian subgroup C1      NOp   1
                         Standard orientation:                         
 ---------------------------------------------------------------------
 Center     Atomic      Atomic             Coordinates (Angstroms)
 Number     Number       Type             X           Y           Z
 ---------------------------------------------------------------------
      1          7           0       -4.331449    1.805529    0.446091
      2          6           0       -4.720581    0.815215   -0.566961
      3          6           0       -4.571946   -0.637986   -0.086806
      4          8           0       -3.249256   -1.156631   -0.226374
      5          6           0       -2.309790   -0.651056    0.726869
      6          6           0       -1.288108    0.275453    0.055941
      7          8           0       -0.401464   -0.440498   -0.814948
      8          6           0        0.708812   -1.036943   -0.147144
      9          6           0        1.890476   -0.070443   -0.077987
     10          8           0        2.969482   -0.695358    0.617062
     11          6           0        4.117726    0.144091    0.744983
     12          6           0        4.956561    0.176481   -0.541352
     13          7           0        6.215939    0.904131   -0.384447
     14          1           0       -4.467744    2.739460    0.058679
     15          1           0       -4.963763    1.737398    1.243256
     16          1           0       -5.769265    0.999177   -0.824867
     17          1           0       -4.116790    0.974894   -1.466185
     18          1           0       -5.206093   -1.266605   -0.722153
     19          1           0       -4.930096   -0.773549    0.940990
     20          1           0       -1.804165   -1.525283    1.147741
     21          1           0       -2.812959   -0.139245    1.553933
     22          1           0       -0.713815    0.823352    0.810625
     23          1           0       -1.799960    1.008153   -0.573154
     24          1           0        1.006441   -1.919506   -0.724602
     25          1           0        0.439373   -1.401407    0.850715
     26          1           0        2.191701    0.205437   -1.094158
     27          1           0        1.599066    0.848141    0.443287
     28          1           0        4.721201   -0.279235    1.555967
     29          1           0        3.821399    1.153023    1.056468
     30          1           0        4.385981    0.638535   -1.353209
     31          1           0        5.168711   -0.848173   -0.866957
     32          1           0        6.030726    1.851367   -0.057480
     33          1           0        6.779645    0.457471    0.338434
 ---------------------------------------------------------------------
 Rotational constants (GHZ):           2.3408498           0.1895731           0.1833529
 Standard basis: 6-31G(d,p) (6D, 7F)
 There are   295 symmetry adapted cartesian basis functions of A   symmetry.
 There are   295 symmetry adapted basis functions of A   symmetry.
   295 basis functions,   504 primitive gaussians,   295 cartesian basis functions
    53 alpha electrons       53 beta electrons
       nuclear repulsion energy       829.4803142824 Hartrees.
 NAtoms=   33 NActive=   33 NUniq=   33 SFac= 1.00D+00 NAtFMM=   60 NAOKFM=F Big=F
 Integral buffers will be    131072 words long.
 Raffenetti 2 integral format.
 Two-electron integral symmetry is turned on.
 Force inversion solution in PCM.
 ------------------------------------------------------------------------------
 Polarizable Continuum Model (PCM)
 =================================
 Model                : PCM.
 Atomic radii         : UFF (Universal Force Field).
 Polarization charges : Total charges.
 Charge compensation  : None.
 Solution method      : Matrix inversion.
 Cavity type          : Scaled VdW (van der Waals Surface) (Alpha=1.100).
 Cavity algorithm     : GePol (No added spheres)
                        Default sphere list used, NSphG=   33.
                        Lebedev-Laikov grids with approx.  5.0 points / Ang**2.
                        Smoothing algorithm: York/Karplus (Gamma=1.0000).
                        Polarization charges: spherical gaussians, with
                                              point-specific exponents (IZeta= 3).
                        Self-potential: point-specific (ISelfS= 7).
                        Self-field    : sphere-specific E.n sum rule (ISelfD= 2).
 1st derivatives      : Analytical E(r).r(x)/FMM algorithm (CHGder, D1EAlg=3).
                        Cavity 1st derivative terms included.
 2nd derivatives      : Analytical E(r).r(xy)/FMM algorithm (CHGder, D2EAlg=3).
                        Cavity 2nd derivative terms included.
 Solvent              : Water, Eps=  78.355300 Eps(inf)=   1.777849
 ------------------------------------------------------------------------------
 One-electron integrals computed using PRISM.
 NBasis=   295 RedAO= T EigKep=  3.18D-03  NBF=   295
 NBsUse=   295 1.00D-06 EigRej= -1.00D+00 NBFU=   295
 ExpMin= 1.61D-01 ExpMax= 5.48D+03 ExpMxC= 8.25D+02 IAcc=3 IRadAn=         5 AccDes= 0.00D+00
 Harris functional with IExCor=  402 and IRadAn=       5 diagonalized for initial guess.
 HarFok:  IExCor=  402 AccDes= 0.00D+00 IRadAn=         5 IDoV= 1 UseB2=F ITyADJ=14
 ICtDFT=  3500011 ScaDFX=  1.000000  1.000000  1.000000  1.000000
 FoFCou: FMM=F IPFlag=           0 FMFlag=      100000 FMFlg1=           0
         NFxFlg=           0 DoJE=T BraDBF=F KetDBF=T FulRan=T
         wScrn=  0.000000 ICntrl=       500 IOpCl=  0 I1Cent=   200000004 NGrid=           0
         NMat0=    1 NMatS0=      1 NMatT0=    0 NMatD0=    1 NMtDS0=    0 NMtDT0=    0
 Petite list used in FoFCou.
 Requested convergence on RMS density matrix=1.00D-08 within  32 cycles.
 Requested convergence on MAX density matrix=1.00D-06.
 Requested convergence on             energy=1.00D-06.
 No special actions if energy rises.
 Inv3:  Mode=1 IEnd=    16300683.
 Iteration    1 A*A^-1 deviation from unit magnitude is 3.44D-15 for   1819.
 Iteration    1 A*A^-1 deviation from orthogonality  is 2.18D-15 for    275     82.
 Iteration    1 A^-1*A deviation from unit magnitude is 3.44D-15 for   1819.
 Iteration    1 A^-1*A deviation from orthogonality  is 2.44D-15 for   2121   1920.
 Error on total polarization charges =  0.00982
 SCF Done:  E(RB3LYP) =  -652.038236618     A.U. after   11 cycles
            NFock= 11  Conv=0.66D-08     -V/T= 2.0092
 QCSCF skips out because SCF is already converged.
 DoSCS=F DFT=T ScalE2(SS,OS)=  1.000000  1.000000
 Range of M.O.s used for correlation:     1   295
 NBasis=   295 NAE=    53 NBE=    53 NFC=     0 NFV=     0
 NROrb=    295 NOA=    53 NOB=    53 NVA=   242 NVB=   242
 Symmetrizing basis deriv contribution to polar:
 IMax=3 JMax=2 DiffMx= 0.00D+00
 G2DrvN: will do    34 centers at a time, making    1 passes.
 Calling FoFCou, ICntrl=  3107 FMM=F I1Cent=   0 AccDes= 0.00D+00.
 NEqPCM:  Using equilibrium solvation (IEInf=0, Eps=  78.3553, EpsInf=   1.7778)
 G2PCM: DoFxE=T DoFxN=T DoGrad=T DoDP/DQ/DG/TGxP=FFFF NFrqRd=   0 IEInf=0 SqF1=F DoCFld=F IF1Alg=4.
 End of G2Drv F.D. properties file   721 does not exist.
 End of G2Drv F.D. properties file   722 does not exist.
 End of G2Drv F.D. properties file   788 does not exist.
          IDoAtm=111111111111111111111111111111111
 NEqPCM:  Using equilibrium solvation (IEInf=0, Eps=  78.3553, EpsInf=   1.7778)
          Differentiating once with respect to nuclear coordinates.
 Keep R1 ints in memory in canonical form, NReq=966504469.
          There are   102 degrees of freedom in the 1st order CPHF.  IDoFFX=6 NUNeed=     0.
     96 vectors produced by pass  0 Test12= 1.28D-14 1.00D-09 XBig12= 8.94D-02 6.35D-02.
 AX will form    96 AO Fock derivatives at one time.
     96 vectors produced by pass  1 Test12= 1.28D-14 1.00D-09 XBig12= 6.08D-03 1.68D-02.
     96 vectors produced by pass  2 Test12= 1.28D-14 1.00D-09 XBig12= 9.61D-05 1.40D-03.
     96 vectors produced by pass  3 Test12= 1.28D-14 1.00D-09 XBig12= 2.68D-07 5.37D-05.
     96 vectors produced by pass  4 Test12= 1.28D-14 1.00D-09 XBig12= 2.35D-10 1.56D-06.
     44 vectors produced by pass  5 Test12= 1.28D-14 1.00D-09 XBig12= 1.78D-13 4.88D-08.
      3 vectors produced by pass  6 Test12= 1.28D-14 1.00D-09 XBig12= 1.05D-16 1.56D-09.
 InvSVY:  IOpt=1 It=  1 EMax= 5.00D-16
 Solved reduced A of dimension   527 with   102 vectors.
 End of Minotr F.D. properties file   721 does not exist.
 End of Minotr F.D. properties file   722 does not exist.
 End of Minotr F.D. properties file   788 does not exist.

 **********************************************************************

            Population analysis using the SCF density.

 **********************************************************************

 Orbital symmetries:
       Occupied  (A) (A) (A) (A) (A) (A) (A) (A) (A) (A) (A) (A)
                 (A) (A) (A) (A) (A) (A) (A) (A) (A) (A) (A) (A)
                 (A) (A) (A) (A) (A) (A) (A) (A) (A) (A) (A) (A)
                 (A) (A) (A) (A) (A) (A) (A) (A) (A) (A) (A) (A)
                 (A) (A) (A) (A) (A)
       Virtual   (A) (A) (A) (A) (A) (A) (A) (A) (A) (A) (A) (A)
                 (A) (A) (A) (A) (A) (A) (A) (A) (A) (A) (A) (A)
                 (A) (A) (A) (A) (A) (A) (A) (A) (A) (A) (A) (A)
                 (A) (A) (A) (A) (A) (A) (A) (A) (A) (A) (A) (A)
                 (A) (A) (A) (A) (A) (A) (A) (A) (A) (A) (A) (A)
                 (A) (A) (A) (A) (A) (A) (A) (A) (A) (A) (A) (A)
                 (A) (A) (A) (A) (A) (A) (A) (A) (A) (A) (A) (A)
                 (A) (A) (A) (A) (A) (A) (A) (A) (A) (A) (A) (A)
                 (A) (A) (A) (A) (A) (A) (A) (A) (A) (A) (A) (A)
                 (A) (A) (A) (A) (A) (A) (A) (A) (A) (A) (A) (A)
                 (A) (A) (A) (A) (A) (A) (A) (A) (A) (A) (A) (A)
                 (A) (A) (A) (A) (A) (A) (A) (A) (A) (A) (A) (A)
                 (A) (A) (A) (A) (A) (A) (A) (A) (A) (A) (A) (A)
                 (A) (A) (A) (A) (A) (A) (A) (A) (A) (A) (A) (A)
                 (A) (A) (A) (A) (A) (A) (A) (A) (A) (A) (A) (A)
                 (A) (A) (A) (A) (A) (A) (A) (A) (A) (A) (A) (A)
                 (A) (A) (A) (A) (A) (A) (A) (A) (A) (A) (A) (A)
                 (A) (A) (A) (A) (A) (A) (A) (A) (A) (A) (A) (A)
                 (A) (A) (A) (A) (A) (A) (A) (A) (A) (A) (A) (A)
                 (A) (A) (A) (A) (A) (A) (A) (A) (A) (A) (A) (A)
                 (A) (A)
 The electronic state is 1-A.
 Alpha  occ. eigenvalues --  -19.14966 -19.14918 -19.14298 -14.31410 -14.31049
 Alpha  occ. eigenvalues --  -10.23020 -10.22863 -10.22763 -10.22627 -10.22589
 Alpha  occ. eigenvalues --  -10.22392 -10.20406 -10.20392  -1.03319  -1.02553
 Alpha  occ. eigenvalues --   -1.01576  -0.87896  -0.87498  -0.76831  -0.74254
 Alpha  occ. eigenvalues --   -0.70872  -0.68705  -0.63883  -0.60884  -0.59805
 Alpha  occ. eigenvalues --   -0.58000  -0.50733  -0.50070  -0.49952  -0.48670
 Alpha  occ. eigenvalues --   -0.48107  -0.46406  -0.45552  -0.45470  -0.44823
 Alpha  occ. eigenvalues --   -0.43007  -0.42654  -0.40741  -0.40555  -0.39207
 Alpha  occ. eigenvalues --   -0.38415  -0.36674  -0.36298  -0.35447  -0.34928
 Alpha  occ. eigenvalues --   -0.31894  -0.31563  -0.30455  -0.27405  -0.27028
 Alpha  occ. eigenvalues --   -0.24340  -0.22894  -0.22867
 Alpha virt. eigenvalues --    0.08093   0.08186   0.08994   0.09789   0.10470
 Alpha virt. eigenvalues --    0.11854   0.12886   0.13269   0.13720   0.13812
 Alpha virt. eigenvalues --    0.15273   0.15829   0.16072   0.16848   0.17665
 Alpha virt. eigenvalues --    0.18032   0.18516   0.19187   0.19720   0.20314
 Alpha virt. eigenvalues --    0.20722   0.21336   0.22544   0.24087   0.24480
 Alpha virt. eigenvalues --    0.25363   0.26008   0.26706   0.27252   0.27695
 Alpha virt. eigenvalues --    0.29327   0.30317   0.49536   0.51143   0.52453
 Alpha virt. eigenvalues --    0.53438   0.53528   0.53701   0.55341   0.55885
 Alpha virt. eigenvalues --    0.56283   0.56746   0.57692   0.57902   0.59173
 Alpha virt. eigenvalues --    0.61316   0.62368   0.64282   0.65493   0.66427
 Alpha virt. eigenvalues --    0.67447   0.69207   0.71411   0.71765   0.73867
 Alpha virt. eigenvalues --    0.75761   0.76442   0.77579   0.78740   0.79512
 Alpha virt. eigenvalues --    0.79626   0.81748   0.82848   0.83574   0.83929
 Alpha virt. eigenvalues --    0.84384   0.85320   0.86429   0.87627   0.88828
 Alpha virt. eigenvalues --    0.89071   0.90084   0.90777   0.91567   0.92264
 Alpha virt. eigenvalues --    0.93680   0.94419   0.95039   0.95245   0.96031
 Alpha virt. eigenvalues --    0.96467   0.97470   0.98844   1.00036   1.02371
 Alpha virt. eigenvalues --    1.03788   1.07925   1.10176   1.12878   1.15952
 Alpha virt. eigenvalues --    1.17992   1.20456   1.20538   1.25047   1.26063
 Alpha virt. eigenvalues --    1.28192   1.30939   1.33072   1.34609   1.36526
 Alpha virt. eigenvalues --    1.39576   1.41097   1.45756   1.50409   1.51931
 Alpha virt. eigenvalues --    1.52856   1.55047   1.56737   1.58100   1.59183
 Alpha virt. eigenvalues --    1.61199   1.63032   1.63763   1.65153   1.68348
 Alpha virt. eigenvalues --    1.69667   1.71470   1.71964   1.73079   1.76384
 Alpha virt. eigenvalues --    1.79710   1.82841   1.83258   1.85985   1.86860
 Alpha virt. eigenvalues --    1.88569   1.88842   1.91107   1.92469   1.93985
 Alpha virt. eigenvalues --    1.94844   1.95897   1.96659   1.98913   1.99526
 Alpha virt. eigenvalues --    2.00440   2.01279   2.02672   2.03593   2.04238
 Alpha virt. eigenvalues --    2.04816   2.05910   2.07714   2.09008   2.10407
 Alpha virt. eigenvalues --    2.10873   2.15163   2.16541   2.17570   2.19636
 Alpha virt. eigenvalues --    2.20198   2.22050   2.22444   2.24173   2.25799
 Alpha virt. eigenvalues --    2.25854   2.26071   2.27804   2.28979   2.30197
 Alpha virt. eigenvalues --    2.31226   2.32772   2.33443   2.34843   2.35542
 Alpha virt. eigenvalues --    2.36291   2.37827   2.39329   2.40780   2.44949
 Alpha virt. eigenvalues --    2.45123   2.48720   2.50517   2.52946   2.54102
 Alpha virt. eigenvalues --    2.57089   2.58530   2.60225   2.63992   2.65828
 Alpha virt. eigenvalues --    2.67099   2.67415   2.67976   2.68954   2.70781
 Alpha virt. eigenvalues --    2.71139   2.72246   2.73252   2.75965   2.76971
 Alpha virt. eigenvalues --    2.79644   2.80555   2.81191   2.84021   2.86121
 Alpha virt. eigenvalues --    2.86608   2.87785   2.90264   2.91320   2.92532
 Alpha virt. eigenvalues --    2.93689   2.94093   2.96720   2.97690   2.98092
 Alpha virt. eigenvalues --    2.98597   3.00645   3.02980   3.04799   3.23472
 Alpha virt. eigenvalues --    3.25043   3.25769   3.29345   3.29868   3.30829
 Alpha virt. eigenvalues --    3.32486   3.33459   3.34389   3.35448   3.37558
 Alpha virt. eigenvalues --    3.40848   3.43061   3.45003   3.47622   3.50609
 Alpha virt. eigenvalues --    3.54604   3.55470   3.56363   3.59156   3.86720
 Alpha virt. eigenvalues --    3.93818   4.01131   4.07034   4.14151   4.35466
 Alpha virt. eigenvalues --    4.38975   4.39056   4.43648   4.60982   4.63546
 Alpha virt. eigenvalues --    4.66333   4.67018
          Condensed to atoms (all electrons):
               1          2          3          4          5          6
     1  N    6.806873   0.283880  -0.046130   0.001910  -0.004103  -0.002103
     2  C    0.283880   4.909299   0.345074  -0.052968  -0.002646   0.001378
     3  C   -0.046130   0.345074   4.745301   0.259873  -0.033610   0.001640
     4  O    0.001910  -0.052968   0.259873   8.252835   0.228747  -0.043211
     5  C   -0.004103  -0.002646  -0.033610   0.228747   4.821249   0.349201
     6  C   -0.002103   0.001378   0.001640  -0.043211   0.349201   4.815361
     7  O    0.000050  -0.000051   0.000119   0.000617  -0.041473   0.230401
     8  C    0.000001  -0.000001  -0.000005   0.000042  -0.009398  -0.034326
     9  C   -0.000000  -0.000000   0.000000  -0.000002  -0.000003  -0.007581
    10  O    0.000000   0.000000  -0.000000   0.000000   0.000004   0.000078
    11  C    0.000000  -0.000000   0.000000   0.000000  -0.000000  -0.000003
    12  C    0.000000  -0.000000  -0.000000   0.000000  -0.000000   0.000000
    13  N   -0.000000  -0.000000   0.000000   0.000000  -0.000000  -0.000000
    14  H    0.339215  -0.032288   0.005280  -0.000117   0.000052   0.000128
    15  H    0.338813  -0.037096  -0.005131  -0.000123  -0.000007   0.000034
    16  H   -0.052327   0.367142  -0.037331   0.003653  -0.000083  -0.000061
    17  H   -0.044166   0.379124  -0.029648   0.001060  -0.002031   0.000780
    18  H    0.003831  -0.041537   0.384185  -0.035429   0.005567  -0.000288
    19  H   -0.006740  -0.051524   0.369579  -0.035441  -0.013627  -0.000523
    20  H    0.000258  -0.000341   0.002329  -0.040814   0.378290  -0.049102
    21  H    0.009965  -0.002365  -0.009639  -0.027191   0.344176  -0.032804
    22  H    0.000006  -0.000149  -0.000057   0.003423  -0.042952   0.342985
    23  H    0.006868  -0.001097  -0.000220  -0.002415  -0.040373   0.385016
    24  H    0.000000   0.000000  -0.000001   0.000007   0.000216   0.005338
    25  H    0.000000  -0.000000   0.000005   0.000024   0.003232  -0.005577
    26  H   -0.000000   0.000000  -0.000000   0.000000   0.000006  -0.000012
    27  H    0.000000   0.000000  -0.000000  -0.000000   0.000123   0.001694
    28  H   -0.000000   0.000000  -0.000000   0.000000   0.000000   0.000000
    29  H   -0.000000  -0.000000   0.000000  -0.000000   0.000000  -0.000002
    30  H   -0.000000   0.000000  -0.000000  -0.000000   0.000000   0.000000
    31  H    0.000000   0.000000  -0.000000  -0.000000  -0.000000   0.000000
    32  H   -0.000000   0.000000  -0.000000   0.000000  -0.000000   0.000000
    33  H    0.000000   0.000000  -0.000000  -0.000000   0.000000  -0.000000
               7          8          9         10         11         12
     1  N    0.000050   0.000001  -0.000000   0.000000   0.000000   0.000000
     2  C   -0.000051  -0.000001  -0.000000   0.000000  -0.000000  -0.000000
     3  C    0.000119  -0.000005   0.000000  -0.000000   0.000000  -0.000000
     4  O    0.000617   0.000042  -0.000002   0.000000   0.000000   0.000000
     5  C   -0.041473  -0.009398  -0.000003   0.000004  -0.000000  -0.000000
     6  C    0.230401  -0.034326  -0.007581   0.000078  -0.000003   0.000000
     7  O    8.262531   0.229935  -0.037891   0.001173  -0.000043   0.000000
     8  C    0.229935   4.788804   0.358411  -0.032877   0.003303   0.000058
     9  C   -0.037891   0.358411   4.813766   0.208369  -0.028819  -0.006853
    10  O    0.001173  -0.032877   0.208369   8.296148   0.207309  -0.038691
    11  C   -0.000043   0.003303  -0.028819   0.207309   4.832701   0.353134
    12  C    0.000000   0.000058  -0.006853  -0.038691   0.353134   4.897611
    13  N   -0.000000  -0.000000   0.000159   0.003057  -0.054734   0.292637
    14  H   -0.000001  -0.000000   0.000000  -0.000000  -0.000000  -0.000000
    15  H   -0.000001   0.000000   0.000000  -0.000000  -0.000000   0.000000
    16  H    0.000000   0.000000  -0.000000   0.000000  -0.000000   0.000000
    17  H   -0.000044   0.000001   0.000000  -0.000000   0.000000   0.000000
    18  H    0.000008   0.000000  -0.000000  -0.000000   0.000000   0.000000
    19  H   -0.000005   0.000000  -0.000000   0.000000  -0.000000   0.000000
    20  H   -0.004897   0.001885   0.000058  -0.000001  -0.000000  -0.000000
    21  H    0.003206   0.000315   0.000003  -0.000000   0.000000   0.000000
    22  H   -0.036983  -0.004126   0.002577  -0.000240   0.000006   0.000000
    23  H   -0.034551   0.005102   0.000166  -0.000000  -0.000000  -0.000000
    24  H   -0.032036   0.382359  -0.046096   0.005094  -0.000219  -0.000018
    25  H   -0.030768   0.360880  -0.047734   0.006578   0.000103   0.000009
    26  H    0.004566  -0.037209   0.362188  -0.041680   0.000374   0.003313
    27  H    0.001165  -0.038767   0.370958  -0.036200  -0.010899  -0.001129
    28  H    0.000001  -0.000189   0.004971  -0.031253   0.381561  -0.047974
    29  H    0.000004   0.000023  -0.011410  -0.030441   0.362321  -0.051112
    30  H    0.000001  -0.000096   0.001672   0.001138  -0.045041   0.385873
    31  H    0.000000  -0.000048  -0.000189   0.005084  -0.044719   0.380765
    32  H    0.000000  -0.000000  -0.000004   0.000014  -0.003379  -0.045903
    33  H    0.000000   0.000000   0.000009   0.000046  -0.002913  -0.047129
              13         14         15         16         17         18
     1  N   -0.000000   0.339215   0.338813  -0.052327  -0.044166   0.003831
     2  C   -0.000000  -0.032288  -0.037096   0.367142   0.379124  -0.041537
     3  C    0.000000   0.005280  -0.005131  -0.037331  -0.029648   0.384185
     4  O    0.000000  -0.000117  -0.000123   0.003653   0.001060  -0.035429
     5  C   -0.000000   0.000052  -0.000007  -0.000083  -0.002031   0.005567
     6  C   -0.000000   0.000128   0.000034  -0.000061   0.000780  -0.000288
     7  O   -0.000000  -0.000001  -0.000001   0.000000  -0.000044   0.000008
     8  C   -0.000000  -0.000000   0.000000   0.000000   0.000001   0.000000
     9  C    0.000159   0.000000   0.000000  -0.000000   0.000000  -0.000000
    10  O    0.003057  -0.000000  -0.000000   0.000000  -0.000000  -0.000000
    11  C   -0.054734  -0.000000  -0.000000  -0.000000   0.000000   0.000000
    12  C    0.292637  -0.000000   0.000000   0.000000   0.000000   0.000000
    13  N    6.760875   0.000000  -0.000000   0.000000   0.000000  -0.000000
    14  H    0.000000   0.472843  -0.031303  -0.004354  -0.003882  -0.000254
    15  H   -0.000000  -0.031303   0.476554  -0.005439   0.006436  -0.000152
    16  H    0.000000  -0.004354  -0.005439   0.677137  -0.040112  -0.000835
    17  H    0.000000  -0.003882   0.006436  -0.040112   0.612914  -0.001794
    18  H   -0.000000  -0.000254  -0.000152  -0.000835  -0.001794   0.618063
    19  H    0.000000  -0.000003   0.004971   0.001850   0.005584  -0.038207
    20  H    0.000000  -0.000005  -0.000013   0.000018  -0.000008  -0.000217
    21  H    0.000000  -0.000037  -0.000024   0.000143   0.000430   0.000215
    22  H    0.000000  -0.000024   0.000009   0.000001   0.000080   0.000008
    23  H    0.000000  -0.000169  -0.000086   0.000232   0.000562  -0.000034
    24  H    0.000000  -0.000000  -0.000000   0.000000  -0.000000   0.000000
    25  H   -0.000000  -0.000000  -0.000000   0.000000  -0.000000  -0.000000
    26  H   -0.000326   0.000000  -0.000000  -0.000000  -0.000000   0.000000
    27  H    0.000041  -0.000000  -0.000000   0.000000  -0.000000   0.000000
    28  H    0.002785   0.000000   0.000000  -0.000000  -0.000000  -0.000000
    29  H    0.004272   0.000000   0.000000  -0.000000   0.000000  -0.000000
    30  H   -0.034226   0.000000   0.000000  -0.000000   0.000000  -0.000000
    31  H   -0.032325   0.000000  -0.000000  -0.000000  -0.000000  -0.000000
    32  H    0.347900   0.000000   0.000000  -0.000000  -0.000000  -0.000000
    33  H    0.347663  -0.000000   0.000000   0.000000   0.000000  -0.000000
              19         20         21         22         23         24
     1  N   -0.006740   0.000258   0.009965   0.000006   0.006868   0.000000
     2  C   -0.051524  -0.000341  -0.002365  -0.000149  -0.001097   0.000000
     3  C    0.369579   0.002329  -0.009639  -0.000057  -0.000220  -0.000001
     4  O   -0.035441  -0.040814  -0.027191   0.003423  -0.002415   0.000007
     5  C   -0.013627   0.378290   0.344176  -0.042952  -0.040373   0.000216
     6  C   -0.000523  -0.049102  -0.032804   0.342985   0.385016   0.005338
     7  O   -0.000005  -0.004897   0.003206  -0.036983  -0.034551  -0.032036
     8  C    0.000000   0.001885   0.000315  -0.004126   0.005102   0.382359
     9  C   -0.000000   0.000058   0.000003   0.002577   0.000166  -0.046096
    10  O    0.000000  -0.000001  -0.000000  -0.000240  -0.000000   0.005094
    11  C   -0.000000  -0.000000   0.000000   0.000006  -0.000000  -0.000219
    12  C    0.000000  -0.000000   0.000000   0.000000  -0.000000  -0.000018
    13  N    0.000000   0.000000   0.000000   0.000000   0.000000   0.000000
    14  H   -0.000003  -0.000005  -0.000037  -0.000024  -0.000169  -0.000000
    15  H    0.004971  -0.000013  -0.000024   0.000009  -0.000086  -0.000000
    16  H    0.001850   0.000018   0.000143   0.000001   0.000232   0.000000
    17  H    0.005584  -0.000008   0.000430   0.000080   0.000562  -0.000000
    18  H   -0.038207  -0.000217   0.000215   0.000008  -0.000034   0.000000
    19  H    0.654390   0.001269   0.009264   0.000058   0.000091   0.000000
    20  H    0.001269   0.636273  -0.034492   0.000978   0.005099  -0.000195
    21  H    0.009264  -0.034492   0.630420   0.003205   0.000385   0.000001
    22  H    0.000058   0.000978   0.003205   0.666755  -0.032427  -0.000169
    23  H    0.000091   0.005099   0.000385  -0.032427   0.590013  -0.000284
    24  H    0.000000  -0.000195   0.000001  -0.000169  -0.000284   0.620838
    25  H   -0.000000   0.003917  -0.000660   0.000919  -0.000057  -0.042823
    26  H   -0.000000  -0.000003  -0.000000  -0.000060  -0.000019  -0.009964
    27  H    0.000000   0.000027  -0.000006   0.002622  -0.000206   0.006547
    28  H    0.000000   0.000000  -0.000000  -0.000001   0.000000   0.000017
    29  H   -0.000000   0.000000   0.000000   0.000003   0.000000   0.000040
    30  H    0.000000   0.000000  -0.000000  -0.000000   0.000000   0.000030
    31  H   -0.000000   0.000000   0.000000  -0.000000   0.000000   0.000025
    32  H   -0.000000   0.000000  -0.000000  -0.000000   0.000000   0.000000
    33  H    0.000000   0.000000  -0.000000   0.000000  -0.000000   0.000000
              25         26         27         28         29         30
     1  N    0.000000  -0.000000   0.000000  -0.000000  -0.000000  -0.000000
     2  C   -0.000000   0.000000   0.000000   0.000000  -0.000000   0.000000
     3  C    0.000005  -0.000000  -0.000000  -0.000000   0.000000  -0.000000
     4  O    0.000024   0.000000  -0.000000   0.000000  -0.000000  -0.000000
     5  C    0.003232   0.000006   0.000123   0.000000   0.000000   0.000000
     6  C   -0.005577  -0.000012   0.001694   0.000000  -0.000002   0.000000
     7  O   -0.030768   0.004566   0.001165   0.000001   0.000004   0.000001
     8  C    0.360880  -0.037209  -0.038767  -0.000189   0.000023  -0.000096
     9  C   -0.047734   0.362188   0.370958   0.004971  -0.011410   0.001672
    10  O    0.006578  -0.041680  -0.036200  -0.031253  -0.030441   0.001138
    11  C    0.000103   0.000374  -0.010899   0.381561   0.362321  -0.045041
    12  C    0.000009   0.003313  -0.001129  -0.047974  -0.051112   0.385873
    13  N   -0.000000  -0.000326   0.000041   0.002785   0.004272  -0.034226
    14  H   -0.000000   0.000000  -0.000000   0.000000   0.000000   0.000000
    15  H   -0.000000  -0.000000  -0.000000   0.000000   0.000000   0.000000
    16  H    0.000000  -0.000000   0.000000  -0.000000  -0.000000  -0.000000
    17  H   -0.000000  -0.000000  -0.000000  -0.000000   0.000000   0.000000
    18  H   -0.000000   0.000000   0.000000  -0.000000  -0.000000  -0.000000
    19  H   -0.000000  -0.000000   0.000000   0.000000  -0.000000   0.000000
    20  H    0.003917  -0.000003   0.000027   0.000000   0.000000   0.000000
    21  H   -0.000660  -0.000000  -0.000006  -0.000000   0.000000  -0.000000
    22  H    0.000919  -0.000060   0.002622  -0.000001   0.000003  -0.000000
    23  H   -0.000057  -0.000019  -0.000206   0.000000   0.000000   0.000000
    24  H   -0.042823  -0.009964   0.006547   0.000017   0.000040   0.000030
    25  H    0.649603   0.007160  -0.008120  -0.000010  -0.000026  -0.000004
    26  H    0.007160   0.672404  -0.058761  -0.000305  -0.002040   0.000506
    27  H   -0.008120  -0.058761   0.660270   0.000277   0.013785   0.000307
    28  H   -0.000010  -0.000305   0.000277   0.623522  -0.040335   0.005790
    29  H   -0.000026  -0.002040   0.013785  -0.040335   0.656470  -0.006255
    30  H   -0.000004   0.000506   0.000307   0.005790  -0.006255   0.615349
    31  H    0.000002  -0.000016   0.000131  -0.006066   0.006245  -0.038430
    32  H    0.000000   0.000006   0.000007  -0.000464   0.005026  -0.004899
    33  H   -0.000000  -0.000006   0.000002   0.005740  -0.000383   0.006386
              31         32         33
     1  N    0.000000  -0.000000   0.000000
     2  C    0.000000   0.000000   0.000000
     3  C   -0.000000  -0.000000  -0.000000
     4  O   -0.000000   0.000000  -0.000000
     5  C   -0.000000  -0.000000   0.000000
     6  C    0.000000   0.000000  -0.000000
     7  O    0.000000   0.000000   0.000000
     8  C   -0.000048  -0.000000   0.000000
     9  C   -0.000189  -0.000004   0.000009
    10  O    0.005084   0.000014   0.000046
    11  C   -0.044719  -0.003379  -0.002913
    12  C    0.380765  -0.045903  -0.047129
    13  N   -0.032325   0.347900   0.347663
    14  H    0.000000   0.000000  -0.000000
    15  H   -0.000000   0.000000   0.000000
    16  H   -0.000000  -0.000000   0.000000
    17  H   -0.000000  -0.000000   0.000000
    18  H   -0.000000  -0.000000  -0.000000
    19  H   -0.000000  -0.000000   0.000000
    20  H    0.000000   0.000000   0.000000
    21  H    0.000000  -0.000000  -0.000000
    22  H   -0.000000  -0.000000   0.000000
    23  H    0.000000   0.000000  -0.000000
    24  H    0.000025   0.000000   0.000000
    25  H    0.000002   0.000000  -0.000000
    26  H   -0.000016   0.000006  -0.000006
    27  H    0.000131   0.000007   0.000002
    28  H   -0.006066  -0.000464   0.005740
    29  H    0.006245   0.005026  -0.000383
    30  H   -0.038430  -0.004899   0.006386
    31  H    0.616483   0.006305  -0.005790
    32  H    0.006305   0.473685  -0.033256
    33  H   -0.005790  -0.033256   0.475024
 Mulliken charges:
               1
     1  N   -0.636102
     2  C   -0.063833
     3  C    0.048386
     4  O   -0.514479
     5  C    0.059444
     6  C    0.041557
     7  O   -0.515034
     8  C    0.025922
     9  C    0.063274
    10  O   -0.522708
    11  C    0.049959
    12  C   -0.074591
    13  N   -0.637777
    14  H    0.254919
    15  H    0.252557
    16  H    0.090366
    17  H    0.114714
    18  H    0.106871
    19  H    0.099015
    20  H    0.099686
    21  H    0.105490
    22  H    0.093554
    23  H    0.118403
    24  H    0.111296
    25  H    0.103347
    26  H    0.099877
    27  H    0.096131
    28  H    0.101932
    29  H    0.093814
    30  H    0.111901
    31  H    0.112541
    32  H    0.254962
    33  H    0.254607
 Sum of Mulliken charges =  -0.00000
 Mulliken charges with hydrogens summed into heavy atoms:
               1
     1  N   -0.128626
     2  C    0.141247
     3  C    0.254272
     4  O   -0.514479
     5  C    0.264620
     6  C    0.253513
     7  O   -0.515034
     8  C    0.240565
     9  C    0.259282
    10  O   -0.522708
    11  C    0.245705
    12  C    0.149852
    13  N   -0.128208
 APT charges:
               1
     1  N   -1.679440
     2  C   -0.846989
     3  C   -1.022541
     4  O   -0.427818
     5  C   -0.437353
     6  C   -0.469965
     7  O   -0.428597
     8  C   -0.635359
     9  C   -0.281839
    10  O   -0.448760
    11  C   -0.668819
    12  C   -0.366244
    13  N   -1.289689
    14  H    0.770751
    15  H    0.901185
    16  H    0.845195
    17  H    0.046034
    18  H    0.755540
    19  H    0.489659
    20  H    0.275701
    21  H    0.421596
    22  H    0.208766
    23  H    0.404220
    24  H    0.460016
    25  H    0.285657
    26  H    0.368943
    27  H    0.199452
    28  H    0.669269
    29  H    0.173075
    30  H    0.035053
    31  H    0.446735
    32  H    0.368698
    33  H    0.877866
 Sum of APT charges =  -0.00000
 APT charges with hydrogens summed into heavy atoms:
               1
     1  N   -0.007504
     2  C    0.044239
     3  C    0.222658
     4  O   -0.427818
     5  C    0.259944
     6  C    0.143022
     7  O   -0.428597
     8  C    0.110314
     9  C    0.286556
    10  O   -0.448760
    11  C    0.173526
    12  C    0.115544
    13  N   -0.043126
 Electronic spatial extent (au):  <R**2>=           5882.2440
 Charge=              0.0000 electrons
 Dipole moment (field-independent basis, Debye):
    X=             -2.6598    Y=              3.3999    Z=              3.1831  Tot=              5.3634
 Quadrupole moment (field-independent basis, Debye-Ang):
   XX=            -61.8157   YY=            -78.4160   ZZ=            -82.3564
   XY=             -5.8518   XZ=              5.8260   YZ=              0.1189
 Traceless Quadrupole moment (field-independent basis, Debye-Ang):
   XX=             12.3803   YY=             -4.2199   ZZ=             -8.1604
   XY=             -5.8518   XZ=              5.8260   YZ=              0.1189
 Octapole moment (field-independent basis, Debye-Ang**2):
  XXX=           -168.5583  YYY=             17.8559  ZZZ=              4.7797  XYY=             -5.7995
  XXY=             46.5155  XXZ=             88.4590  XZZ=            -14.2528  YZZ=              0.3480
  YYZ=              0.2550  XYZ=             16.7900
 Hexadecapole moment (field-independent basis, Debye-Ang**3):
 XXXX=          -6376.9905 YYYY=           -432.7117 ZZZZ=           -262.1131 XXXY=           -239.8562
 XXXZ=            467.7320 YYYX=            -45.4930 YYYZ=              2.4510 ZZZX=              5.3041
 ZZZY=              4.3612 XXYY=          -1093.8860 XXZZ=          -1194.9404 YYZZ=           -122.4775
 XXYZ=             80.9684 YYXZ=              6.1893 ZZXY=            -16.8661
 N-N= 8.294803142824D+02 E-N=-3.180397712438D+03  KE= 6.460768477633D+02
  Exact polarizability:   0.000   0.000   0.000   0.000   0.000   0.000
 Approx polarizability: 156.019  -3.032 144.408   3.969   1.360 140.682
 D2PCM: PCM CHGder 2nd derivatives, FixD1E=F FixD2E=F DoIter=F DoCFld=F I1PDM=0
 Calling FoFJK, ICntrl=    100147 FMM=F ISym2X=0 I1Cent= 0 IOpClX= 0 NMat=1 NMatS=1 NMatT=0.
 ***** Axes restored to original set *****
 -------------------------------------------------------------------
 Center     Atomic                   Forces (Hartrees/Bohr)
 Number     Number              X              Y              Z
 -------------------------------------------------------------------
      1        7          -0.010543407    0.000688990   -0.003842665
      2        6           0.009909185    0.001084051   -0.011448204
      3        6          -0.003632039    0.006479006    0.010311451
      4        8           0.004080480   -0.000412024   -0.004751389
      5        6          -0.001959039    0.001020893    0.004142994
      6        6           0.000479000   -0.003288156    0.001724213
      7        8          -0.002055679   -0.001599102   -0.001712807
      8        6          -0.001856373   -0.002476889    0.005020815
      9        6          -0.002747372   -0.002049476   -0.001733865
     10        8           0.005429897    0.000075391   -0.001129722
     11        6           0.001678556   -0.007184762    0.006574204
     12        6          -0.000259780    0.002705007   -0.004485146
     13        7          -0.004321628    0.001389748    0.002927154
     14        1          -0.000150266   -0.002412889   -0.000938391
     15        1          -0.000062221    0.001100519    0.001645632
     16        1           0.005259721   -0.003479542    0.009827337
     17        1           0.000451328   -0.002530870    0.001075679
     18        1          -0.001606874   -0.000489562    0.001028673
     19        1           0.000422846    0.002281824   -0.003990590
     20        1          -0.003852042   -0.001178494   -0.001017516
     21        1           0.000100177    0.002742088    0.000891245
     22        1          -0.000033170   -0.000345683   -0.003100283
     23        1           0.000951323   -0.001130361   -0.001709744
     24        1           0.001035568    0.000903134    0.000899994
     25        1          -0.000466529    0.001145938   -0.002996138
     26        1           0.001746971    0.001623460    0.001737333
     27        1           0.001240458    0.002639798   -0.002470013
     28        1           0.000169842   -0.001137877    0.000348432
     29        1           0.000042548    0.003510665   -0.000210043
     30        1           0.000028304    0.001420282   -0.000274589
     31        1          -0.000488931   -0.001411962   -0.001969190
     32        1          -0.000037149   -0.001064325    0.000109169
     33        1           0.001046294    0.001381178   -0.000484032
 -------------------------------------------------------------------
 Cartesian Forces:  Max     0.011448204 RMS     0.003365668
 FormGI is forming the generalized inverse of G from B-inverse, IUseBI=4.

 GradGradGradGradGradGradGradGradGradGradGradGradGradGradGradGradGradGrad
 Berny optimization.
 Internal  Forces:  Max     0.010156793 RMS     0.002535739
 Search for a local minimum.
 Step number   1 out of a maximum of  165
 All quantities printed in internal units (Hartrees-Bohrs-Radians)
 Mixed Optimization -- RFO/linear search
 Second derivative matrix not updated -- analytic derivatives used.
 ITU=  0
     Eigenvalues ---   -0.00059  -0.00016   0.00167   0.00226   0.00242
     Eigenvalues ---    0.00272   0.00319   0.00323   0.00482   0.00649
     Eigenvalues ---    0.00732   0.00822   0.03239   0.03343   0.04351
     Eigenvalues ---    0.04446   0.04493   0.04529   0.04621   0.04695
     Eigenvalues ---    0.04783   0.04851   0.04986   0.04997   0.05488
     Eigenvalues ---    0.05916   0.06063   0.06194   0.06385   0.06647
     Eigenvalues ---    0.08232   0.08360   0.09525   0.09786   0.09887
     Eigenvalues ---    0.09991   0.10216   0.10605   0.11416   0.11797
     Eigenvalues ---    0.12122   0.12669   0.13109   0.13336   0.14405
     Eigenvalues ---    0.14656   0.14931   0.15139   0.16501   0.17057
     Eigenvalues ---    0.17746   0.18758   0.21185   0.21863   0.22911
     Eigenvalues ---    0.23248   0.23734   0.24232   0.24919   0.25363
     Eigenvalues ---    0.25688   0.26606   0.27172   0.27904   0.28004
     Eigenvalues ---    0.31181   0.31650   0.32049   0.32295   0.32754
     Eigenvalues ---    0.32921   0.32981   0.33060   0.33246   0.33292
     Eigenvalues ---    0.33482   0.33516   0.33693   0.33839   0.34128
     Eigenvalues ---    0.34284   0.35297   0.35795   0.36133   0.36604
     Eigenvalues ---    0.37338   0.40537   0.41619   0.43669   0.43931
     Eigenvalues ---    0.44006   0.44083   0.44293
 RFO step:  Lambda=-7.19758416D-03 EMin=-5.94748508D-04
 Linear search not attempted -- first point.
 Iteration  1 RMS(Cart)=  0.27984744 RMS(Int)=  0.05508102
 Iteration  2 RMS(Cart)=  0.20572623 RMS(Int)=  0.02364967
 Iteration  3 RMS(Cart)=  0.14071720 RMS(Int)=  0.00344621
 Iteration  4 RMS(Cart)=  0.00672878 RMS(Int)=  0.00022504
 Iteration  5 RMS(Cart)=  0.00001731 RMS(Int)=  0.00022482
 Iteration  6 RMS(Cart)=  0.00000000 RMS(Int)=  0.00022482
 Variable       Old X    -DE/DX   Delta X   Delta X   Delta X     New X
                                 (Linear)    (Quad)   (Total)
    R1        2.77630   0.00590   0.00000  -0.00745  -0.00745   2.76885
    R2        1.92798  -0.00240   0.00000  -0.00560  -0.00560   1.92237
    R3        1.92709  -0.00162   0.00000  -0.00214  -0.00214   1.92495
    R4        2.90578  -0.00479   0.00000  -0.02165  -0.02165   2.88412
    R5        2.07017   0.00519   0.00000   0.01569   0.01569   2.08587
    R6        2.06894  -0.00059   0.00000   0.00249   0.00249   2.07143
    R7        2.69773  -0.00014   0.00000  -0.00903  -0.00903   2.68871
    R8        2.07093  -0.00010   0.00000  -0.00004  -0.00004   2.07089
    R9        2.07269   0.00234   0.00000   0.01002   0.01002   2.08271
   R10        2.70361   0.00197   0.00000  -0.01620  -0.01620   2.68741
   R11        2.89837  -0.00517   0.00000  -0.01638  -0.01638   2.88200
   R12        2.06756   0.00282   0.00000   0.00466   0.00466   2.07221
   R13        2.06937  -0.00038   0.00000   0.01498   0.01498   2.08435
   R14        2.71040   0.00003   0.00000  -0.00543  -0.00543   2.70497
   R15        2.06971   0.00245   0.00000   0.01043   0.01043   2.08014
   R16        2.06543  -0.00093   0.00000  -0.01146  -0.01146   2.05397
   R17        2.69538  -0.00302   0.00000  -0.01180  -0.01180   2.68358
   R18        2.88778  -0.00148   0.00000  -0.00109  -0.00109   2.88669
   R19        2.07092   0.00001   0.00000  -0.00027  -0.00027   2.07064
   R20        2.07109   0.00129   0.00000   0.00458   0.00458   2.07566
   R21        2.69766  -0.00264   0.00000  -0.01234  -0.01234   2.68532
   R22        2.06962   0.00187   0.00000   0.00678   0.00678   2.07640
   R23        2.07047   0.00375   0.00000   0.01117   0.01117   2.08164
   R24        2.69874   0.00088   0.00000  -0.00559  -0.00559   2.69315
   R25        2.90265   0.00028   0.00000   0.00104   0.00104   2.90369
   R26        2.07102   0.00047   0.00000   0.00106   0.00106   2.07208
   R27        2.07249   0.00273   0.00000   0.00967   0.00967   2.08216
   R28        2.76451   0.00296   0.00000   0.00744   0.00744   2.77195
   R29        2.06851   0.00085   0.00000   0.00225   0.00225   2.07076
   R30        2.07090  -0.00015   0.00000   0.00066   0.00066   2.07157
   R31        1.92573  -0.00086   0.00000  -0.00032  -0.00032   1.92540
   R32        1.92699  -0.00132   0.00000  -0.00171  -0.00171   1.92528
    A1        1.89634   0.00139   0.00000   0.01266   0.01265   1.90899
    A2        1.90684  -0.00131   0.00000   0.00107   0.00106   1.90790
    A3        1.84955  -0.00055   0.00000  -0.00453  -0.00455   1.84500
    A4        1.97808  -0.00429   0.00000  -0.02091  -0.02126   1.95682
    A5        1.87831   0.01016   0.00000   0.09799   0.09803   1.97634
    A6        1.89860   0.00064   0.00000  -0.00645  -0.00758   1.89102
    A7        1.90154  -0.00398   0.00000  -0.02277  -0.02315   1.87840
    A8        1.91877  -0.00099   0.00000  -0.03155  -0.03238   1.88639
    A9        1.88607  -0.00122   0.00000  -0.01364  -0.01493   1.87114
   A10        1.98491   0.00794   0.00000   0.03405   0.03404   2.01895
   A11        1.88088  -0.00051   0.00000   0.00395   0.00375   1.88463
   A12        1.95827  -0.00559   0.00000  -0.03779  -0.03764   1.92064
   A13        1.84530  -0.00283   0.00000  -0.00355  -0.00385   1.84144
   A14        1.92757  -0.00145   0.00000  -0.01198  -0.01173   1.91584
   A15        1.85816   0.00233   0.00000   0.01728   0.01729   1.87544
   A16        1.99861   0.00803   0.00000   0.04607   0.04607   2.04468
   A17        1.93845   0.00376   0.00000   0.07524   0.07508   2.01353
   A18        1.85189   0.00094   0.00000  -0.02635  -0.02629   1.82560
   A19        1.94621  -0.00088   0.00000  -0.01007  -0.01051   1.93570
   A20        1.92102  -0.00267   0.00000  -0.01506  -0.01501   1.90602
   A21        1.93278  -0.00303   0.00000  -0.01642  -0.01693   1.91584
   A22        1.87053   0.00193   0.00000  -0.01121  -0.01171   1.85882
   A23        1.95612   0.00122   0.00000   0.00241   0.00247   1.95859
   A24        1.92843  -0.00171   0.00000  -0.03205  -0.03230   1.89613
   A25        1.92280  -0.00199   0.00000  -0.01513  -0.01549   1.90731
   A26        1.92193   0.00140   0.00000   0.01905   0.01899   1.94091
   A27        1.84901   0.00048   0.00000   0.03817   0.03814   1.88715
   A28        1.88264   0.00067   0.00000  -0.01015  -0.01109   1.87154
   A29        1.98848   0.00373   0.00000   0.02756   0.02756   2.01604
   A30        1.93760  -0.00094   0.00000  -0.00780  -0.00788   1.92971
   A31        1.87703  -0.00068   0.00000  -0.00140  -0.00139   1.87564
   A32        1.95409   0.00117   0.00000   0.00375   0.00355   1.95764
   A33        1.89989   0.00157   0.00000   0.00558   0.00562   1.90551
   A34        1.93823  -0.00220   0.00000  -0.01877  -0.01882   1.91942
   A35        1.85325   0.00127   0.00000   0.02068   0.02072   1.87397
   A36        1.90672  -0.00707   0.00000  -0.02607  -0.02606   1.88066
   A37        1.90711  -0.00002   0.00000  -0.00757  -0.00750   1.89961
   A38        1.92423   0.00158   0.00000   0.00269   0.00276   1.92699
   A39        1.93279   0.00378   0.00000   0.01959   0.01941   1.95220
   A40        1.91389   0.00258   0.00000   0.01455   0.01448   1.92837
   A41        1.87906  -0.00070   0.00000  -0.00268  -0.00281   1.87625
   A42        1.97580   0.00479   0.00000   0.02038   0.02038   1.99618
   A43        1.95678   0.00751   0.00000   0.02702   0.02706   1.98384
   A44        1.85664  -0.00267   0.00000  -0.00757  -0.00766   1.84898
   A45        1.92725  -0.00159   0.00000  -0.00175  -0.00157   1.92567
   A46        1.90407  -0.00125   0.00000   0.00025   0.00017   1.90424
   A47        1.94551  -0.00392   0.00000  -0.02617  -0.02613   1.91938
   A48        1.86917   0.00173   0.00000   0.00840   0.00834   1.87750
   A49        1.97229   0.00628   0.00000   0.02218   0.02223   1.99452
   A50        1.92342  -0.00098   0.00000  -0.00183  -0.00181   1.92161
   A51        1.91222  -0.00338   0.00000  -0.01631  -0.01625   1.89596
   A52        1.89476  -0.00259   0.00000  -0.01035  -0.01039   1.88437
   A53        1.90740  -0.00148   0.00000  -0.00806  -0.00798   1.89942
   A54        1.84962   0.00188   0.00000   0.01390   0.01387   1.86349
   A55        1.91803  -0.00052   0.00000  -0.00809  -0.00813   1.90990
   A56        1.91140   0.00017   0.00000  -0.00233  -0.00236   1.90904
   A57        1.85477  -0.00051   0.00000  -0.01147  -0.01154   1.84322
    D1       -3.13001  -0.00086   0.00000  -0.02461  -0.02470   3.12847
    D2       -1.02623  -0.00155   0.00000   0.00122   0.00112  -1.02511
    D3        1.01316   0.00286   0.00000   0.03481   0.03499   1.04815
    D4       -1.11967  -0.00146   0.00000  -0.02252  -0.02260  -1.14227
    D5        0.98411  -0.00215   0.00000   0.00331   0.00322   0.98733
    D6        3.02350   0.00226   0.00000   0.03691   0.03709   3.06060
    D7       -1.46054   0.00433   0.00000   0.17097   0.17076  -1.28978
    D8        2.78311   0.00355   0.00000   0.15297   0.15256   2.93567
    D9        0.74308   0.00419   0.00000   0.15084   0.15044   0.89351
   D10        2.73208  -0.00300   0.00000   0.07629   0.07677   2.80885
   D11        0.69255  -0.00377   0.00000   0.05830   0.05857   0.75112
   D12       -1.34749  -0.00314   0.00000   0.05616   0.05644  -1.29105
   D13        0.66825   0.00144   0.00000   0.12487   0.12501   0.79326
   D14       -1.37127   0.00066   0.00000   0.10688   0.10680  -1.26447
   D15        2.87187   0.00130   0.00000   0.10474   0.10468   2.97655
   D16        1.29182   0.00010   0.00000   0.17807   0.17804   1.46986
   D17       -2.93123   0.00203   0.00000   0.19944   0.19948  -2.73175
   D18       -0.92787   0.00253   0.00000   0.21198   0.21197  -0.71590
   D19       -1.92108   0.00091   0.00000   0.53104   0.53073  -1.39035
   D20        2.27473   0.00149   0.00000   0.52374   0.52404   2.79877
   D21        0.24373  -0.00091   0.00000   0.55769   0.55770   0.80143
   D22       -1.20400   0.00017   0.00000   0.13466   0.13476  -1.06924
   D23        2.92863  -0.00126   0.00000   0.13170   0.13196   3.06059
   D24        0.85011   0.00024   0.00000   0.17397   0.17380   1.02391
   D25        0.84161   0.00196   0.00000   0.13863   0.13857   0.98018
   D26       -1.30894   0.00053   0.00000   0.13567   0.13577  -1.17318
   D27        2.89572   0.00203   0.00000   0.17794   0.17761   3.07333
   D28        2.90676   0.00080   0.00000   0.10517   0.10523   3.01199
   D29        0.75620  -0.00063   0.00000   0.10221   0.10244   0.85864
   D30       -1.32233   0.00087   0.00000   0.14448   0.14428  -1.17805
   D31       -1.46273  -0.00071   0.00000  -0.04702  -0.04687  -1.50960
   D32        0.69149  -0.00103   0.00000  -0.07280  -0.07306   0.61843
   D33        2.72283   0.00072   0.00000  -0.05420  -0.05409   2.66874
   D34       -1.55832   0.00106   0.00000  -0.02393  -0.02390  -1.58222
   D35        2.64818   0.00011   0.00000  -0.02538  -0.02536   2.62282
   D36        0.61880  -0.00166   0.00000  -0.05165  -0.05170   0.56711
   D37        3.12349  -0.00021   0.00000   0.04434   0.04436  -3.11533
   D38       -1.04272   0.00003   0.00000   0.04750   0.04761  -0.99510
   D39        1.01913   0.00010   0.00000   0.04125   0.04129   1.06043
   D40       -1.09680  -0.00064   0.00000   0.04146   0.04143  -1.05537
   D41        1.02017  -0.00039   0.00000   0.04462   0.04468   1.06485
   D42        3.08202  -0.00032   0.00000   0.03836   0.03836   3.12039
   D43        0.93745   0.00059   0.00000   0.05917   0.05906   0.99651
   D44        3.05442   0.00083   0.00000   0.06233   0.06231   3.11674
   D45       -1.16691   0.00091   0.00000   0.05608   0.05599  -1.11092
   D46       -3.12913  -0.00027   0.00000   0.00915   0.00910  -3.12002
   D47        1.05274   0.00194   0.00000   0.02303   0.02326   1.07600
[...]
    21    C    2  px     Ryd( 3p)     0.00328
    22    C    2  py     Val( 2p)     0.96504
    23    C    2  py     Ryd( 3p)     0.00165
    24    C    2  pz     Val( 2p)     1.10120
    25    C    2  pz     Ryd( 3p)     0.00127
    26    C    2  dxy    Ryd( 3d)     0.00073
    27    C    2  dxz    Ryd( 3d)     0.00076
    28    C    2  dyz    Ryd( 3d)     0.00097
    29    C    2  dx2y2  Ryd( 3d)     0.00138
    30    C    2  dz2    Ryd( 3d)     0.00103

    31    C    3  S      Cor( 1S)     1.99925
    32    C    3  S      Val( 2S)     1.02516
    33    C    3  S      Ryd( 3S)     0.00205
    34    C    3  S      Ryd( 4S)     0.00005
    35    C    3  px     Val( 2p)     0.77602
    36    C    3  px     Ryd( 3p)     0.00348
    37    C    3  py     Val( 2p)     1.08356
    38    C    3  py     Ryd( 3p)     0.00325
    39    C    3  pz     Val( 2p)     1.21345
    40    C    3  pz     Ryd( 3p)     0.00404
    41    C    3  dxy    Ryd( 3d)     0.00180
    42    C    3  dxz    Ryd( 3d)     0.00129
    43    C    3  dyz    Ryd( 3d)     0.00059
    44    C    3  dx2y2  Ryd( 3d)     0.00157
    45    C    3  dz2    Ryd( 3d)     0.00108

    46    O    4  S      Cor( 1S)     1.99979
    47    O    4  S      Val( 2S)     1.61286
    48    O    4  S      Ryd( 3S)     0.00149
    49    O    4  S      Ryd( 4S)     0.00003
    50    O    4  px     Val( 2p)     1.39917
    51    O    4  px     Ryd( 3p)     0.00141
    52    O    4  py     Val( 2p)     1.87941
    53    O    4  py     Ryd( 3p)     0.00324
    54    O    4  pz     Val( 2p)     1.70214
    55    O    4  pz     Ryd( 3p)     0.00205
    56    O    4  dxy    Ryd( 3d)     0.00059
    57    O    4  dxz    Ryd( 3d)     0.00104
    58    O    4  dyz    Ryd( 3d)     0.00122
    59    O    4  dx2y2  Ryd( 3d)     0.00069
    60    O    4  dz2    Ryd( 3d)     0.00124

    61    C    5  S      Cor( 1S)     1.99924
    62    C    5  S      Val( 2S)     1.03110
    63    C    5  S      Ryd( 3S)     0.00225
    64    C    5  S      Ryd( 4S)     0.00005
    65    C    5  px     Val( 2p)     0.98426
    66    C    5  px     Ryd( 3p)     0.00327
    67    C    5  py     Val( 2p)     1.15290
    68    C    5  py     Ryd( 3p)     0.00360
    69    C    5  pz     Val( 2p)     0.94811
    70    C    5  pz     Ryd( 3p)     0.00295
    71    C    5  dxy    Ryd( 3d)     0.00146
    72    C    5  dxz    Ryd( 3d)     0.00164
    73    C    5  dyz    Ryd( 3d)     0.00113
    74    C    5  dx2y2  Ryd( 3d)     0.00077
    75    C    5  dz2    Ryd( 3d)     0.00125

    76    C    6  S      Cor( 1S)     1.99922
    77    C    6  S      Val( 2S)     1.03405
    78    C    6  S      Ryd( 3S)     0.00181
    79    C    6  S      Ryd( 4S)     0.00006
    80    C    6  px     Val( 2p)     1.01717
    81    C    6  px     Ryd( 3p)     0.00434
    82    C    6  py     Val( 2p)     1.11155
    83    C    6  py     Ryd( 3p)     0.00151
    84    C    6  pz     Val( 2p)     0.96047
    85    C    6  pz     Ryd( 3p)     0.00524
    86    C    6  dxy    Ryd( 3d)     0.00114
    87    C    6  dxz    Ryd( 3d)     0.00184
    88    C    6  dyz    Ryd( 3d)     0.00118
    89    C    6  dx2y2  Ryd( 3d)     0.00089
    90    C    6  dz2    Ryd( 3d)     0.00112

    91    O    7  S      Cor( 1S)     1.99981
    92    O    7  S      Val( 2S)     1.62136
    93    O    7  S      Ryd( 3S)     0.00159
    94    O    7  S      Ryd( 4S)     0.00004
    95    O    7  px     Val( 2p)     1.53619
    96    O    7  px     Ryd( 3p)     0.00216
    97    O    7  py     Val( 2p)     1.75393
    98    O    7  py     Ryd( 3p)     0.00224
    99    O    7  pz     Val( 2p)     1.67819
   100    O    7  pz     Ryd( 3p)     0.00182
   101    O    7  dxy    Ryd( 3d)     0.00056
   102    O    7  dxz    Ryd( 3d)     0.00129
   103    O    7  dyz    Ryd( 3d)     0.00132
   104    O    7  dx2y2  Ryd( 3d)     0.00035
   105    O    7  dz2    Ryd( 3d)     0.00147

   106    C    8  S      Cor( 1S)     1.99927
   107    C    8  S      Val( 2S)     1.03139
   108    C    8  S      Ryd( 3S)     0.00203
   109    C    8  S      Ryd( 4S)     0.00005
   110    C    8  px     Val( 2p)     0.83725
   111    C    8  px     Ryd( 3p)     0.00559
   112    C    8  py     Val( 2p)     1.03408
   113    C    8  py     Ryd( 3p)     0.00170
   114    C    8  pz     Val( 2p)     1.20924
   115    C    8  pz     Ryd( 3p)     0.00512
   116    C    8  dxy    Ryd( 3d)     0.00164
   117    C    8  dxz    Ryd( 3d)     0.00098
   118    C    8  dyz    Ryd( 3d)     0.00139
   119    C    8  dx2y2  Ryd( 3d)     0.00149
   120    C    8  dz2    Ryd( 3d)     0.00079

   121    C    9  S      Cor( 1S)     1.99927
   122    C    9  S      Val( 2S)     1.04321
   123    C    9  S      Ryd( 3S)     0.00272
   124    C    9  S      Ryd( 4S)     0.00005
   125    C    9  px     Val( 2p)     0.85090
   126    C    9  px     Ryd( 3p)     0.00303
   127    C    9  py     Val( 2p)     1.03580
   128    C    9  py     Ryd( 3p)     0.00428
   129    C    9  pz     Val( 2p)     1.20489
   130    C    9  pz     Ryd( 3p)     0.00176
   131    C    9  dxy    Ryd( 3d)     0.00174
   132    C    9  dxz    Ryd( 3d)     0.00102
   133    C    9  dyz    Ryd( 3d)     0.00153
   134    C    9  dx2y2  Ryd( 3d)     0.00098
   135    C    9  dz2    Ryd( 3d)     0.00088

   136    O   10  S      Cor( 1S)     1.99980
   137    O   10  S      Val( 2S)     1.63891
   138    O   10  S      Ryd( 3S)     0.00387
   139    O   10  S      Ryd( 4S)     0.00006
   140    O   10  px     Val( 2p)     1.38762
   141    O   10  px     Ryd( 3p)     0.00110
   142    O   10  py     Val( 2p)     1.70492
   143    O   10  py     Ryd( 3p)     0.00168
   144    O   10  pz     Val( 2p)     1.76588
   145    O   10  pz     Ryd( 3p)     0.00283
   146    O   10  dxy    Ryd( 3d)     0.00129
   147    O   10  dxz    Ryd( 3d)     0.00028
   148    O   10  dyz    Ryd( 3d)     0.00131
   149    O   10  dx2y2  Ryd( 3d)     0.00125
   150    O   10  dz2    Ryd( 3d)     0.00076

   151    C   11  S      Cor( 1S)     1.99917
   152    C   11  S      Val( 2S)     1.04692
   153    C   11  S      Ryd( 3S)     0.00207
   154    C   11  S      Ryd( 4S)     0.00006
   155    C   11  px     Val( 2p)     0.89651
   156    C   11  px     Ryd( 3p)     0.01180
   157    C   11  py     Val( 2p)     1.14525
   158    C   11  py     Ryd( 3p)     0.00773
   159    C   11  pz     Val( 2p)     1.05007
   160    C   11  pz     Ryd( 3p)     0.00248
   161    C   11  dxy    Ryd( 3d)     0.00162
   162    C   11  dxz    Ryd( 3d)     0.00146
   163    C   11  dyz    Ryd( 3d)     0.00127
   164    C   11  dx2y2  Ryd( 3d)     0.00107
   165    C   11  dz2    Ryd( 3d)     0.00080

   166    C   12  S      Cor( 1S)     1.99938
   167    C   12  S      Val( 2S)     1.05936
   168    C   12  S      Ryd( 3S)     0.00181
   169    C   12  S      Ryd( 4S)     0.00004
   170    C   12  px     Val( 2p)     0.99439
   171    C   12  px     Ryd( 3p)     0.01219
   172    C   12  py     Val( 2p)     1.19339
   173    C   12  py     Ryd( 3p)     0.00473
   174    C   12  pz     Val( 2p)     1.12735
   175    C   12  pz     Ryd( 3p)     0.00277
   176    C   12  dxy    Ryd( 3d)     0.00121
   177    C   12  dxz    Ryd( 3d)     0.00089
   178    C   12  dyz    Ryd( 3d)     0.00107
   179    C   12  dx2y2  Ryd( 3d)     0.00081
   180    C   12  dz2    Ryd( 3d)     0.00056

   181    N   13  S      Cor( 1S)     1.99942
   182    N   13  S      Val( 2S)     1.51931
   183    N   13  S      Ryd( 3S)     0.01989
   184    N   13  S      Ryd( 4S)     0.00002
   185    N   13  px     Val( 2p)     1.25677
   186    N   13  px     Ryd( 3p)     0.00034
   187    N   13  py     Val( 2p)     1.36817
   188    N   13  py     Ryd( 3p)     0.00055
   189    N   13  pz     Val( 2p)     1.33467
   190    N   13  pz     Ryd( 3p)     0.00606
   191    N   13  dxy    Ryd( 3d)     0.00051
   192    N   13  dxz    Ryd( 3d)     0.00032
   193    N   13  dyz    Ryd( 3d)     0.00075
   194    N   13  dx2y2  Ryd( 3d)     0.00036
   195    N   13  dz2    Ryd( 3d)     0.00009

   196    H   14  S      Val( 1S)     0.60157
   197    H   14  S      Ryd( 2S)     0.00114
   198    H   14  px     Ryd( 2p)     0.00057
   199    H   14  py     Ryd( 2p)     0.00052
   200    H   14  pz     Ryd( 2p)     0.00032

   201    H   15  S      Val( 1S)     0.60923
   202    H   15  S      Ryd( 2S)     0.00155
   203    H   15  px     Ryd( 2p)     0.00062
   204    H   15  py     Ryd( 2p)     0.00030
   205    H   15  pz     Ryd( 2p)     0.00050

   206    H   16  S      Val( 1S)     0.78579
   207    H   16  S      Ryd( 2S)     0.00245
   208    H   16  px     Ryd( 2p)     0.00040
   209    H   16  py     Ryd( 2p)     0.00009
   210    H   16  pz     Ryd( 2p)     0.00008

   211    H   17  S      Val( 1S)     0.76533
   212    H   17  S      Ryd( 2S)     0.00214
   213    H   17  px     Ryd( 2p)     0.00013
   214    H   17  py     Ryd( 2p)     0.00008
   215    H   17  pz     Ryd( 2p)     0.00034

   216    H   18  S      Val( 1S)     0.76912
   217    H   18  S      Ryd( 2S)     0.00129
   218    H   18  px     Ryd( 2p)     0.00013
   219    H   18  py     Ryd( 2p)     0.00025
   220    H   18  pz     Ryd( 2p)     0.00020

   221    H   19  S      Val( 1S)     0.79365
   222    H   19  S      Ryd( 2S)     0.00212
   223    H   19  px     Ryd( 2p)     0.00008
   224    H   19  py     Ryd( 2p)     0.00013
   225    H   19  pz     Ryd( 2p)     0.00038

   226    H   20  S      Val( 1S)     0.78565
   227    H   20  S      Ryd( 2S)     0.00163
   228    H   20  px     Ryd( 2p)     0.00013
   229    H   20  py     Ryd( 2p)     0.00035
   230    H   20  pz     Ryd( 2p)     0.00010

   231    H   21  S      Val( 1S)     0.77875
   232    H   21  S      Ryd( 2S)     0.00219
   233    H   21  px     Ryd( 2p)     0.00016
   234    H   21  py     Ryd( 2p)     0.00016
   235    H   21  pz     Ryd( 2p)     0.00027

   236    H   22  S      Val( 1S)     0.79054
   237    H   22  S      Ryd( 2S)     0.00201
   238    H   22  px     Ryd( 2p)     0.00019
   239    H   22  py     Ryd( 2p)     0.00013
   240    H   22  pz     Ryd( 2p)     0.00027

   241    H   23  S      Val( 1S)     0.75456
   242    H   23  S      Ryd( 2S)     0.00255
   243    H   23  px     Ryd( 2p)     0.00022
   244    H   23  py     Ryd( 2p)     0.00028
   245    H   23  pz     Ryd( 2p)     0.00009

   246    H   24  S      Val( 1S)     0.76741
   247    H   24  S      Ryd( 2S)     0.00178
   248    H   24  px     Ryd( 2p)     0.00008
   249    H   24  py     Ryd( 2p)     0.00021
   250    H   24  pz     Ryd( 2p)     0.00028

   251    H   25  S      Val( 1S)     0.78628
   252    H   25  S      Ryd( 2S)     0.00232
   253    H   25  px     Ryd( 2p)     0.00010
   254    H   25  py     Ryd( 2p)     0.00019
   255    H   25  pz     Ryd( 2p)     0.00030

   256    H   26  S      Val( 1S)     0.77291
   257    H   26  S      Ryd( 2S)     0.00241
   258    H   26  px     Ryd( 2p)     0.00010
   259    H   26  py     Ryd( 2p)     0.00017
   260    H   26  pz     Ryd( 2p)     0.00032

   261    H   27  S      Val( 1S)     0.78339
   262    H   27  S      Ryd( 2S)     0.00205
   263    H   27  px     Ryd( 2p)     0.00009
   264    H   27  py     Ryd( 2p)     0.00021
   265    H   27  pz     Ryd( 2p)     0.00027

   266    H   28  S      Val( 1S)     0.75623
   267    H   28  S      Ryd( 2S)     0.01661
   268    H   28  px     Ryd( 2p)     0.00019
   269    H   28  py     Ryd( 2p)     0.00023
   270    H   28  pz     Ryd( 2p)     0.00017

   271    H   29  S      Val( 1S)     0.76967
   272    H   29  S      Ryd( 2S)     0.01089
   273    H   29  px     Ryd( 2p)     0.00011
   274    H   29  py     Ryd( 2p)     0.00025
   275    H   29  pz     Ryd( 2p)     0.00025

   276    H   30  S      Val( 1S)     0.74602
   277    H   30  S      Ryd( 2S)     0.01200
   278    H   30  px     Ryd( 2p)     0.00017
   279    H   30  py     Ryd( 2p)     0.00022
   280    H   30  pz     Ryd( 2p)     0.00017

   281    H   31  S      Val( 1S)     0.74380
   282    H   31  S      Ryd( 2S)     0.01470
   283    H   31  px     Ryd( 2p)     0.00009
   284    H   31  py     Ryd( 2p)     0.00023
   285    H   31  pz     Ryd( 2p)     0.00021

   286    H   32  S      Val( 1S)     0.73575
   287    H   32  S      Ryd( 2S)     0.08052
   288    H   32  px     Ryd( 2p)     0.00027
   289    H   32  py     Ryd( 2p)     0.00045
   290    H   32  pz     Ryd( 2p)     0.00045

   291    H   33  S      Val( 1S)     0.74330
   292    H   33  S      Ryd( 2S)     0.08238
   293    H   33  px     Ryd( 2p)     0.00032
   294    H   33  py     Ryd( 2p)     0.00049
   295    H   33  pz     Ryd( 2p)     0.00037


 Summary of Natural Population Analysis:                  
                                                          
                                       Natural Population 
                Natural  -----------------------------------------------
    Atom  No    Charge         Core      Valence    Rydberg      Total
 -----------------------------------------------------------------------
      N    1   -0.93571      1.99967     5.92051    0.01553     7.93571
      C    2   -0.29410      1.99935     4.28151    0.01325     6.29410
      C    3   -0.11665      1.99925     4.09820    0.01920     6.11665
      O    4   -0.60636      1.99979     6.59358    0.01299     8.60636
      C    5   -0.13396      1.99924     4.11635    0.01837     6.13396
      C    6   -0.14159      1.99922     4.12324    0.01913     6.14159
      O    7   -0.60231      1.99981     6.58967    0.01283     8.60231
      C    8   -0.13204      1.99927     4.11197    0.02080     6.13204
      C    9   -0.15207      1.99927     4.13480    0.01799     6.15207
      O   10   -0.51159      1.99980     6.49735    0.01444     8.51159
      C   11   -0.16828      1.99917     4.13875    0.03036     6.16828
      C   12   -0.39996      1.99938     4.37449    0.02608     6.39996
      N   13   -0.50723      1.99942     5.47891    0.02889     7.50723
      H   14    0.39588      0.00000     0.60157    0.00255     0.60412
      H   15    0.38780      0.00000     0.60923    0.00297     0.61220
      H   16    0.21119      0.00000     0.78579    0.00302     0.78881
      H   17    0.23198      0.00000     0.76533    0.00269     0.76802
      H   18    0.22901      0.00000     0.76912    0.00187     0.77099
      H   19    0.20363      0.00000     0.79365    0.00272     0.79637
      H   20    0.21213      0.00000     0.78565    0.00222     0.78787
      H   21    0.21847      0.00000     0.77875    0.00278     0.78153
      H   22    0.20685      0.00000     0.79054    0.00261     0.79315
      H   23    0.24230      0.00000     0.75456    0.00315     0.75770
      H   24    0.23024      0.00000     0.76741    0.00235     0.76976
      H   25    0.21081      0.00000     0.78628    0.00292     0.78919
      H   26    0.22409      0.00000     0.77291    0.00300     0.77591
      H   27    0.21398      0.00000     0.78339    0.00263     0.78602
      H   28    0.22657      0.00000     0.75623    0.01720     0.77343
      H   29    0.21883      0.00000     0.76967    0.01150     0.78117
      H   30    0.24143      0.00000     0.74602    0.01255     0.75857
      H   31    0.24097      0.00000     0.74380    0.01523     0.75903
      H   32    0.18255      0.00000     0.73575    0.08170     0.81745
      H   33    0.17314      0.00000     0.74330    0.08356     0.82686
 =======================================================================
   * Total *   -0.00000     25.99264    79.49828    0.50908   106.00000

                                 Natural Population      
 --------------------------------------------------------
   Core                      25.99264 ( 99.9717% of  26)
   Valence                   79.49828 ( 99.3729% of  80)
   Natural Minimal Basis    105.49092 ( 99.5197% of 106)
   Natural Rydberg Basis      0.50908 (  0.4803% of 106)
 --------------------------------------------------------

    Atom  No          Natural Electron Configuration
 ----------------------------------------------------------------------------
      N    1      [core]2S( 1.45)2p( 4.48)3p( 0.01)
      C    2      [core]2S( 1.04)2p( 3.25)3p( 0.01)
      C    3      [core]2S( 1.03)2p( 3.07)3p( 0.01)3d( 0.01)
      O    4      [core]2S( 1.61)2p( 4.98)3p( 0.01)
      C    5      [core]2S( 1.03)2p( 3.09)3p( 0.01)3d( 0.01)
      C    6      [core]2S( 1.03)2p( 3.09)3p( 0.01)3d( 0.01)
      O    7      [core]2S( 1.62)2p( 4.97)3p( 0.01)
      C    8      [core]2S( 1.03)2p( 3.08)3p( 0.01)3d( 0.01)
      C    9      [core]2S( 1.04)2p( 3.09)3p( 0.01)3d( 0.01)
      O   10      [core]2S( 1.64)2p( 4.86)3p( 0.01)
      C   11      [core]2S( 1.05)2p( 3.09)3p( 0.02)3d( 0.01)
      C   12      [core]2S( 1.06)2p( 3.32)3p( 0.02)
      N   13      [core]2S( 1.52)2p( 3.96)3S( 0.02)3p( 0.01)
      H   14            1S( 0.60)
      H   15            1S( 0.61)
      H   16            1S( 0.79)
      H   17            1S( 0.77)
      H   18            1S( 0.77)
      H   19            1S( 0.79)
      H   20            1S( 0.79)
      H   21            1S( 0.78)
      H   22            1S( 0.79)
      H   23            1S( 0.75)
      H   24            1S( 0.77)
      H   25            1S( 0.79)
      H   26            1S( 0.77)
      H   27            1S( 0.78)
      H   28            1S( 0.76)2S( 0.02)
      H   29            1S( 0.77)2S( 0.01)
      H   30            1S( 0.75)2S( 0.01)
      H   31            1S( 0.74)2S( 0.01)
      H   32            1S( 0.74)2S( 0.08)
      H   33            1S( 0.74)2S( 0.08)


 NBO analysis skipped by request.
 1\1\GINC-DRG2-W002\SP\RB3LYP TD-FC\6-31G(d,p)\C8H20N2O3\QDUEZ\18-Jul-2
 024\0\\# TD(NStates=10, Root=1) B3LYP/6-31G** SCRF=(Solvent=water) vol
 ume pop=NPA density=current Geom=AllCheck Guess=Read\\NIQFAJBKEHPUAM-U
 HFFFAOYSA-N_conf_2\\0,1\N,0,4.2629694375,1.6120087373,-0.8376538528\C,
 0,4.8982536245,0.8221116243,0.2248009973\C,0,4.5668702104,-0.666325462
 8,0.1219701354\O,0,3.2227894144,-1.0007303196,0.4473066263\C,0,2.26662
 97677,-0.9364976274,-0.6088300515\C,0,1.2253129677,0.1477953456,-0.363
 8031718\O,0,0.4691683269,-0.0678784516,0.8307782866\C,0,-0.6558039003,
 -0.9246549674,0.6823001867\C,0,-1.904991056,-0.1263687148,0.3115812669
 \O,0,-2.9853106411,-1.0453453456,0.2249520459\C,0,-4.1993194073,-0.490
 6948616,-0.2733199777\C,0,-4.9832594077,0.318059053,0.771209349\N,0,-6
 .2736790282,0.8277128836,0.2936970632\H,0,4.4428963019,2.6001614047,-0
 .6742641237\H,0,4.7101387578,1.3974052979,-1.7276026727\H,0,5.99871789
 46,0.9114351828,0.2447822725\H,0,4.5323321727,1.1878735831,1.190890930
 3\H,0,5.1935038993,-1.2069291,0.8411392883\H,0,4.824625115,-1.04026051
 93,-0.8813999842\H,0,1.7775756384,-1.9187783809,-0.6769844911\H,0,2.75
 38545097,-0.7412474456,-1.571799366\H,0,0.5651847345,0.2181514487,-1.2
 41040714\H,0,1.7409585927,1.1037184794,-0.2459484629\H,0,-0.8164852304
 ,-1.4227895129,1.6444386363\H,0,-0.4810817005,-1.7062181998,-0.0690397
 705\H,0,-2.07969741,0.6442218897,1.0757252346\H,0,-1.7600644693,0.3882
 851298,-0.6514987209\H,0,-4.8077228971,-1.342572948,-0.599788559\H,0,-
 3.999583101,0.1347418227,-1.1585239977\H,0,-4.3853842128,1.1709130564,
 1.1116600415\H,0,-5.1574754724,-0.3173574493,1.6474410693\H,0,-6.12114
 33234,1.4206344358,-0.5208477108\H,0,-6.840780108,0.0494199318,-0.0398
 658416\\Version=ES64L-G16RevA.03\State=1-A\HF=-652.0427803\RMSD=3.078e
 -09\Dipole=1.7028448,0.5586497,-1.0102865\Quadrupole=0.6419982,-0.7485
 235,0.1065253,5.1317999,-8.0056896,0.7637241\PG=C01 [X(C8H20N2O3)]\\@


 THE RED LIGHT IS ALWAYS LONGER THAN THE GREEN LIGHT.

                     -- PETER'S THEORY OF RELATIVITY
 Job cpu time:       0 days  0 hours 44 minutes 21.4 seconds.
 Elapsed time:       0 days  0 hours 14 minutes 50.4 seconds.
 File lengths (MBytes):  RWF=    771 Int=      0 D2E=      0 Chk=     47 Scr=      1
 Normal termination of Gaussian 16 at Thu Jul 18 15:53:39 2024.
