 Entering Gaussian System, Link 0=g16
 Initial command:
 /opt/sw/arch/manual/gaussian/G16_A03/g16/l1.exe "/scratch/1380953/Gau-171295.inp" -scrdir="/scratch/1380953/"
 Entering Link 1 = /opt/sw/arch/manual/gaussian/G16_A03/g16/l1.exe PID=    171296.
  
 Copyright (c) 1988,1990,1992,1993,1995,1998,2003,2009,2016,
            Gaussian, Inc.  All Rights Reserved.
  
 This is part of the Gaussian(R) 16 program.  It is based on
 the Gaussian(R) 09 system (copyright 2009, Gaussian, Inc.),
 the Gaussian(R) 03 system (copyright 2003, Gaussian, Inc.),
 the Gaussian(R) 98 system (copyright 1998, Gaussian, Inc.),
 the Gaussian(R) 94 system (copyright 1995, Gaussian, Inc.),
 the Gaussian 92(TM) system (copyright 1992, Gaussian, Inc.),
 the Gaussian 90(TM) system (copyright 1990, Gaussian, Inc.),
 the Gaussian 88(TM) system (copyright 1988, Gaussian, Inc.),
 the Gaussian 86(TM) system (copyright 1986, Carnegie Mellon
 University), and the Gaussian 82(TM) system (copyright 1983,
 Carnegie Mellon University). Gaussian is a federally registered
 trademark of Gaussian, Inc.
  
 This software contains proprietary and confidential information,
 including trade secrets, belonging to Gaussian, Inc.
  
 This software is provided under written license and may be
 used, copied, transmitted, or stored only in accord with that
 written license.
  
 The following legend is applicable only to US Government
 contracts under FAR:
  
                    RESTRICTED RIGHTS LEGEND
  
 Use, reproduction and disclosure by the US Government is
 subject to restrictions as set forth in subparagraphs (a)
 and (c) of the Commercial Computer Software - Restricted
 Rights clause in FAR 52.227-19.
  
 Gaussian, Inc.
 340 Quinnipiac St., Bldg. 40, Wallingford CT 06492
  
  
 ---------------------------------------------------------------
 Warning -- This program may not be used in any manner that
 competes with the business of Gaussian, Inc. or will provide
 assistance to any competitor of Gaussian, Inc.  The licensee
 of this program is prohibited from giving any competitor of
 Gaussian, Inc. access to this program.  By using this program,
 the user acknowledges that Gaussian, Inc. is engaged in the
 business of creating and licensing software in the field of
 computational chemistry and represents and warrants to the
 licensee that it is not a competitor of Gaussian, Inc. and that
 it will not use this program in any manner prohibited above.
 ---------------------------------------------------------------
  

 Cite this work as:
 Gaussian 16, Revision A.03,
 M. J. Frisch, G. W. Trucks, H. B. Schlegel, G. E. Scuseria, 
 M. A. Robb, J. R. Cheeseman, G. Scalmani, V. Barone, 
 G. A. Petersson, H. Nakatsuji, X. Li, M. Caricato, A. V. Marenich, 
 J. Bloino, B. G. Janesko, R. Gomperts, B. Mennucci, H. P. Hratchian, 
 J. V. Ortiz, A. F. Izmaylov, J. L. Sonnenberg, D. Williams-Young, 
 F. Ding, F. Lipparini, F. Egidi, J. Goings, B. Peng, A. Petrone, 
 T. Henderson, D. Ranasinghe, V. G. Zakrzewski, J. Gao, N. Rega, 
 G. Zheng, W. Liang, M. Hada, M. Ehara, K. Toyota, R. Fukuda, 
 J. Hasegawa, M. Ishida, T. Nakajima, Y. Honda, O. Kitao, H. Nakai, 
 T. Vreven, K. Throssell, J. A. Montgomery, Jr., J. E. Peralta, 
 F. Ogliaro, M. J. Bearpark, J. J. Heyd, E. N. Brothers, K. N. Kudin, 
 V. N. Staroverov, T. A. Keith, R. Kobayashi, J. Normand, 
 K. Raghavachari, A. P. Rendell, J. C. Burant, S. S. Iyengar, 
 J. Tomasi, M. Cossi, J. M. Millam, M. Klene, C. Adamo, R. Cammi, 
 J. W. Ochterski, R. L. Martin, K. Morokuma, O. Farkas, 
 J. B. Foresman, and D. J. Fox, Gaussian, Inc., Wallingford CT, 2016.
 
 ******************************************
 Gaussian 16:  ES64L-G16RevA.03 25-Dec-2016
                18-Jul-2024 
 ******************************************
 %nprocshared=5
 Will use up to    5 processors via shared memory.
 %mem=10GB
 %Chk=NKYXYJFTTIPZDE-UHFFFAOYSA-N_conf_3_0.chk
 -------------------------------------------------------
 # opt=CalcFc B3LYP/6-31G** SCRF=(Solvent=water) scf=xqc
 -------------------------------------------------------
 1/10=4,18=20,19=15,26=3,38=1/1,3;
 2/9=110,12=2,17=6,18=5,40=1/2;
 3/5=1,6=6,7=101,11=2,25=1,30=1,70=2201,71=2,72=1,74=-5,140=1/1,2,3;
 4//1;
 5/5=2,8=3,13=1,38=5,53=1/2,8;
 8/6=4,10=90,11=11/1;
 11/6=1,8=1,9=11,15=111,16=1/1,2,10;
 10/6=1,13=1/2;
 6/7=2,8=2,9=2,10=2,28=1/1;
 7/10=1,18=20,25=1/1,2,3,16;
 1/10=4,18=20,19=15,26=3/3(2);
 2/9=110/2;
 99//99;
 2/9=110/2;
 3/5=1,6=6,7=101,11=2,25=1,30=1,70=2205,71=1,72=1,74=-5/1,2,3;
 4/5=5,16=3,69=1/1;
 5/5=2,8=3,13=1,38=5,53=1/2,8;
 7//1,2,3,16;
 1/18=20,19=15,26=3/3(-5);
 2/9=110/2;
 6/7=2,8=2,9=2,10=2,19=2,28=1/1;
 99/9=1/99;
 ----------------------------------
 NKYXYJFTTIPZDE-UHFFFAOYSA-N_conf_3
 ----------------------------------
 Symbolic Z-matrix:
 Charge =  0 Multiplicity = 1
 N                    -4.75164  -0.36634  -1.8932 
 C                    -3.58218  -0.43539  -1.131 
 C                    -2.4419   -1.05288  -1.64666 
 C                    -1.23454  -1.01998  -0.94634 
 C                    -1.14489  -0.31313   0.25606 
 O                     0.0244   -0.29394   0.98502 
 C                     1.16692   0.09235   0.31835 
 C                     1.22425   1.30803  -0.36851 
 C                     2.40698   1.69546  -1.00137 
 C                     3.53073   0.86833  -0.9812 
 N                     4.74363   1.31519  -1.51175 
 C                     3.48529  -0.30601  -0.2245 
 C                     2.30447  -0.71532   0.42246 
 C                     2.26472  -1.99612   1.20837 
 F                     1.34984  -2.88197   0.72167 
 F                     1.95789  -1.81317   2.52167 
 F                     3.45303  -2.66837   1.20206 
 C                    -2.26528   0.34356   0.77681 
 C                    -2.17276   1.11147   2.06598 
 F                    -1.28773   2.14557   1.99995 
 F                    -3.35828   1.67421   2.44271 
 F                    -1.78609   0.34383   3.12165 
 C                    -3.47183   0.29734   0.05413 
 H                    -4.86727  -1.13521  -2.54667 
 H                    -5.59408  -0.19425  -1.35278 
 H                    -2.48503  -1.57538  -2.59898 
 H                    -0.37251  -1.54553  -1.34847 
 H                     0.36408   1.97191  -0.39674 
 H                     2.44355   2.65753  -1.50637 
 H                     5.40482   0.57712  -1.73278 
 H                     4.64665   1.98489  -2.26893 
 H                     4.38415  -0.91402  -0.13164 
 H                    -4.33939   0.84022   0.42678 
 

 GradGradGradGradGradGradGradGradGradGradGradGradGradGradGradGradGradGrad
 Berny optimization.
 Initialization pass.
                           ----------------------------
                           !    Initial Parameters    !
                           ! (Angstroms and Degrees)  !
 --------------------------                            --------------------------
 ! Name  Definition              Value          Derivative Info.                !
 --------------------------------------------------------------------------------
 ! R1    R(1,2)                  1.3976         calculate D2E/DX2 analytically  !
 ! R2    R(1,24)                 1.0157         calculate D2E/DX2 analytically  !
 ! R3    R(1,25)                 1.0156         calculate D2E/DX2 analytically  !
 ! R4    R(2,3)                  1.3955         calculate D2E/DX2 analytically  !
 ! R5    R(2,23)                 1.3977         calculate D2E/DX2 analytically  !
 ! R6    R(3,4)                  1.3962         calculate D2E/DX2 analytically  !
 ! R7    R(3,26)                 1.0871         calculate D2E/DX2 analytically  !
 ! R8    R(4,5)                  1.3977         calculate D2E/DX2 analytically  !
 ! R9    R(4,27)                 1.0867         calculate D2E/DX2 analytically  !
 ! R10   R(5,6)                  1.378          calculate D2E/DX2 analytically  !
 ! R11   R(5,18)                 1.3992         calculate D2E/DX2 analytically  !
 ! R12   R(6,7)                  1.378          calculate D2E/DX2 analytically  !
 ! R13   R(7,8)                  1.3975         calculate D2E/DX2 analytically  !
 ! R14   R(7,13)                 1.399          calculate D2E/DX2 analytically  !
 ! R15   R(8,9)                  1.3962         calculate D2E/DX2 analytically  !
 ! R16   R(8,28)                 1.0869         calculate D2E/DX2 analytically  !
 ! R17   R(9,10)                 1.3955         calculate D2E/DX2 analytically  !
 ! R18   R(9,29)                 1.0872         calculate D2E/DX2 analytically  !
 ! R19   R(10,11)                1.3972         calculate D2E/DX2 analytically  !
 ! R20   R(10,12)                1.3978         calculate D2E/DX2 analytically  !
 ! R21   R(11,30)                1.0153         calculate D2E/DX2 analytically  !
 ! R22   R(11,31)                1.0155         calculate D2E/DX2 analytically  !
 ! R23   R(12,13)                1.4073         calculate D2E/DX2 analytically  !
 ! R24   R(12,32)                1.0892         calculate D2E/DX2 analytically  !
 ! R25   R(13,14)                1.5032         calculate D2E/DX2 analytically  !
 ! R26   R(14,15)                1.3633         calculate D2E/DX2 analytically  !
 ! R27   R(14,16)                1.361          calculate D2E/DX2 analytically  !
 ! R28   R(14,17)                1.3653         calculate D2E/DX2 analytically  !
 ! R29   R(18,19)                1.5034         calculate D2E/DX2 analytically  !
 ! R30   R(18,23)                1.4072         calculate D2E/DX2 analytically  !
 ! R31   R(19,20)                1.3627         calculate D2E/DX2 analytically  !
 ! R32   R(19,21)                1.3653         calculate D2E/DX2 analytically  !
 ! R33   R(19,22)                1.3613         calculate D2E/DX2 analytically  !
 ! R34   R(23,33)                1.0892         calculate D2E/DX2 analytically  !
 ! A1    A(2,1,24)             114.1259         calculate D2E/DX2 analytically  !
 ! A2    A(2,1,25)             114.348          calculate D2E/DX2 analytically  !
 ! A3    A(24,1,25)            112.0993         calculate D2E/DX2 analytically  !
 ! A4    A(1,2,3)              120.2691         calculate D2E/DX2 analytically  !
 ! A5    A(1,2,23)             120.1699         calculate D2E/DX2 analytically  !
 ! A6    A(3,2,23)             118.7358         calculate D2E/DX2 analytically  !
 ! A7    A(2,3,4)              120.7195         calculate D2E/DX2 analytically  !
 ! A8    A(2,3,26)             120.2626         calculate D2E/DX2 analytically  !
 ! A9    A(4,3,26)             119.0158         calculate D2E/DX2 analytically  !
 ! A10   A(3,4,5)              119.9286         calculate D2E/DX2 analytically  !
 ! A11   A(3,4,27)             119.2718         calculate D2E/DX2 analytically  !
 ! A12   A(5,4,27)             120.7994         calculate D2E/DX2 analytically  !
 ! A13   A(4,5,6)              121.1015         calculate D2E/DX2 analytically  !
 ! A14   A(4,5,18)             120.4102         calculate D2E/DX2 analytically  !
 ! A15   A(6,5,18)             118.4268         calculate D2E/DX2 analytically  !
 ! A16   A(5,6,7)              116.8388         calculate D2E/DX2 analytically  !
 ! A17   A(6,7,8)              121.0401         calculate D2E/DX2 analytically  !
 ! A18   A(6,7,13)             118.4442         calculate D2E/DX2 analytically  !
 ! A19   A(8,7,13)             120.3609         calculate D2E/DX2 analytically  !
 ! A20   A(7,8,9)              119.9281         calculate D2E/DX2 analytically  !
 ! A21   A(7,8,28)             120.7725         calculate D2E/DX2 analytically  !
 ! A22   A(9,8,28)             119.2817         calculate D2E/DX2 analytically  !
 ! A23   A(8,9,10)             120.7385         calculate D2E/DX2 analytically  !
 ! A24   A(8,9,29)             118.9859         calculate D2E/DX2 analytically  !
 ! A25   A(10,9,29)            120.2742         calculate D2E/DX2 analytically  !
 ! A26   A(9,10,11)            120.2643         calculate D2E/DX2 analytically  !
 ! A27   A(9,10,12)            118.6607         calculate D2E/DX2 analytically  !
 ! A28   A(11,10,12)           120.164          calculate D2E/DX2 analytically  !
 ! A29   A(10,11,30)           114.5507         calculate D2E/DX2 analytically  !
 ! A30   A(10,11,31)           114.2764         calculate D2E/DX2 analytically  !
 ! A31   A(30,11,31)           112.2895         calculate D2E/DX2 analytically  !
 ! A32   A(10,12,13)           121.3675         calculate D2E/DX2 analytically  !
 ! A33   A(10,12,32)           119.2316         calculate D2E/DX2 analytically  !
 ! A34   A(13,12,32)           119.4005         calculate D2E/DX2 analytically  !
 ! A35   A(7,13,12)            118.6943         calculate D2E/DX2 analytically  !
 ! A36   A(7,13,14)            120.6177         calculate D2E/DX2 analytically  !
 ! A37   A(12,13,14)           120.688          calculate D2E/DX2 analytically  !
 ! A38   A(13,14,15)           112.6278         calculate D2E/DX2 analytically  !
 ! A39   A(13,14,16)           113.3227         calculate D2E/DX2 analytically  !
 ! A40   A(13,14,17)           113.2093         calculate D2E/DX2 analytically  !
 ! A41   A(15,14,16)           106.2928         calculate D2E/DX2 analytically  !
 ! A42   A(15,14,17)           105.218          calculate D2E/DX2 analytically  !
 ! A43   A(16,14,17)           105.4774         calculate D2E/DX2 analytically  !
 ! A44   A(5,18,19)            120.6372         calculate D2E/DX2 analytically  !
 ! A45   A(5,18,23)            118.6872         calculate D2E/DX2 analytically  !
 ! A46   A(19,18,23)           120.6588         calculate D2E/DX2 analytically  !
 ! A47   A(18,19,20)           112.7073         calculate D2E/DX2 analytically  !
 ! A48   A(18,19,21)           113.1852         calculate D2E/DX2 analytically  !
 ! A49   A(18,19,22)           113.2298         calculate D2E/DX2 analytically  !
 ! A50   A(20,19,21)           105.3395         calculate D2E/DX2 analytically  !
 ! A51   A(20,19,22)           106.3208         calculate D2E/DX2 analytically  !
 ! A52   A(21,19,22)           105.3716         calculate D2E/DX2 analytically  !
 ! A53   A(2,23,18)            121.3566         calculate D2E/DX2 analytically  !
 ! A54   A(2,23,33)            119.2438         calculate D2E/DX2 analytically  !
 ! A55   A(18,23,33)           119.3992         calculate D2E/DX2 analytically  !
 ! D1    D(24,1,2,3)            29.5474         calculate D2E/DX2 analytically  !
 ! D2    D(24,1,2,23)         -160.9845         calculate D2E/DX2 analytically  !
 ! D3    D(25,1,2,3)           160.4772         calculate D2E/DX2 analytically  !
 ! D4    D(25,1,2,23)          -30.0547         calculate D2E/DX2 analytically  !
 ! D5    D(1,2,3,4)            174.064          calculate D2E/DX2 analytically  !
 ! D6    D(1,2,3,26)            -6.4739         calculate D2E/DX2 analytically  !
 ! D7    D(23,2,3,4)             4.4465         calculate D2E/DX2 analytically  !
 ! D8    D(23,2,3,26)         -176.0914         calculate D2E/DX2 analytically  !
 ! D9    D(1,2,23,18)         -174.1176         calculate D2E/DX2 analytically  !
 ! D10   D(1,2,23,33)            6.1131         calculate D2E/DX2 analytically  !
 ! D11   D(3,2,23,18)           -4.4894         calculate D2E/DX2 analytically  !
 ! D12   D(3,2,23,33)          175.7412         calculate D2E/DX2 analytically  !
 ! D13   D(2,3,4,5)             -2.8324         calculate D2E/DX2 analytically  !
 ! D14   D(2,3,4,27)           177.3343         calculate D2E/DX2 analytically  !
 ! D15   D(26,3,4,5)           177.6989         calculate D2E/DX2 analytically  !
 ! D16   D(26,3,4,27)           -2.1344         calculate D2E/DX2 analytically  !
 ! D17   D(3,4,5,6)            178.2556         calculate D2E/DX2 analytically  !
 ! D18   D(3,4,5,18)             1.1533         calculate D2E/DX2 analytically  !
 ! D19   D(27,4,5,6)            -1.9136         calculate D2E/DX2 analytically  !
 ! D20   D(27,4,5,18)         -179.016          calculate D2E/DX2 analytically  !
 ! D21   D(4,5,6,7)             53.4994         calculate D2E/DX2 analytically  !
 ! D22   D(18,5,6,7)          -129.3422         calculate D2E/DX2 analytically  !
 ! D23   D(4,5,18,19)         -179.672          calculate D2E/DX2 analytically  !
 ! D24   D(4,5,18,23)           -1.1522         calculate D2E/DX2 analytically  !
 ! D25   D(6,5,18,19)            3.1493         calculate D2E/DX2 analytically  !
 ! D26   D(6,5,18,23)         -178.3309         calculate D2E/DX2 analytically  !
 ! D27   D(5,6,7,8)             54.3229         calculate D2E/DX2 analytically  !
 ! D28   D(5,6,7,13)          -130.1835         calculate D2E/DX2 analytically  !
 ! D29   D(6,7,8,9)            178.0196         calculate D2E/DX2 analytically  !
 ! D30   D(6,7,8,28)            -0.4419         calculate D2E/DX2 analytically  !
 ! D31   D(13,7,8,9)             2.6119         calculate D2E/DX2 analytically  !
 ! D32   D(13,7,8,28)         -175.8497         calculate D2E/DX2 analytically  !
 ! D33   D(6,7,13,12)         -178.1887         calculate D2E/DX2 analytically  !
 ! D34   D(6,7,13,14)            1.9059         calculate D2E/DX2 analytically  !
 ! D35   D(8,7,13,12)           -2.6634         calculate D2E/DX2 analytically  !
 ! D36   D(8,7,13,14)          177.4313         calculate D2E/DX2 analytically  !
 ! D37   D(7,8,9,10)             1.3523         calculate D2E/DX2 analytically  !
 ! D38   D(7,8,9,29)          -178.2121         calculate D2E/DX2 analytically  !
 ! D39   D(28,8,9,10)          179.8368         calculate D2E/DX2 analytically  !
 ! D40   D(28,8,9,29)            0.2724         calculate D2E/DX2 analytically  !
 ! D41   D(8,9,10,11)         -174.2107         calculate D2E/DX2 analytically  !
 ! D42   D(8,9,10,12)           -5.115          calculate D2E/DX2 analytically  !
 ! D43   D(29,9,10,11)           5.3482         calculate D2E/DX2 analytically  !
 ! D44   D(29,9,10,12)         174.4439         calculate D2E/DX2 analytically  !
 ! D45   D(9,10,11,30)        -160.9884         calculate D2E/DX2 analytically  !
 ! D46   D(9,10,11,31)         -29.4241         calculate D2E/DX2 analytically  !
 ! D47   D(12,10,11,30)         30.0805         calculate D2E/DX2 analytically  !
 ! D48   D(12,10,11,31)        161.6447         calculate D2E/DX2 analytically  !
 ! D49   D(9,10,12,13)           5.0619         calculate D2E/DX2 analytically  !
 ! D50   D(9,10,12,32)        -174.718          calculate D2E/DX2 analytically  !
 ! D51   D(11,10,12,13)        174.1688         calculate D2E/DX2 analytically  !
 ! D52   D(11,10,12,32)         -5.6111         calculate D2E/DX2 analytically  !
 ! D53   D(10,12,13,7)          -1.2116         calculate D2E/DX2 analytically  !
 ! D54   D(10,12,13,14)        178.6937         calculate D2E/DX2 analytically  !
 ! D55   D(32,12,13,7)         178.568          calculate D2E/DX2 analytically  !
 ! D56   D(32,12,13,14)         -1.5268         calculate D2E/DX2 analytically  !
 ! D57   D(7,13,14,15)          60.343          calculate D2E/DX2 analytically  !
 ! D58   D(7,13,14,16)         -60.3673         calculate D2E/DX2 analytically  !
 ! D59   D(7,13,14,17)         179.5625         calculate D2E/DX2 analytically  !
 ! D60   D(12,13,14,15)       -119.5604         calculate D2E/DX2 analytically  !
 ! D61   D(12,13,14,16)        119.7293         calculate D2E/DX2 analytically  !
 ! D62   D(12,13,14,17)         -0.3409         calculate D2E/DX2 analytically  !
 ! D63   D(5,18,19,20)          61.5066         calculate D2E/DX2 analytically  !
 ! D64   D(5,18,19,21)        -179.0751         calculate D2E/DX2 analytically  !
 ! D65   D(5,18,19,22)         -59.2312         calculate D2E/DX2 analytically  !
 ! D66   D(23,18,19,20)       -116.9838         calculate D2E/DX2 analytically  !
 ! D67   D(23,18,19,21)          2.4345         calculate D2E/DX2 analytically  !
 ! D68   D(23,18,19,22)        122.2783         calculate D2E/DX2 analytically  !
 ! D69   D(5,18,23,2)            2.8631         calculate D2E/DX2 analytically  !
 ! D70   D(5,18,23,33)        -177.3679         calculate D2E/DX2 analytically  !
 ! D71   D(19,18,23,2)        -178.6175         calculate D2E/DX2 analytically  !
 ! D72   D(19,18,23,33)          1.1515         calculate D2E/DX2 analytically  !
 --------------------------------------------------------------------------------
 Trust Radius=3.00D-01 FncErr=1.00D-07 GrdErr=1.00D-06 EigMax=2.50D+02 EigMin=1.00D-04
 Number of steps in this run=    171 maximum allowed number of steps=    198.
 GradGradGradGradGradGradGradGradGradGradGradGradGradGradGradGradGradGrad

                          Input orientation:                          
 ---------------------------------------------------------------------
 Center     Atomic      Atomic             Coordinates (Angstroms)
 Number     Number       Type             X           Y           Z
 ---------------------------------------------------------------------
      1          7           0       -4.751639   -0.366339   -1.893200
      2          6           0       -3.582178   -0.435393   -1.131004
      3          6           0       -2.441901   -1.052880   -1.646664
      4          6           0       -1.234540   -1.019980   -0.946342
      5          6           0       -1.144887   -0.313130    0.256056
      6          8           0        0.024404   -0.293940    0.985020
      7          6           0        1.166921    0.092349    0.318346
      8          6           0        1.224246    1.308027   -0.368512
      9          6           0        2.406980    1.695462   -1.001370
     10          6           0        3.530729    0.868334   -0.981204
     11          7           0        4.743626    1.315188   -1.511749
     12          6           0        3.485288   -0.306006   -0.224496
     13          6           0        2.304470   -0.715325    0.422465
     14          6           0        2.264715   -1.996123    1.208365
     15          9           0        1.349843   -2.881974    0.721666
     16          9           0        1.957890   -1.813168    2.521668
     17          9           0        3.453031   -2.668365    1.202059
     18          6           0       -2.265280    0.343560    0.776805
     19          6           0       -2.172760    1.111474    2.065981
     20          9           0       -1.287730    2.145568    1.999948
     21          9           0       -3.358278    1.674208    2.442710
     22          9           0       -1.786089    0.343826    3.121654
     23          6           0       -3.471831    0.297338    0.054133
     24          1           0       -4.867274   -1.135206   -2.546670
     25          1           0       -5.594080   -0.194245   -1.352779
     26          1           0       -2.485028   -1.575385   -2.598982
     27          1           0       -0.372513   -1.545528   -1.348470
     28          1           0        0.364080    1.971906   -0.396743
     29          1           0        2.443552    2.657530   -1.506370
     30          1           0        5.404821    0.577118   -1.732780
     31          1           0        4.646653    1.984894   -2.268931
     32          1           0        4.384148   -0.914022   -0.131637
     33          1           0       -4.339392    0.840224    0.426784
 ---------------------------------------------------------------------
                    Distance matrix (angstroms):
                    1          2          3          4          5
     1  N    0.000000
     2  C    1.397623   0.000000
     3  C    2.422191   1.395502   0.000000
     4  C    3.700510   2.426365   1.396157   0.000000
     5  C    4.198903   2.807004   2.418640   1.397653   0.000000
     6  O    5.576735   4.183898   3.685704   2.417071   1.378042
     7  C    6.334878   4.993302   4.265725   2.933211   2.347925
     8  C    6.390569   5.169392   4.544028   3.434986   2.937861
     9  C    7.502813   6.358251   5.610833   4.542832   4.269816
    10  C    8.423406   7.232951   6.309217   5.125888   4.978761
    11  N    9.650549   8.516367   7.566885   6.442916   6.360122
    12  C    8.404474   7.126540   6.141006   4.827794   4.655052
    13  C    7.434566   6.094608   5.188765   3.806709   3.476711
    14  C    7.842521   6.488042   5.585082   4.223790   3.919789
    15  F    7.098875   5.808870   4.830310   3.595595   3.611015
    16  F    8.161014   6.777362   6.108289   4.779942   4.124359
    17  F    9.066232   7.741028   6.743533   5.413513   5.251943
    18  C    3.716835   2.445552   2.802578   2.427119   1.399179
    19  C    4.950723   3.820991   4.305880   3.807551   2.522271
    20  F    5.784889   4.661406   4.985977   4.324829   3.017741
    21  F    4.990531   4.155957   4.999973   4.822301   3.691892
    22  F    5.869206   4.681690   5.011760   4.325825   3.009051
    23  C    2.422907   1.397719   2.403446   2.782400   2.414148
    24  H    1.015654   2.036007   2.588286   3.971283   4.731517
    25  H    1.015568   2.038404   3.280222   4.455629   4.732632
    26  H    2.664103   2.158305   1.087098   2.145557   3.397132
    27  H    4.567708   3.403180   2.148019   1.086737   2.165610
    28  H    5.820426   4.680511   4.311052   3.436427   2.815053
    29  H    7.814358   6.783545   6.136325   5.231259   4.980749
    30  H   10.201447   9.063855   8.014697   6.873887   6.902658
    31  H    9.695224   8.652533   7.737111   6.735498   6.722977
    32  H    9.320175   8.043020   6.993536   5.678435   5.575088
    33  H    2.647275   2.151110   3.388731   3.871168   3.400623
                    6          7          8          9         10
     6  O    0.000000
     7  C    1.378049   0.000000
     8  C    2.416188   1.397473   0.000000
     9  C    3.685123   2.418546   1.396236   0.000000
    10  C    4.184642   2.806879   2.426641   1.395478   0.000000
    11  N    5.576218   4.199691   3.700416   2.421778   1.397239
    12  C    3.666169   2.414165   2.781754   2.402531   1.397765
    13  C    2.385945   1.398999   2.426207   2.801733   2.445807
    14  C    2.822464   2.521706   3.806116   4.304761   3.821272
    15  F    2.919599   3.007113   4.331324   5.003930   4.660562
    16  F    2.899605   3.018486   4.316622   4.992390   4.683416
    17  F    4.176180   3.691720   4.821397   4.999231   4.157032
    18  C    2.385878   3.471786   3.797201   5.178760   6.079449
    19  C    2.823331   3.904652   4.183902   5.542896   6.471031
    20  F    2.950081   3.615080   3.552619   4.781358   5.808282
    21  F    4.176243   5.243341   5.388560   6.715678   7.735052
    22  F    2.872253   4.079466   4.708828   6.033910   6.736253
    23  C    3.666036   4.650790   4.822163   6.134269   7.101676
    24  H    6.091723   6.791666   6.915228   7.957098   8.774470
    25  H    6.086264   6.970361   7.050899   8.228697   9.193981
    26  H    4.558994   4.962749   5.200748   6.097750   6.691659
    27  H    2.677534   2.798352   3.413610   4.283699   4.604011
    28  H    2.675576   2.165327   1.086931   2.148356   3.403987
    29  H    4.557464   3.396988   2.145364   1.087169   2.158466
    30  H    6.090490   4.733066   4.457877   3.282180   2.040072
    31  H    6.094790   4.731201   3.972734   2.589714   2.037212
    32  H    4.542994   3.400856   3.870219   3.387482   2.151019
    33  H    4.543201   5.557927   5.639628   6.948711   7.995125
                   11         12         13         14         15
    11  N    0.000000
    12  C    2.422541   0.000000
    13  C    3.716672   1.407278   0.000000
    14  C    4.950637   2.529700   1.503218   0.000000
    15  F    5.841411   3.477206   2.386462   1.363305   0.000000
    16  F    5.815100   3.485097   2.394166   1.361021   2.179925
    17  F    4.989899   2.759863   2.396107   1.365300   2.167904
    18  C    7.436821   5.873123   4.704191   5.116759   4.845227
    19  C    7.789611   6.266502   5.107243   5.484874   5.492134
    20  F    7.028429   5.808621   4.855622   5.513627   5.819534
    21  F    9.022610   7.607209   6.469774   6.827370   6.774008
    22  F    8.065305   6.277453   5.013990   5.054211   5.098999
    23  C    8.425066   6.988789   5.875952   6.284917   5.813963
    24  H    9.972206   8.708925   7.773415   8.105970   7.237802
    25  H   10.448533   9.149888   8.112344   8.459722   7.729507
    26  H    7.860721   6.549365   5.727839   6.101883   5.238331
    27  H    5.863893   4.205040   3.315371   3.700732   3.006337
    28  H    4.566721   3.867880   3.414297   4.683379   5.077669
    29  H    2.663128   3.392781   3.887917   5.390571   6.070128
    30  H    1.015275   2.596042   3.990948   5.013199   5.867919
    31  H    1.015497   3.282789   4.474440   5.797733   6.595380
    32  H    2.646377   1.089153   2.161381   2.731033   3.715908
    33  H    9.299716   7.934962   6.823537   7.229797   6.805079
                   16         17         18         19         20
    16  F    0.000000
    17  F    2.169833   0.000000
    18  C    5.052840   6.477007   0.000000
    19  C    5.081678   6.832501   1.503405   0.000000
    20  F    5.145662   6.803338   2.387240   1.362714   0.000000
    21  F    6.358433   8.172581   2.395935   1.365301   2.169190
    22  F    4.362337   6.340861   2.393312   1.361339   2.180106
    23  C    6.326519   7.620161   1.407181   2.529415   3.460123
    24  H    8.528222   9.253704   4.472429   5.795216   6.651944
    25  H    8.640863   9.721044   3.988142   5.009816   5.938026
    26  H    6.783592   7.134639   3.889291   5.392458   6.035659
    27  H    4.525525   4.732943   3.415847   4.686045   5.066923
    28  H    5.038267   5.799130   3.307909   3.638806   2.915950
    29  H    6.037226   6.059686   5.721927   6.038403   5.145759
    30  H    5.974540   4.791234   8.073600   8.493283   7.821991
    31  H    6.678664   5.926662   7.729509   8.127651   7.312048
    32  H    3.706105   2.392372   6.828007   7.205914   6.787853
    33  H    7.147362   8.580973   2.161280   2.730355   3.673065
                   21         22         23         24         25
    21  F    0.000000
    22  F    2.168561   0.000000
    23  C    2.759342   3.500511   0.000000
    24  H    5.921469   6.618999   3.280796   0.000000
    25  H    4.784942   5.900074   2.593260   1.684942   0.000000
    26  H    6.061442   6.074337   3.394096   2.423137   3.623089
    27  H    5.801252   5.054687   3.869007   4.669789   5.393584
    28  H    4.691169   4.433169   4.209713   6.453171   6.411388
    29  H    7.086846   6.682940   6.557243   8.301521   8.529933
    30  H    9.768840   8.679236   9.059045  10.445593  11.032463
    31  H    9.293816   8.551706   8.611286  10.016336  10.510024
    32  H    8.559869   7.087871   7.950994   9.564002  10.078408
    33  H    2.392085   3.745410   1.089154   3.608658   2.410646
                   26         27         28         29         30
    26  H    0.000000
    27  H    2.455075   0.000000
    28  H    5.054756   3.717620   0.000000
    29  H    6.588040   5.061704   2.454700   0.000000
    30  H    8.223947   6.166921   5.398102   3.626085   0.000000
    31  H    7.977806   6.205091   4.673937   2.426437   1.686449
    32  H    7.328764   4.950284   4.955785   4.290896   2.414318
    33  H    4.292912   4.957768   4.907296   7.283406   9.984119
                   31         32         33
    31  H    0.000000
    32  H    3.611184   0.000000
    33  H    9.451251   8.915681   0.000000
 Stoichiometry    C14H10F6N2O
 Framework group  C1[X(C14H10F6N2O)]
 Deg. of freedom    93
 Full point group                 C1      NOp   1
 Largest Abelian subgroup         C1      NOp   1
 Largest concise Abelian subgroup C1      NOp   1
                         Standard orientation:                         
 ---------------------------------------------------------------------
 Center     Atomic      Atomic             Coordinates (Angstroms)
 Number     Number       Type             X           Y           Z
 ---------------------------------------------------------------------
      1          7           0       -4.574751    2.243981   -1.481870
      2          6           0       -3.445555    1.473365   -1.191324
      3          6           0       -2.208119    1.801410   -1.746809
      4          6           0       -1.052219    1.115850   -1.368447
      5          6           0       -1.118420    0.129316   -0.380620
      6          8           0        0.000264   -0.586902   -0.013772
      7          6           0        1.111115    0.140214    0.355457
      8          6           0        1.036575    1.110447    1.358464
      9          6           0        2.185407    1.804591    1.742941
     10          6           0        3.408646    1.561545    1.116863
     11          7           0        4.574243    2.171258    1.587935
     12          6           0        3.485910    0.533981    0.172464
     13          6           0        2.341251   -0.179350   -0.229214
     14          6           0        2.437155   -1.262068   -1.267573
     15          9           0        1.675946   -1.002104   -2.368291
     16          9           0        2.044277   -2.482630   -0.811227
     17          9           0        3.704566   -1.441331   -1.742523
     18          6           0       -2.341750   -0.194041    0.216546
     19          6           0       -2.417656   -1.249192    1.284777
     20          9           0       -1.678975   -0.936556    2.386411
     21          9           0       -3.685613   -1.455997    1.746905
     22          9           0       -1.982659   -2.469345    0.866150
     23          6           0       -3.493943    0.509778   -0.179998
     24          1           0       -4.552780    2.684077   -2.396958
     25          1           0       -5.458245    1.775730   -1.304223
     26          1           0       -2.133166    2.591795   -2.489409
     27          1           0       -0.108168    1.360944   -1.847709
     28          1           0        0.096708    1.316619    1.863996
     29          1           0        2.115823    2.535216    2.544989
     30          1           0        5.339519    2.190251    0.921021
     31          1           0        4.424558    3.074012    2.028236
     32          1           0        4.453314    0.278833   -0.257983
     33          1           0       -4.444378    0.297651    0.307785
 ---------------------------------------------------------------------
 Rotational constants (GHZ):           0.3646018           0.1587814           0.1543522
 Standard basis: 6-31G(d,p) (6D, 7F)
 There are   395 symmetry adapted cartesian basis functions of A   symmetry.
 There are   395 symmetry adapted basis functions of A   symmetry.
   395 basis functions,   714 primitive gaussians,   395 cartesian basis functions
    85 alpha electrons       85 beta electrons
       nuclear repulsion energy      2048.8748046711 Hartrees.
 NAtoms=   33 NActive=   33 NUniq=   33 SFac= 1.00D+00 NAtFMM=   60 NAOKFM=F Big=F
 Integral buffers will be    131072 words long.
 Raffenetti 2 integral format.
 Two-electron integral symmetry is turned on.
 Force inversion solution in PCM.
 ------------------------------------------------------------------------------
 Polarizable Continuum Model (PCM)
 =================================
 Model                : PCM.
 Atomic radii         : UFF (Universal Force Field).
 Polarization charges : Total charges.
 Charge compensation  : None.
 Solution method      : Matrix inversion.
 Cavity type          : Scaled VdW (van der Waals Surface) (Alpha=1.100).
 Cavity algorithm     : GePol (No added spheres)
                        Default sphere list used, NSphG=   33.
                        Lebedev-Laikov grids with approx.  5.0 points / Ang**2.
                        Smoothing algorithm: York/Karplus (Gamma=1.0000).
                        Polarization charges: spherical gaussians, with
                                              point-specific exponents (IZeta= 3).
                        Self-potential: point-specific (ISelfS= 7).
                        Self-field    : sphere-specific E.n sum rule (ISelfD= 2).
 1st derivatives      : Analytical E(r).r(x)/FMM algorithm (CHGder, D1EAlg=3).
                        Cavity 1st derivative terms included.
 2nd derivatives      : Analytical E(r).r(xy)/FMM algorithm (CHGder, D2EAlg=3).
                        Cavity 2nd derivative terms included.
 Solvent              : Water, Eps=  78.355300 Eps(inf)=   1.777849
 ------------------------------------------------------------------------------
 One-electron integrals computed using PRISM.
 NBasis=   395 RedAO= T EigKep=  3.46D-04  NBF=   395
 NBsUse=   395 1.00D-06 EigRej= -1.00D+00 NBFU=   395
 ExpMin= 1.61D-01 ExpMax= 7.00D+03 ExpMxC= 1.05D+03 IAcc=3 IRadAn=         5 AccDes= 0.00D+00
 Harris functional with IExCor=  402 and IRadAn=       5 diagonalized for initial guess.
 HarFok:  IExCor=  402 AccDes= 0.00D+00 IRadAn=         5 IDoV= 1 UseB2=F ITyADJ=14
 ICtDFT=  3500011 ScaDFX=  1.000000  1.000000  1.000000  1.000000
 FoFCou: FMM=F IPFlag=           0 FMFlag=      100000 FMFlg1=           0
         NFxFlg=           0 DoJE=T BraDBF=F KetDBF=T FulRan=T
         wScrn=  0.000000 ICntrl=       500 IOpCl=  0 I1Cent=   200000004 NGrid=           0
         NMat0=    1 NMatS0=      1 NMatT0=    0 NMatD0=    1 NMtDS0=    0 NMtDT0=    0
 Petite list used in FoFCou.
 Requested convergence on RMS density matrix=1.00D-08 within  32 cycles.
 Requested convergence on MAX density matrix=1.00D-06.
 Requested convergence on             energy=1.00D-06.
 No special actions if energy rises.
 Inv3:  Mode=1 IEnd=    22293228.
 Iteration    1 A*A^-1 deviation from unit magnitude is 3.55D-15 for   2687.
 Iteration    1 A*A^-1 deviation from orthogonality  is 2.00D-15 for   2617   2151.
 Iteration    1 A^-1*A deviation from unit magnitude is 3.33D-15 for   2687.
 Iteration    1 A^-1*A deviation from orthogonality  is 2.11D-15 for   2581   1986.
 Error on total polarization charges =  0.00596
 SCF Done:  E(RB3LYP) =  -1323.32036344     A.U. after   13 cycles
            NFock= 13  Conv=0.43D-08     -V/T= 2.0082
 QCSCF skips out because SCF is already converged.
 DoSCS=F DFT=T ScalE2(SS,OS)=  1.000000  1.000000
 Range of M.O.s used for correlation:     1   395
 NBasis=   395 NAE=    85 NBE=    85 NFC=     0 NFV=     0
 NROrb=    395 NOA=    85 NOB=    85 NVA=   310 NVB=   310
 Symmetrizing basis deriv contribution to polar:
 IMax=3 JMax=2 DiffMx= 0.00D+00
 G2DrvN: will do    34 centers at a time, making    1 passes.
 Calling FoFCou, ICntrl=  3107 FMM=F I1Cent=   0 AccDes= 0.00D+00.
 NEqPCM:  Using equilibrium solvation (IEInf=0, Eps=  78.3553, EpsInf=   1.7778)
 G2PCM: DoFxE=T DoFxN=T DoGrad=T DoDP/DQ/DG/TGxP=FFFF NFrqRd=   0 IEInf=0 SqF1=F DoCFld=F IF1Alg=4.
 End of G2Drv F.D. properties file   721 does not exist.
 End of G2Drv F.D. properties file   722 does not exist.
 End of G2Drv F.D. properties file   788 does not exist.
          IDoAtm=111111111111111111111111111111111
 NEqPCM:  Using equilibrium solvation (IEInf=0, Eps=  78.3553, EpsInf=   1.7778)
          Differentiating once with respect to nuclear coordinates.
 CalDSu exits because no D1Ps are significant.
          There are   102 degrees of freedom in the 1st order CPHF.  IDoFFX=6 NUNeed=     0.
     96 vectors produced by pass  0 Test12= 2.63D-14 1.00D-09 XBig12= 1.43D-01 6.65D-02.
 AX will form    96 AO Fock derivatives at one time.
     96 vectors produced by pass  1 Test12= 2.63D-14 1.00D-09 XBig12= 3.60D-02 3.20D-02.
     96 vectors produced by pass  2 Test12= 2.63D-14 1.00D-09 XBig12= 4.49D-04 1.86D-03.
     96 vectors produced by pass  3 Test12= 2.63D-14 1.00D-09 XBig12= 1.76D-06 1.31D-04.
     96 vectors produced by pass  4 Test12= 2.63D-14 1.00D-09 XBig12= 3.25D-09 3.89D-06.
     88 vectors produced by pass  5 Test12= 2.63D-14 1.00D-09 XBig12= 4.04D-12 1.48D-07.
     30 vectors produced by pass  6 Test12= 2.63D-14 1.00D-09 XBig12= 4.17D-15 4.02D-09.
 InvSVY:  IOpt=1 It=  1 EMax= 4.44D-16
 Solved reduced A of dimension   598 with   102 vectors.
 End of Minotr F.D. properties file   721 does not exist.
 End of Minotr F.D. properties file   722 does not exist.
 End of Minotr F.D. properties file   788 does not exist.

 **********************************************************************

            Population analysis using the SCF density.

 **********************************************************************

 Orbital symmetries:
       Occupied  (A) (A) (A) (A) (A) (A) (A) (A) (A) (A) (A) (A)
                 (A) (A) (A) (A) (A) (A) (A) (A) (A) (A) (A) (A)
                 (A) (A) (A) (A) (A) (A) (A) (A) (A) (A) (A) (A)
                 (A) (A) (A) (A) (A) (A) (A) (A) (A) (A) (A) (A)
                 (A) (A) (A) (A) (A) (A) (A) (A) (A) (A) (A) (A)
                 (A) (A) (A) (A) (A) (A) (A) (A) (A) (A) (A) (A)
                 (A) (A) (A) (A) (A) (A) (A) (A) (A) (A) (A) (A)
                 (A)
       Virtual   (A) (A) (A) (A) (A) (A) (A) (A) (A) (A) (A) (A)
                 (A) (A) (A) (A) (A) (A) (A) (A) (A) (A) (A) (A)
                 (A) (A) (A) (A) (A) (A) (A) (A) (A) (A) (A) (A)
                 (A) (A) (A) (A) (A) (A) (A) (A) (A) (A) (A) (A)
                 (A) (A) (A) (A) (A) (A) (A) (A) (A) (A) (A) (A)
                 (A) (A) (A) (A) (A) (A) (A) (A) (A) (A) (A) (A)
                 (A) (A) (A) (A) (A) (A) (A) (A) (A) (A) (A) (A)
                 (A) (A) (A) (A) (A) (A) (A) (A) (A) (A) (A) (A)
                 (A) (A) (A) (A) (A) (A) (A) (A) (A) (A) (A) (A)
                 (A) (A) (A) (A) (A) (A) (A) (A) (A) (A) (A) (A)
                 (A) (A) (A) (A) (A) (A) (A) (A) (A) (A) (A) (A)
                 (A) (A) (A) (A) (A) (A) (A) (A) (A) (A) (A) (A)
                 (A) (A) (A) (A) (A) (A) (A) (A) (A) (A) (A) (A)
                 (A) (A) (A) (A) (A) (A) (A) (A) (A) (A) (A) (A)
                 (A) (A) (A) (A) (A) (A) (A) (A) (A) (A) (A) (A)
                 (A) (A) (A) (A) (A) (A) (A) (A) (A) (A) (A) (A)
                 (A) (A) (A) (A) (A) (A) (A) (A) (A) (A) (A) (A)
                 (A) (A) (A) (A) (A) (A) (A) (A) (A) (A) (A) (A)
                 (A) (A) (A) (A) (A) (A) (A) (A) (A) (A) (A) (A)
                 (A) (A) (A) (A) (A) (A) (A) (A) (A) (A) (A) (A)
                 (A) (A) (A) (A) (A) (A) (A) (A) (A) (A) (A) (A)
                 (A) (A) (A) (A) (A) (A) (A) (A) (A) (A) (A) (A)
                 (A) (A) (A) (A) (A) (A) (A) (A) (A) (A) (A) (A)
                 (A) (A) (A) (A) (A) (A) (A) (A) (A) (A) (A) (A)
                 (A) (A) (A) (A) (A) (A) (A) (A) (A) (A) (A) (A)
                 (A) (A) (A) (A) (A) (A) (A) (A) (A) (A)
 The electronic state is 1-A.
 Alpha  occ. eigenvalues --  -24.72709 -24.72694 -24.72413 -24.72333 -24.72320
 Alpha  occ. eigenvalues --  -24.72315 -19.19513 -14.34237 -14.34235 -10.43943
 Alpha  occ. eigenvalues --  -10.43921 -10.25969 -10.25946 -10.23785 -10.23783
 Alpha  occ. eigenvalues --  -10.22103 -10.22075 -10.20428 -10.20406 -10.20359
 Alpha  occ. eigenvalues --  -10.20351 -10.19957 -10.19944  -1.29846  -1.29817
 Alpha  occ. eigenvalues --   -1.21131  -1.21112  -1.21059  -1.21018  -1.09105
 Alpha  occ. eigenvalues --   -0.92353  -0.92264  -0.86695  -0.84819  -0.78486
 Alpha  occ. eigenvalues --   -0.78441  -0.75514  -0.72730  -0.70324  -0.69389
 Alpha  occ. eigenvalues --   -0.64449  -0.63505  -0.63176  -0.60492  -0.57907
 Alpha  occ. eigenvalues --   -0.57871  -0.57814  -0.57640  -0.57297  -0.55854
 Alpha  occ. eigenvalues --   -0.53864  -0.52101  -0.52061  -0.49414  -0.49086
 Alpha  occ. eigenvalues --   -0.47055  -0.45988  -0.45951  -0.45887  -0.45634
 Alpha  occ. eigenvalues --   -0.45450  -0.44575  -0.44371  -0.43472  -0.42054
 Alpha  occ. eigenvalues --   -0.41941  -0.41554  -0.41231  -0.40778  -0.40569
 Alpha  occ. eigenvalues --   -0.39921  -0.39810  -0.39769  -0.39596  -0.38873
 Alpha  occ. eigenvalues --   -0.38141  -0.37513  -0.35905  -0.34404  -0.31515
 Alpha  occ. eigenvalues --   -0.29459  -0.27114  -0.26663  -0.21651  -0.20236
 Alpha virt. eigenvalues --   -0.03519  -0.02287  -0.00262   0.00508   0.08148
 Alpha virt. eigenvalues --    0.08838   0.10368   0.10747   0.12227   0.12420
 Alpha virt. eigenvalues --    0.12791   0.12986   0.13163   0.13527   0.16456
 Alpha virt. eigenvalues --    0.16671   0.17122   0.18863   0.19133   0.21085
 Alpha virt. eigenvalues --    0.21493   0.21639   0.21777   0.23743   0.26200
 Alpha virt. eigenvalues --    0.26390   0.27300   0.29314   0.31456   0.32630
 Alpha virt. eigenvalues --    0.33629   0.33791   0.36141   0.36650   0.38220
 Alpha virt. eigenvalues --    0.39146   0.45907   0.46585   0.46772   0.48264
 Alpha virt. eigenvalues --    0.48665   0.48747   0.49410   0.50287   0.52375
 Alpha virt. eigenvalues --    0.53269   0.53738   0.54750   0.55401   0.55783
 Alpha virt. eigenvalues --    0.56595   0.56665   0.57801   0.58099   0.58593
 Alpha virt. eigenvalues --    0.59411   0.60221   0.60733   0.61114   0.62075
 Alpha virt. eigenvalues --    0.62741   0.63721   0.64237   0.66563   0.67342
 Alpha virt. eigenvalues --    0.68137   0.69227   0.69480   0.70004   0.70878
 Alpha virt. eigenvalues --    0.73504   0.76881   0.77898   0.78330   0.79636
 Alpha virt. eigenvalues --    0.80339   0.80834   0.80876   0.83257   0.84008
 Alpha virt. eigenvalues --    0.84782   0.85265   0.85880   0.86646   0.88397
 Alpha virt. eigenvalues --    0.88903   0.89452   0.90658   0.91554   0.92963
 Alpha virt. eigenvalues --    0.96462   0.96805   0.97395   0.97565   1.00434
 Alpha virt. eigenvalues --    1.01394   1.02204   1.02520   1.05670   1.06841
 Alpha virt. eigenvalues --    1.07752   1.07964   1.09667   1.09883   1.10821
 Alpha virt. eigenvalues --    1.12168   1.13857   1.14197   1.14378   1.15293
 Alpha virt. eigenvalues --    1.18026   1.19087   1.19691   1.20967   1.21914
 Alpha virt. eigenvalues --    1.23050   1.24482   1.25277   1.26424   1.30296
 Alpha virt. eigenvalues --    1.31189   1.31957   1.32394   1.33225   1.33594
 Alpha virt. eigenvalues --    1.33888   1.36710   1.36799   1.37414   1.37664
 Alpha virt. eigenvalues --    1.37960   1.38271   1.38501   1.38843   1.39687
 Alpha virt. eigenvalues --    1.40443   1.41256   1.42292   1.43064   1.44353
 Alpha virt. eigenvalues --    1.45887   1.49719   1.51177   1.51454   1.56153
 Alpha virt. eigenvalues --    1.60071   1.60433   1.61393   1.64443   1.64954
 Alpha virt. eigenvalues --    1.67223   1.68446   1.69774   1.70351   1.72668
 Alpha virt. eigenvalues --    1.72986   1.74204   1.74494   1.75455   1.76828
 Alpha virt. eigenvalues --    1.78230   1.78850   1.80952   1.82563   1.82927
 Alpha virt. eigenvalues --    1.83126   1.85080   1.85275   1.85730   1.85846
 Alpha virt. eigenvalues --    1.86513   1.87970   1.88382   1.88958   1.89881
 Alpha virt. eigenvalues --    1.90193   1.91072   1.93314   1.94532   1.95583
 Alpha virt. eigenvalues --    1.95806   1.96654   1.96953   1.98062   1.98440
 Alpha virt. eigenvalues --    1.98966   1.99671   1.99928   2.00858   2.02354
 Alpha virt. eigenvalues --    2.03702   2.04554   2.05407   2.05694   2.06305
 Alpha virt. eigenvalues --    2.07278   2.07446   2.09090   2.09956   2.12185
 Alpha virt. eigenvalues --    2.14436   2.14613   2.16077   2.16479   2.17361
 Alpha virt. eigenvalues --    2.18639   2.22304   2.22523   2.24707   2.25293
 Alpha virt. eigenvalues --    2.26892   2.27409   2.28437   2.30797   2.30997
 Alpha virt. eigenvalues --    2.32138   2.33554   2.34221   2.35703   2.36382
 Alpha virt. eigenvalues --    2.36987   2.40506   2.40714   2.41987   2.42781
 Alpha virt. eigenvalues --    2.44467   2.45880   2.47026   2.47402   2.47850
 Alpha virt. eigenvalues --    2.49556   2.50658   2.50798   2.52941   2.53186
 Alpha virt. eigenvalues --    2.53695   2.54430   2.56573   2.57329   2.60513
 Alpha virt. eigenvalues --    2.60988   2.64025   2.64431   2.66284   2.69001
 Alpha virt. eigenvalues --    2.69803   2.71495   2.72032   2.73229   2.74539
 Alpha virt. eigenvalues --    2.75515   2.76644   2.79052   2.82589   2.83451
 Alpha virt. eigenvalues --    2.84984   2.85745   2.86252   2.91629   2.95050
 Alpha virt. eigenvalues --    2.96662   2.97745   3.00742   3.01039   3.03109
 Alpha virt. eigenvalues --    3.03582   3.05217   3.06300   3.06985   3.07803
 Alpha virt. eigenvalues --    3.11930   3.14415   3.17489   3.18131   3.21795
 Alpha virt. eigenvalues --    3.27194   3.27656   3.28046   3.31185   3.32194
 Alpha virt. eigenvalues --    3.33642   3.43979   3.44057   3.52046   3.52588
 Alpha virt. eigenvalues --    3.75267   3.76879   4.03517   4.03670   4.09969
 Alpha virt. eigenvalues --    4.10210   4.12866   4.13826   4.14552   4.18969
 Alpha virt. eigenvalues --    4.30282   4.30573   4.31438   4.32294   4.39860
 Alpha virt. eigenvalues --    4.44378   4.51796   4.52577   4.57503   4.74358
 Alpha virt. eigenvalues --    4.83853   4.92122   4.99365   5.76976   5.98317
          Condensed to atoms (all electrons):
               1          2          3          4          5          6
     1  N    6.819904   0.301710  -0.071435   0.004513   0.000720   0.000000
     2  C    0.301710   4.606072   0.520535  -0.011408  -0.037770  -0.000067
     3  C   -0.071435   0.520535   4.954941   0.481471  -0.013862   0.004776
     4  C    0.004513  -0.011408   0.481471   5.002756   0.456245  -0.063761
     5  C    0.000720  -0.037770  -0.013862   0.456245   4.741653   0.238677
     6  O    0.000000  -0.000067   0.004776  -0.063761   0.238677   8.371640
     7  C    0.000000   0.000108  -0.000496   0.003040  -0.027270   0.237599
     8  C    0.000000   0.000019  -0.000323   0.002561   0.002622  -0.063441
     9  C   -0.000000   0.000000   0.000003  -0.000321  -0.000315   0.004726
    10  C   -0.000000   0.000000  -0.000000   0.000026   0.000053  -0.000101
    11  N    0.000000   0.000000  -0.000000  -0.000000  -0.000000  -0.000000
    12  C   -0.000000  -0.000000   0.000002  -0.000120  -0.000069   0.004532
    13  C    0.000000   0.000002   0.000012   0.000976  -0.004730  -0.064441
    14  C   -0.000000   0.000000  -0.000001  -0.000048   0.000286   0.000371
    15  F   -0.000000   0.000000   0.000021  -0.000035   0.000283  -0.000574
    16  F    0.000000   0.000000  -0.000000  -0.000006   0.000235  -0.000454
    17  F   -0.000000   0.000000   0.000000  -0.000000   0.000003   0.000001
    18  C    0.004367  -0.013045  -0.040788  -0.050785   0.445576  -0.064647
    19  C   -0.000075   0.005244  -0.000594   0.007423  -0.028660   0.000654
    20  F    0.000000  -0.000007  -0.000012   0.000201   0.000094  -0.000668
    21  F   -0.000001   0.000779  -0.000002  -0.000026   0.002585   0.000002
    22  F    0.000000  -0.000030  -0.000005   0.000063  -0.001623  -0.000339
    23  C   -0.064793   0.475453  -0.042096  -0.056516  -0.029539   0.004424
    24  H    0.345073  -0.024862  -0.009265  -0.000008  -0.000006  -0.000000
    25  H    0.344152  -0.023959   0.005452  -0.000186  -0.000004  -0.000000
    26  H   -0.006831  -0.039892   0.365349  -0.029703   0.003664  -0.000052
    27  H   -0.000106   0.003767  -0.032271   0.363122  -0.039986  -0.006776
    28  H    0.000000  -0.000004  -0.000139   0.001060   0.004963  -0.006541
    29  H    0.000000  -0.000000  -0.000000   0.000002  -0.000002  -0.000053
    30  H    0.000000   0.000000  -0.000000  -0.000000  -0.000000  -0.000000
    31  H    0.000000   0.000000  -0.000000  -0.000000  -0.000000  -0.000000
    32  H   -0.000000  -0.000000  -0.000000   0.000001  -0.000002  -0.000048
    33  H   -0.007184  -0.033607   0.005702   0.000168   0.003913  -0.000050
               7          8          9         10         11         12
     1  N    0.000000   0.000000  -0.000000  -0.000000   0.000000  -0.000000
     2  C    0.000108   0.000019   0.000000   0.000000   0.000000  -0.000000
     3  C   -0.000496  -0.000323   0.000003  -0.000000  -0.000000   0.000002
     4  C    0.003040   0.002561  -0.000321   0.000026  -0.000000  -0.000120
     5  C   -0.027270   0.002622  -0.000315   0.000053  -0.000000  -0.000069
     6  O    0.237599  -0.063441   0.004726  -0.000101  -0.000000   0.004532
     7  C    4.743521   0.458291  -0.015603  -0.037572   0.000688  -0.028370
     8  C    0.458291   4.996525   0.486376  -0.013647   0.004468  -0.055449
     9  C   -0.015603   0.486376   4.951793   0.521591  -0.071233  -0.042579
    10  C   -0.037572  -0.013647   0.521591   4.605304   0.302792   0.473837
    11  N    0.000688   0.004468  -0.071233   0.302792   6.818440  -0.065116
    12  C   -0.028370  -0.055449  -0.042579   0.473837  -0.065116   5.077110
    13  C    0.444176  -0.050414  -0.041006  -0.011328   0.004476   0.467289
    14  C   -0.029435   0.007365  -0.000588   0.005325  -0.000073  -0.039041
    15  F   -0.000754   0.000167  -0.000007  -0.000027   0.000000   0.001151
    16  F   -0.000494   0.000106  -0.000010  -0.000011   0.000000   0.000904
    17  F    0.002603  -0.000025  -0.000002   0.000782  -0.000001   0.002665
    18  C   -0.004433   0.000884   0.000020  -0.000001  -0.000000   0.000012
    19  C    0.000256  -0.000060  -0.000002   0.000001   0.000000  -0.000001
    20  F    0.000173  -0.000379   0.000025   0.000000  -0.000000  -0.000001
    21  F    0.000003  -0.000000   0.000000   0.000000   0.000000  -0.000000
    22  F    0.000286  -0.000009  -0.000000   0.000000   0.000000  -0.000000
    23  C   -0.000144  -0.000119   0.000002  -0.000000  -0.000000   0.000000
    24  H    0.000000   0.000000   0.000000  -0.000000   0.000000  -0.000000
    25  H    0.000000  -0.000000   0.000000   0.000000   0.000000   0.000000
    26  H   -0.000006   0.000002  -0.000000  -0.000000   0.000000  -0.000000
    27  H    0.005377   0.001111  -0.000176   0.000019   0.000000  -0.000082
    28  H   -0.040417   0.362051  -0.032073   0.003834  -0.000104   0.000487
    29  H    0.003700  -0.029616   0.365566  -0.040155  -0.006794   0.005133
    30  H   -0.000016  -0.000174   0.005393  -0.024121   0.344658  -0.009203
    31  H   -0.000005   0.000000  -0.009206  -0.024815   0.345532   0.005322
    32  H    0.003975   0.000190   0.005617  -0.034112  -0.007085   0.363677
    33  H   -0.000003   0.000001  -0.000000  -0.000000  -0.000000   0.000000
              13         14         15         16         17         18
     1  N    0.000000  -0.000000  -0.000000   0.000000  -0.000000   0.004367
     2  C    0.000002   0.000000   0.000000   0.000000   0.000000  -0.013045
     3  C    0.000012  -0.000001   0.000021  -0.000000   0.000000  -0.040788
     4  C    0.000976  -0.000048  -0.000035  -0.000006  -0.000000  -0.050785
     5  C   -0.004730   0.000286   0.000283   0.000235   0.000003   0.445576
     6  O   -0.064441   0.000371  -0.000574  -0.000454   0.000001  -0.064647
     7  C    0.444176  -0.029435  -0.000754  -0.000494   0.002603  -0.004433
     8  C   -0.050414   0.007365   0.000167   0.000106  -0.000025   0.000884
     9  C   -0.041006  -0.000588  -0.000007  -0.000010  -0.000002   0.000020
    10  C   -0.011328   0.005325  -0.000027  -0.000011   0.000782  -0.000001
    11  N    0.004476  -0.000073   0.000000   0.000000  -0.000001  -0.000000
    12  C    0.467289  -0.039041   0.001151   0.000904   0.002665   0.000012
    13  C    5.256075   0.262697  -0.047355  -0.046529  -0.045293  -0.000536
    14  C    0.262697   4.135029   0.277582   0.281112   0.285889  -0.000039
    15  F   -0.047355   0.277582   9.120852  -0.038278  -0.038990   0.000021
    16  F   -0.046529   0.281112  -0.038278   9.118208  -0.039086  -0.000004
    17  F   -0.045293   0.285889  -0.038990  -0.039086   9.106411   0.000000
    18  C   -0.000536  -0.000039   0.000021  -0.000004   0.000000   5.254243
    19  C   -0.000033   0.000010   0.000001  -0.000001   0.000000   0.261780
    20  F    0.000022   0.000001  -0.000000  -0.000000  -0.000000  -0.049992
    21  F    0.000000   0.000000  -0.000000  -0.000000  -0.000000  -0.045118
    22  F   -0.000005  -0.000001  -0.000000   0.000000  -0.000000  -0.043621
    23  C    0.000009  -0.000001  -0.000001  -0.000000  -0.000000   0.470097
    24  H    0.000000  -0.000000   0.000000   0.000000   0.000000  -0.000157
    25  H    0.000000  -0.000000  -0.000000   0.000000  -0.000000  -0.000057
    26  H   -0.000000  -0.000000  -0.000000  -0.000000  -0.000000   0.000575
    27  H    0.000628   0.000276   0.003343   0.000011   0.000002   0.005420
    28  H    0.005523  -0.000060   0.000001   0.000001   0.000000   0.000325
    29  H    0.000544   0.000005  -0.000000  -0.000000  -0.000000   0.000000
    30  H    0.000015  -0.000000  -0.000000   0.000000  -0.000002  -0.000000
    31  H   -0.000144   0.000001  -0.000000  -0.000000  -0.000000  -0.000000
    32  H   -0.039702  -0.007150   0.000169   0.000172   0.009438  -0.000000
    33  H   -0.000000  -0.000000  -0.000000  -0.000000  -0.000000  -0.039885
              19         20         21         22         23         24
     1  N   -0.000075   0.000000  -0.000001   0.000000  -0.064793   0.345073
     2  C    0.005244  -0.000007   0.000779  -0.000030   0.475453  -0.024862
     3  C   -0.000594  -0.000012  -0.000002  -0.000005  -0.042096  -0.009265
     4  C    0.007423   0.000201  -0.000026   0.000063  -0.056516  -0.000008
     5  C   -0.028660   0.000094   0.002585  -0.001623  -0.029539  -0.000006
     6  O    0.000654  -0.000668   0.000002  -0.000339   0.004424  -0.000000
     7  C    0.000256   0.000173   0.000003   0.000286  -0.000144   0.000000
     8  C   -0.000060  -0.000379  -0.000000  -0.000009  -0.000119   0.000000
     9  C   -0.000002   0.000025   0.000000  -0.000000   0.000002   0.000000
    10  C    0.000001   0.000000   0.000000   0.000000  -0.000000  -0.000000
    11  N    0.000000  -0.000000   0.000000   0.000000  -0.000000   0.000000
    12  C   -0.000001  -0.000001  -0.000000  -0.000000   0.000000  -0.000000
    13  C   -0.000033   0.000022   0.000000  -0.000005   0.000009   0.000000
    14  C    0.000010   0.000001   0.000000  -0.000001  -0.000001  -0.000000
    15  F    0.000001  -0.000000  -0.000000  -0.000000  -0.000001   0.000000
    16  F   -0.000001  -0.000000  -0.000000   0.000000  -0.000000   0.000000
    17  F    0.000000  -0.000000  -0.000000  -0.000000  -0.000000   0.000000
    18  C    0.261780  -0.049992  -0.045118  -0.043621   0.470097  -0.000157
    19  C    4.136276   0.280176   0.285686   0.278156  -0.039120   0.000001
    20  F    0.280176   9.117604  -0.039040  -0.038270   0.000651  -0.000000
    21  F    0.285686  -0.039040   9.106281  -0.039003   0.002677  -0.000000
    22  F    0.278156  -0.038270  -0.039003   9.119449   0.001426  -0.000000
    23  C   -0.039120   0.000651   0.002677   0.001426   5.073907   0.005321
    24  H    0.000001  -0.000000  -0.000000  -0.000000   0.005321   0.424494
    25  H   -0.000002   0.000000  -0.000002  -0.000000  -0.009246  -0.027686
    26  H    0.000005  -0.000000  -0.000000  -0.000000   0.005127   0.004242
    27  H   -0.000061   0.000001   0.000000   0.000001   0.000538  -0.000005
    28  H    0.000323   0.004595   0.000004   0.000016  -0.000057  -0.000000
    29  H   -0.000000  -0.000001  -0.000000  -0.000000  -0.000000  -0.000000
    30  H    0.000000  -0.000000  -0.000000  -0.000000  -0.000000   0.000000
    31  H    0.000000   0.000000   0.000000  -0.000000   0.000000   0.000000
    32  H   -0.000000  -0.000000  -0.000000  -0.000000   0.000000  -0.000000
    33  H   -0.007101   0.000165   0.009438   0.000175   0.363222  -0.000068
              25         26         27         28         29         30
     1  N    0.344152  -0.006831  -0.000106   0.000000   0.000000   0.000000
     2  C   -0.023959  -0.039892   0.003767  -0.000004  -0.000000   0.000000
     3  C    0.005452   0.365349  -0.032271  -0.000139  -0.000000  -0.000000
     4  C   -0.000186  -0.029703   0.363122   0.001060   0.000002  -0.000000
     5  C   -0.000004   0.003664  -0.039986   0.004963  -0.000002  -0.000000
     6  O   -0.000000  -0.000052  -0.006776  -0.006541  -0.000053  -0.000000
     7  C    0.000000  -0.000006   0.005377  -0.040417   0.003700  -0.000016
     8  C   -0.000000   0.000002   0.001111   0.362051  -0.029616  -0.000174
     9  C    0.000000  -0.000000  -0.000176  -0.032073   0.365566   0.005393
    10  C    0.000000  -0.000000   0.000019   0.003834  -0.040155  -0.024121
    11  N    0.000000   0.000000   0.000000  -0.000104  -0.006794   0.344658
    12  C    0.000000  -0.000000  -0.000082   0.000487   0.005133  -0.009203
    13  C    0.000000  -0.000000   0.000628   0.005523   0.000544   0.000015
    14  C   -0.000000  -0.000000   0.000276  -0.000060   0.000005  -0.000000
    15  F   -0.000000  -0.000000   0.003343   0.000001  -0.000000  -0.000000
    16  F    0.000000  -0.000000   0.000011   0.000001  -0.000000   0.000000
    17  F   -0.000000  -0.000000   0.000002   0.000000  -0.000000  -0.000002
    18  C   -0.000057   0.000575   0.005420   0.000325   0.000000  -0.000000
    19  C   -0.000002   0.000005  -0.000061   0.000323  -0.000000   0.000000
    20  F    0.000000  -0.000000   0.000001   0.004595  -0.000001  -0.000000
    21  F   -0.000002  -0.000000   0.000000   0.000004  -0.000000  -0.000000
    22  F   -0.000000  -0.000000   0.000001   0.000016  -0.000000  -0.000000
    23  C   -0.009246   0.005127   0.000538  -0.000057  -0.000000  -0.000000
    24  H   -0.027686   0.004242  -0.000005  -0.000000  -0.000000   0.000000
    25  H    0.424818  -0.000048   0.000003  -0.000000  -0.000000  -0.000000
    26  H   -0.000048   0.588098  -0.005901  -0.000001  -0.000000   0.000000
    27  H    0.000003  -0.005901   0.580318   0.000086  -0.000001   0.000000
    28  H   -0.000000  -0.000001   0.000086   0.581334  -0.006001   0.000003
    29  H   -0.000000  -0.000000  -0.000001  -0.006001   0.588047  -0.000052
    30  H   -0.000000   0.000000   0.000000   0.000003  -0.000052   0.424157
    31  H   -0.000000   0.000000   0.000000  -0.000005   0.004110  -0.027630
    32  H   -0.000000  -0.000000  -0.000004   0.000011  -0.000176   0.004099
    33  H    0.004121  -0.000176   0.000011  -0.000004  -0.000000  -0.000000
              31         32         33
     1  N    0.000000  -0.000000  -0.007184
     2  C    0.000000  -0.000000  -0.033607
     3  C   -0.000000  -0.000000   0.005702
     4  C   -0.000000   0.000001   0.000168
     5  C   -0.000000  -0.000002   0.003913
     6  O   -0.000000  -0.000048  -0.000050
     7  C   -0.000005   0.003975  -0.000003
     8  C    0.000000   0.000190   0.000001
     9  C   -0.009206   0.005617  -0.000000
    10  C   -0.024815  -0.034112  -0.000000
    11  N    0.345532  -0.007085  -0.000000
    12  C    0.005322   0.363677   0.000000
    13  C   -0.000144  -0.039702  -0.000000
    14  C    0.000001  -0.007150  -0.000000
    15  F   -0.000000   0.000169  -0.000000
    16  F   -0.000000   0.000172  -0.000000
    17  F   -0.000000   0.009438  -0.000000
    18  C   -0.000000  -0.000000  -0.039885
    19  C    0.000000  -0.000000  -0.007101
    20  F    0.000000  -0.000000   0.000165
    21  F    0.000000  -0.000000   0.009438
    22  F   -0.000000  -0.000000   0.000175
    23  C    0.000000   0.000000   0.363222
    24  H    0.000000  -0.000000  -0.000068
    25  H   -0.000000  -0.000000   0.004121
    26  H    0.000000  -0.000000  -0.000176
    27  H    0.000000  -0.000004   0.000011
    28  H   -0.000005   0.000011  -0.000004
    29  H    0.004110  -0.000176  -0.000000
    30  H   -0.027630   0.004099  -0.000000
    31  H    0.423628  -0.000054  -0.000000
    32  H   -0.000054   0.582407  -0.000000
    33  H   -0.000000  -0.000000   0.582486
 Mulliken charges:
               1
     1  N   -0.670014
     2  C    0.270962
     3  C   -0.126977
     4  C   -0.110702
     5  C    0.282265
     6  O   -0.595389
     7  C    0.281219
     8  C   -0.109081
     9  C   -0.127990
    10  C    0.272328
    11  N   -0.670648
    12  C   -0.162090
    13  C   -0.090927
    14  C    0.820488
    15  F   -0.277568
    16  F   -0.275877
    17  F   -0.284395
    18  C   -0.090211
    19  C    0.819720
    20  F   -0.275338
    21  F   -0.284264
    22  F   -0.276667
    23  C   -0.161223
    24  H    0.282926
    25  H    0.282643
    26  H    0.115549
    27  H    0.121333
    28  H    0.120789
    29  H    0.115746
    30  H    0.282872
    31  H    0.283267
    32  H    0.118579
    33  H    0.118676
 Sum of Mulliken charges =  -0.00000
 Mulliken charges with hydrogens summed into heavy atoms:
               1
     1  N   -0.104445
     2  C    0.270962
     3  C   -0.011429
     4  C    0.010632
     5  C    0.282265
     6  O   -0.595389
     7  C    0.281219
     8  C    0.011708
     9  C   -0.012244
    10  C    0.272328
    11  N   -0.104510
    12  C   -0.043511
    13  C   -0.090927
    14  C    0.820488
    15  F   -0.277568
    16  F   -0.275877
    17  F   -0.284395
    18  C   -0.090211
    19  C    0.819720
    20  F   -0.275338
    21  F   -0.284264
    22  F   -0.276667
    23  C   -0.042547
 APT charges:
               1
     1  N   -1.526443
     2  C    0.260786
     3  C   -0.376034
     4  C   -0.594516
     5  C   -0.340569
     6  O   -0.456076
     7  C   -0.353317
     8  C   -0.584783
     9  C   -0.383245
    10  C    0.235674
    11  N   -1.419206
    12  C   -0.457074
    13  C   -0.450502
    14  C    0.011396
    15  F   -0.148425
    16  F   -0.063946
    17  F    0.381043
    18  C   -0.464459
    19  C    0.012332
    20  F   -0.144747
    21  F    0.380433
    22  F   -0.070492
    23  C   -0.443831
    24  H    0.866531
    25  H    0.952567
    26  H    0.658489
    27  H    0.309646
    28  H    0.308937
    29  H    0.660951
    30  H    0.910772
    31  H    0.819914
    32  H    0.757430
    33  H    0.750766
 Sum of APT charges =  -0.00000
 APT charges with hydrogens summed into heavy atoms:
               1
     1  N    0.292656
     2  C    0.260786
     3  C    0.282455
     4  C   -0.284871
     5  C   -0.340569
     6  O   -0.456076
     7  C   -0.353317
     8  C   -0.275847
     9  C    0.277706
    10  C    0.235674
    11  N    0.311480
    12  C    0.300356
    13  C   -0.450502
    14  C    0.011396
    15  F   -0.148425
    16  F   -0.063946
    17  F    0.381043
    18  C   -0.464459
    19  C    0.012332
    20  F   -0.144747
    21  F    0.380433
    22  F   -0.070492
    23  C    0.306935
 Electronic spatial extent (au):  <R**2>=           7507.1743
 Charge=              0.0000 electrons
 Dipole moment (field-independent basis, Debye):
    X=             -0.4755    Y=              7.9418    Z=             -1.6908  Tot=              8.1337
 Quadrupole moment (field-independent basis, Debye-Ang):
   XX=            -91.5103   YY=           -120.7519   ZZ=           -123.1480
   XY=              7.5972   XZ=             15.9888   YZ=             -1.4377
 Traceless Quadrupole moment (field-independent basis, Debye-Ang):
   XX=             20.2931   YY=             -8.9485   ZZ=            -11.3446
   XY=              7.5972   XZ=             15.9888   YZ=             -1.4377
 Octapole moment (field-independent basis, Debye-Ang**2):
  XXX=            -33.7837  YYY=            -19.5439  ZZZ=            -15.1963  XYY=             38.8439
  XXY=             86.8866  XXZ=            -50.7045  XZZ=            -29.7620  YZZ=             20.6758
  YYZ=              3.3879  XYZ=             33.9872
 Hexadecapole moment (field-independent basis, Debye-Ang**3):
 XXXX=          -4585.1318 YYYY=          -1593.9733 ZZZZ=          -1411.1806 XXXY=            139.7465
 XXXZ=            135.2264 YYYX=            149.6681 YYYZ=             26.9813 ZZZX=            -64.5505
 ZZZY=            -30.3404 XXYY=          -1063.6243 XXZZ=          -1166.5754 YYZZ=           -411.8923
 XXYZ=            -53.9798 YYXZ=            114.2106 ZZXY=            -48.3043
 N-N= 2.048874804671D+03 E-N=-7.210167300832D+03  KE= 1.312537654760D+03
  Exact polarizability:   0.000   0.000   0.000   0.000   0.000   0.000
 Approx polarizability: 345.110   0.384 226.441  -4.529   0.017 213.270
 D2PCM: PCM CHGder 2nd derivatives, FixD1E=F FixD2E=F DoIter=F DoCFld=F I1PDM=0
 Calling FoFJK, ICntrl=    100147 FMM=F ISym2X=0 I1Cent= 0 IOpClX= 0 NMat=1 NMatS=1 NMatT=0.
 ***** Axes restored to original set *****
 -------------------------------------------------------------------
 Center     Atomic                   Forces (Hartrees/Bohr)
 Number     Number              X              Y              Z
 -------------------------------------------------------------------
      1        7          -0.001589902   -0.003637242    0.002499774
      2        6          -0.006004320    0.013481247   -0.009880792
      3        6           0.012589918   -0.007647172    0.002334051
      4        6          -0.006431687    0.000994149   -0.003417110
      5        6          -0.002051498   -0.002856974   -0.001497528
      6        8           0.000004803   -0.002039152    0.007510858
      7        6           0.002221843    0.003459615    0.000613995
      8        6           0.006509361    0.001508226   -0.003428841
      9        6          -0.015079488    0.001812835   -0.000385545
     10        6           0.013964607    0.006598255    0.008130824
     11        7          -0.001214954   -0.002238562   -0.003840893
     12        6          -0.003224149   -0.012537957    0.005285697
     13        6           0.009241267    0.004161273   -0.006683564
     14        6           0.003065820   -0.014265043    0.005970288
     15        9           0.000614981    0.006679565    0.000253388
     16        9          -0.000540582    0.002966577   -0.006773895
     17        9          -0.004302679    0.008642163   -0.003009551
     18        6          -0.009436421   -0.000837584   -0.007458455
     19        6          -0.003072116    0.008696222    0.012461789
     20        9          -0.000401788   -0.005612715   -0.002757400
     21        9           0.004316915   -0.005524705   -0.007267416
     22        9           0.000169966    0.000732134   -0.007607803
     23        6           0.001447225    0.001654508    0.014559905
     24        1          -0.001739254    0.002264892    0.002595805
     25        1           0.001499299   -0.002021401   -0.002925608
     26        1          -0.001087968   -0.000451836    0.001037008
     27        1           0.000232252    0.002209315    0.002798683
     28        1          -0.000057279   -0.003414797    0.001390262
     29        1           0.000577647   -0.001149308   -0.000576733
     30        1          -0.001464551    0.003137227   -0.001228644
     31        1           0.001865200   -0.003310364    0.001226785
     32        1          -0.003389913    0.000650127   -0.000317829
     33        1           0.002767443   -0.002103519    0.000388495
 -------------------------------------------------------------------
 Cartesian Forces:  Max     0.015079488 RMS     0.005532068
 FormGI is forming the generalized inverse of G from B-inverse, IUseBI=4.

 GradGradGradGradGradGradGradGradGradGradGradGradGradGradGradGradGradGrad
 Berny optimization.
 Internal  Forces:  Max     0.010497333 RMS     0.003415670
 Search for a local minimum.
 Step number   1 out of a maximum of  171
 All quantities printed in internal units (Hartrees-Bohrs-Radians)
 Mixed Optimization -- RFO/linear search
 Second derivative matrix not updated -- analytic derivatives used.
 ITU=  0
     Eigenvalues ---    0.00260   0.00348   0.00400   0.00441   0.00527
     Eigenvalues ---    0.00537   0.01346   0.01379   0.01585   0.01594
     Eigenvalues ---    0.01745   0.01762   0.01796   0.01806   0.01994
     Eigenvalues ---    0.01996   0.02231   0.02268   0.02407   0.02428
     Eigenvalues ---    0.02654   0.02664   0.02716   0.02785   0.02885
     Eigenvalues ---    0.02944   0.11176   0.11244   0.11793   0.11816
     Eigenvalues ---    0.12025   0.12047   0.12268   0.12306   0.12550
     Eigenvalues ---    0.12581   0.13486   0.13541   0.15492   0.15534
     Eigenvalues ---    0.17755   0.17934   0.18188   0.19147   0.19418
     Eigenvalues ---    0.19605   0.20426   0.20529   0.20910   0.20939
     Eigenvalues ---    0.22634   0.22954   0.23168   0.23342   0.23768
     Eigenvalues ---    0.24301   0.24595   0.25676   0.25784   0.31957
     Eigenvalues ---    0.32647   0.33102   0.33160   0.33188   0.33392
     Eigenvalues ---    0.34656   0.35381   0.35388   0.35826   0.35856
     Eigenvalues ---    0.36052   0.36404   0.37477   0.38427   0.38580
     Eigenvalues ---    0.41376   0.42339   0.42590   0.44409   0.45406
     Eigenvalues ---    0.45511   0.45827   0.45891   0.45976   0.46455
     Eigenvalues ---    0.47272   0.47741   0.47801   0.49278   0.50375
     Eigenvalues ---    0.50388   0.51810   0.52328
 RFO step:  Lambda=-8.01650625D-03 EMin= 2.59854013D-03
 Linear search not attempted -- first point.
 Iteration  1 RMS(Cart)=  0.13352348 RMS(Int)=  0.00314021
 Iteration  2 RMS(Cart)=  0.00605982 RMS(Int)=  0.00031272
 Iteration  3 RMS(Cart)=  0.00000986 RMS(Int)=  0.00031267
 Iteration  4 RMS(Cart)=  0.00000000 RMS(Int)=  0.00031267
 Variable       Old X    -DE/DX   Delta X   Delta X   Delta X     New X
                                 (Linear)    (Quad)   (Total)
    R1        2.64112   0.00018   0.00000  -0.00937  -0.00937   2.63175
    R2        1.91931  -0.00319   0.00000  -0.00700  -0.00700   1.91231
    R3        1.91915  -0.00314   0.00000  -0.00686  -0.00686   1.91228
    R4        2.63712   0.01027   0.00000   0.02159   0.02168   2.65879
    R5        2.64131   0.00449   0.00000   0.01278   0.01285   2.65416
    R6        2.63836  -0.00360   0.00000  -0.01045  -0.01043   2.62792
    R7        2.05432  -0.00065   0.00000  -0.00160  -0.00160   2.05271
    R8        2.64118  -0.00284   0.00000  -0.00668  -0.00675   2.63443
    R9        2.05363  -0.00192   0.00000  -0.00440  -0.00440   2.04923
   R10        2.60412   0.00965   0.00000   0.02119   0.02119   2.62531
   R11        2.64407   0.00064   0.00000   0.00132   0.00124   2.64531
   R12        2.60413   0.00968   0.00000   0.02151   0.02151   2.62565
   R13        2.64084  -0.00261   0.00000  -0.00623  -0.00636   2.63448
   R14        2.64372   0.00079   0.00000   0.00139   0.00129   2.64502
   R15        2.63850  -0.00376   0.00000  -0.01058  -0.01061   2.62789
   R16        2.05400  -0.00208   0.00000  -0.00484  -0.00484   2.04916
   R17        2.63707   0.01050   0.00000   0.02184   0.02194   2.65901
   R18        2.05445  -0.00073   0.00000  -0.00176  -0.00176   2.05269
   R19        2.64040  -0.00002   0.00000  -0.00910  -0.00910   2.63130
   R20        2.64139   0.00450   0.00000   0.01239   0.01252   2.65391
   R21        1.91859  -0.00297   0.00000  -0.00634  -0.00634   1.91225
   R22        1.91901  -0.00327   0.00000  -0.00696  -0.00696   1.91205
   R23        2.65937  -0.00877   0.00000  -0.02227  -0.02224   2.63713
   R24        2.05820  -0.00319   0.00000  -0.00959  -0.00959   2.04861
   R25        2.84067  -0.00526   0.00000  -0.00021  -0.00021   2.84046
   R26        2.57627  -0.00484   0.00000  -0.01005  -0.01005   2.56622
   R27        2.57196  -0.00602   0.00000  -0.01504  -0.01504   2.55692
   R28        2.58004  -0.00799   0.00000  -0.02496  -0.02496   2.55508
   R29        2.84102  -0.00524   0.00000  -0.00035  -0.00035   2.84067
   R30        2.65919  -0.00865   0.00000  -0.02213  -0.02214   2.63705
   R31        2.57516  -0.00439   0.00000  -0.00823  -0.00823   2.56692
   R32        2.58004  -0.00803   0.00000  -0.02500  -0.02500   2.55505
   R33        2.57256  -0.00626   0.00000  -0.01617  -0.01617   2.55638
   R34        2.05820  -0.00312   0.00000  -0.00958  -0.00958   2.04863
    A1        1.99187   0.00136   0.00000   0.01276   0.01272   2.00459
    A2        1.99575   0.00154   0.00000   0.01179   0.01175   2.00750
    A3        1.95650  -0.00253   0.00000  -0.01482  -0.01488   1.94162
    A4        2.09909   0.00254   0.00000   0.01251   0.01109   2.11018
    A5        2.09736   0.00160   0.00000   0.01067   0.00928   2.10664
    A6        2.07233  -0.00361   0.00000  -0.00792  -0.00917   2.06316
    A7        2.10695   0.00067   0.00000   0.00344   0.00352   2.11047
    A8        2.09898  -0.00121   0.00000  -0.01177  -0.01181   2.08717
    A9        2.07722   0.00054   0.00000   0.00831   0.00827   2.08549
   A10        2.09315   0.00141   0.00000   0.00689   0.00677   2.09992
   A11        2.08169   0.00235   0.00000   0.02033   0.02031   2.10200
   A12        2.10835  -0.00376   0.00000  -0.02717  -0.02718   2.08116
   A13        2.11362   0.00205   0.00000   0.00365   0.00373   2.11735
   A14        2.10155  -0.00308   0.00000  -0.01388  -0.01406   2.08749
   A15        2.06694   0.00101   0.00000   0.00991   0.00998   2.07692
   A16        2.03922   0.00661   0.00000   0.00579   0.00579   2.04501
   A17        2.11255   0.00211   0.00000   0.00490   0.00502   2.11757
   A18        2.06724   0.00082   0.00000   0.00919   0.00930   2.07654
   A19        2.10069  -0.00290   0.00000  -0.01276  -0.01316   2.08753
   A20        2.09314   0.00132   0.00000   0.00677   0.00648   2.09962
   A21        2.10788  -0.00374   0.00000  -0.02687  -0.02673   2.08114
   A22        2.08186   0.00242   0.00000   0.02024   0.02038   2.10224
   A23        2.10728   0.00058   0.00000   0.00337   0.00332   2.11060
   A24        2.07670   0.00063   0.00000   0.00902   0.00905   2.08575
   A25        2.09918  -0.00121   0.00000  -0.01241  -0.01238   2.08680
   A26        2.09901   0.00254   0.00000   0.01252   0.01094   2.10995
   A27        2.07102  -0.00341   0.00000  -0.00624  -0.00771   2.06331
   A28        2.09726   0.00146   0.00000   0.01084   0.00926   2.10652
   A29        1.99929   0.00132   0.00000   0.00885   0.00884   2.00813
   A30        1.99450   0.00133   0.00000   0.01082   0.01081   2.00531
   A31        1.95982  -0.00251   0.00000  -0.01687  -0.01689   1.94294
   A32        2.11826  -0.00213   0.00000  -0.00788  -0.00785   2.11042
   A33        2.08098   0.00218   0.00000   0.00949   0.00945   2.09043
   A34        2.08393  -0.00005   0.00000  -0.00157  -0.00162   2.08232
   A35        2.07161   0.00672   0.00000   0.02312   0.02292   2.09453
   A36        2.10518  -0.00365   0.00000  -0.01452  -0.01445   2.09072
   A37        2.10640  -0.00308   0.00000  -0.00861  -0.00854   2.09786
   A38        1.96573  -0.00411   0.00000  -0.01479  -0.01492   1.95080
   A39        1.97785  -0.00438   0.00000  -0.01422  -0.01435   1.96350
   A40        1.97587  -0.00773   0.00000  -0.01822  -0.01830   1.95758
   A41        1.85516   0.00346   0.00000   0.00616   0.00599   1.86114
   A42        1.83640   0.00770   0.00000   0.02469   0.02462   1.86102
   A43        1.84093   0.00702   0.00000   0.02221   0.02213   1.86306
   A44        2.10552  -0.00369   0.00000  -0.01396  -0.01390   2.09161
   A45        2.07148   0.00681   0.00000   0.02280   0.02268   2.09417
   A46        2.10589  -0.00312   0.00000  -0.00875  -0.00870   2.09720
   A47        1.96711  -0.00401   0.00000  -0.01585  -0.01599   1.95112
   A48        1.97545  -0.00766   0.00000  -0.01789  -0.01796   1.95749
   A49        1.97623  -0.00428   0.00000  -0.01224  -0.01235   1.96388
   A50        1.83852   0.00725   0.00000   0.02236   0.02227   1.86079
   A51        1.85565   0.00333   0.00000   0.00531   0.00514   1.86079
   A52        1.83908   0.00731   0.00000   0.02394   0.02389   1.86298
   A53        2.11807  -0.00207   0.00000  -0.00715  -0.00713   2.11094
   A54        2.08120   0.00218   0.00000   0.00888   0.00884   2.09004
   A55        2.08391  -0.00011   0.00000  -0.00169  -0.00172   2.08219
    D1        0.51570  -0.00105   0.00000  -0.04837  -0.04874   0.46696
    D2       -2.80971   0.00194   0.00000   0.04724   0.04757  -2.76214
    D3        2.80086  -0.00192   0.00000  -0.04600  -0.04633   2.75452
    D4       -0.52455   0.00107   0.00000   0.04960   0.04997  -0.47458
    D5        3.03799   0.00167   0.00000   0.04122   0.04090   3.07889
    D6       -0.11299   0.00150   0.00000   0.03898   0.03877  -0.07422
    D7        0.07761  -0.00181   0.00000  -0.05493  -0.05493   0.02268
[...]
   135    C    9  dz2    Ryd( 3d)     0.00044

   136    C   10  S      Cor( 1S)     1.99898
   137    C   10  S      Val( 2S)     0.84672
   138    C   10  S      Ryd( 3S)     0.00115
   139    C   10  S      Ryd( 4S)     0.00010
   140    C   10  px     Val( 2p)     0.95930
   141    C   10  px     Ryd( 3p)     0.00543
   142    C   10  py     Val( 2p)     1.01019
   143    C   10  py     Ryd( 3p)     0.00347
   144    C   10  pz     Val( 2p)     0.98199
   145    C   10  pz     Ryd( 3p)     0.00268
   146    C   10  dxy    Ryd( 3d)     0.00124
   147    C   10  dxz    Ryd( 3d)     0.00116
   148    C   10  dyz    Ryd( 3d)     0.00051
   149    C   10  dx2y2  Ryd( 3d)     0.00093
   150    C   10  dz2    Ryd( 3d)     0.00112

   151    N   11  S      Cor( 1S)     1.99949
   152    N   11  S      Val( 2S)     1.36452
   153    N   11  S      Ryd( 3S)     0.00011
   154    N   11  S      Ryd( 4S)     0.00001
   155    N   11  px     Val( 2p)     1.37443
   156    N   11  px     Ryd( 3p)     0.00232
   157    N   11  py     Val( 2p)     1.53713
   158    N   11  py     Ryd( 3p)     0.00284
   159    N   11  pz     Val( 2p)     1.47960
   160    N   11  pz     Ryd( 3p)     0.00241
   161    N   11  dxy    Ryd( 3d)     0.00101
   162    N   11  dxz    Ryd( 3d)     0.00047
   163    N   11  dyz    Ryd( 3d)     0.00055
   164    N   11  dx2y2  Ryd( 3d)     0.00038
   165    N   11  dz2    Ryd( 3d)     0.00080

   166    C   12  S      Cor( 1S)     1.99902
   167    C   12  S      Val( 2S)     0.94594
   168    C   12  S      Ryd( 3S)     0.00066
   169    C   12  S      Ryd( 4S)     0.00005
   170    C   12  px     Val( 2p)     1.16745
   171    C   12  px     Ryd( 3p)     0.00418
   172    C   12  py     Val( 2p)     1.08313
   173    C   12  py     Ryd( 3p)     0.00416
   174    C   12  pz     Val( 2p)     1.05597
   175    C   12  pz     Ryd( 3p)     0.00372
   176    C   12  dxy    Ryd( 3d)     0.00057
   177    C   12  dxz    Ryd( 3d)     0.00047
   178    C   12  dyz    Ryd( 3d)     0.00043
   179    C   12  dx2y2  Ryd( 3d)     0.00051
   180    C   12  dz2    Ryd( 3d)     0.00060

   181    C   13  S      Cor( 1S)     1.99877
   182    C   13  S      Val( 2S)     0.89601
   183    C   13  S      Ryd( 3S)     0.00089
   184    C   13  S      Ryd( 4S)     0.00008
   185    C   13  px     Val( 2p)     1.10726
   186    C   13  px     Ryd( 3p)     0.00456
   187    C   13  py     Val( 2p)     1.11197
   188    C   13  py     Ryd( 3p)     0.00467
   189    C   13  pz     Val( 2p)     1.12737
   190    C   13  pz     Ryd( 3p)     0.00434
   191    C   13  dxy    Ryd( 3d)     0.00064
   192    C   13  dxz    Ryd( 3d)     0.00051
   193    C   13  dyz    Ryd( 3d)     0.00071
   194    C   13  dx2y2  Ryd( 3d)     0.00059
   195    C   13  dz2    Ryd( 3d)     0.00057

   196    C   14  S      Cor( 1S)     1.99907
   197    C   14  S      Val( 2S)     0.79459
   198    C   14  S      Ryd( 3S)     0.00524
   199    C   14  S      Ryd( 4S)     0.00032
   200    C   14  px     Val( 2p)     0.56184
   201    C   14  px     Ryd( 3p)     0.01830
   202    C   14  py     Val( 2p)     0.75272
   203    C   14  py     Ryd( 3p)     0.01478
   204    C   14  pz     Val( 2p)     0.70692
   205    C   14  pz     Ryd( 3p)     0.01538
   206    C   14  dxy    Ryd( 3d)     0.00357
   207    C   14  dxz    Ryd( 3d)     0.00328
   208    C   14  dyz    Ryd( 3d)     0.00298
   209    C   14  dx2y2  Ryd( 3d)     0.00333
   210    C   14  dz2    Ryd( 3d)     0.00391

   211    F   15  S      Cor( 1S)     1.99993
   212    F   15  S      Val( 2S)     1.84693
   213    F   15  S      Ryd( 3S)     0.00090
   214    F   15  S      Ryd( 4S)     0.00004
   215    F   15  px     Val( 2p)     1.83016
   216    F   15  px     Ryd( 3p)     0.00027
   217    F   15  py     Val( 2p)     1.77164
   218    F   15  py     Ryd( 3p)     0.00033
   219    F   15  pz     Val( 2p)     1.92138
   220    F   15  pz     Ryd( 3p)     0.00028
   221    F   15  dxy    Ryd( 3d)     0.00103
   222    F   15  dxz    Ryd( 3d)     0.00055
   223    F   15  dyz    Ryd( 3d)     0.00084
   224    F   15  dx2y2  Ryd( 3d)     0.00129
   225    F   15  dz2    Ryd( 3d)     0.00052

   226    F   16  S      Cor( 1S)     1.99993
   227    F   16  S      Val( 2S)     1.84493
   228    F   16  S      Ryd( 3S)     0.00090
   229    F   16  S      Ryd( 4S)     0.00003
   230    F   16  px     Val( 2p)     1.90796
   231    F   16  px     Ryd( 3p)     0.00021
   232    F   16  py     Val( 2p)     1.92569
   233    F   16  py     Ryd( 3p)     0.00034
   234    F   16  pz     Val( 2p)     1.68615
   235    F   16  pz     Ryd( 3p)     0.00029
   236    F   16  dxy    Ryd( 3d)     0.00025
   237    F   16  dxz    Ryd( 3d)     0.00116
   238    F   16  dyz    Ryd( 3d)     0.00123
   239    F   16  dx2y2  Ryd( 3d)     0.00025
   240    F   16  dz2    Ryd( 3d)     0.00143

   241    F   17  S      Cor( 1S)     1.99993
   242    F   17  S      Val( 2S)     1.84145
   243    F   17  S      Ryd( 3S)     0.00072
   244    F   17  S      Ryd( 4S)     0.00005
   245    F   17  px     Val( 2p)     1.68783
   246    F   17  px     Ryd( 3p)     0.00014
   247    F   17  py     Val( 2p)     1.89618
   248    F   17  py     Ryd( 3p)     0.00031
   249    F   17  pz     Val( 2p)     1.93826
   250    F   17  pz     Ryd( 3p)     0.00030
   251    F   17  dxy    Ryd( 3d)     0.00123
   252    F   17  dxz    Ryd( 3d)     0.00117
   253    F   17  dyz    Ryd( 3d)     0.00027
   254    F   17  dx2y2  Ryd( 3d)     0.00125
   255    F   17  dz2    Ryd( 3d)     0.00043

   256    C   18  S      Cor( 1S)     1.99877
   257    C   18  S      Val( 2S)     0.89614
   258    C   18  S      Ryd( 3S)     0.00089
   259    C   18  S      Ryd( 4S)     0.00008
   260    C   18  px     Val( 2p)     1.10664
   261    C   18  px     Ryd( 3p)     0.00457
   262    C   18  py     Val( 2p)     1.11138
   263    C   18  py     Ryd( 3p)     0.00465
   264    C   18  pz     Val( 2p)     1.12830
   265    C   18  pz     Ryd( 3p)     0.00436
   266    C   18  dxy    Ryd( 3d)     0.00065
   267    C   18  dxz    Ryd( 3d)     0.00051
   268    C   18  dyz    Ryd( 3d)     0.00071
   269    C   18  dx2y2  Ryd( 3d)     0.00059
   270    C   18  dz2    Ryd( 3d)     0.00057

   271    C   19  S      Cor( 1S)     1.99907
   272    C   19  S      Val( 2S)     0.79460
   273    C   19  S      Ryd( 3S)     0.00524
   274    C   19  S      Ryd( 4S)     0.00032
   275    C   19  px     Val( 2p)     0.56192
   276    C   19  px     Ryd( 3p)     0.01830
   277    C   19  py     Val( 2p)     0.75281
   278    C   19  py     Ryd( 3p)     0.01477
   279    C   19  pz     Val( 2p)     0.70675
   280    C   19  pz     Ryd( 3p)     0.01540
   281    C   19  dxy    Ryd( 3d)     0.00357
   282    C   19  dxz    Ryd( 3d)     0.00327
   283    C   19  dyz    Ryd( 3d)     0.00298
   284    C   19  dx2y2  Ryd( 3d)     0.00333
   285    C   19  dz2    Ryd( 3d)     0.00392

   286    F   20  S      Cor( 1S)     1.99993
   287    F   20  S      Val( 2S)     1.84688
   288    F   20  S      Ryd( 3S)     0.00090
   289    F   20  S      Ryd( 4S)     0.00004
   290    F   20  px     Val( 2p)     1.82918
   291    F   20  px     Ryd( 3p)     0.00027
   292    F   20  py     Val( 2p)     1.77216
   293    F   20  py     Ryd( 3p)     0.00033
   294    F   20  pz     Val( 2p)     1.92171
   295    F   20  pz     Ryd( 3p)     0.00028
   296    F   20  dxy    Ryd( 3d)     0.00104
   297    F   20  dxz    Ryd( 3d)     0.00055
   298    F   20  dyz    Ryd( 3d)     0.00083
   299    F   20  dx2y2  Ryd( 3d)     0.00130
   300    F   20  dz2    Ryd( 3d)     0.00052

   301    F   21  S      Cor( 1S)     1.99993
   302    F   21  S      Val( 2S)     1.84145
   303    F   21  S      Ryd( 3S)     0.00072
   304    F   21  S      Ryd( 4S)     0.00005
   305    F   21  px     Val( 2p)     1.68802
   306    F   21  px     Ryd( 3p)     0.00014
   307    F   21  py     Val( 2p)     1.89576
   308    F   21  py     Ryd( 3p)     0.00031
   309    F   21  pz     Val( 2p)     1.93853
   310    F   21  pz     Ryd( 3p)     0.00029
   311    F   21  dxy    Ryd( 3d)     0.00123
   312    F   21  dxz    Ryd( 3d)     0.00116
   313    F   21  dyz    Ryd( 3d)     0.00027
   314    F   21  dx2y2  Ryd( 3d)     0.00125
   315    F   21  dz2    Ryd( 3d)     0.00043

   316    F   22  S      Cor( 1S)     1.99993
   317    F   22  S      Val( 2S)     1.84496
   318    F   22  S      Ryd( 3S)     0.00090
   319    F   22  S      Ryd( 4S)     0.00004
   320    F   22  px     Val( 2p)     1.90874
   321    F   22  px     Ryd( 3p)     0.00021
   322    F   22  py     Val( 2p)     1.92571
   323    F   22  py     Ryd( 3p)     0.00034
   324    F   22  pz     Val( 2p)     1.68551
   325    F   22  pz     Ryd( 3p)     0.00029
   326    F   22  dxy    Ryd( 3d)     0.00025
   327    F   22  dxz    Ryd( 3d)     0.00116
   328    F   22  dyz    Ryd( 3d)     0.00124
   329    F   22  dx2y2  Ryd( 3d)     0.00025
   330    F   22  dz2    Ryd( 3d)     0.00143

   331    C   23  S      Cor( 1S)     1.99902
   332    C   23  S      Val( 2S)     0.94589
   333    C   23  S      Ryd( 3S)     0.00066
   334    C   23  S      Ryd( 4S)     0.00005
   335    C   23  px     Val( 2p)     1.16744
   336    C   23  px     Ryd( 3p)     0.00423
   337    C   23  py     Val( 2p)     1.08446
   338    C   23  py     Ryd( 3p)     0.00415
   339    C   23  pz     Val( 2p)     1.05522
   340    C   23  pz     Ryd( 3p)     0.00367
   341    C   23  dxy    Ryd( 3d)     0.00058
   342    C   23  dxz    Ryd( 3d)     0.00046
   343    C   23  dyz    Ryd( 3d)     0.00043
   344    C   23  dx2y2  Ryd( 3d)     0.00051
   345    C   23  dz2    Ryd( 3d)     0.00059

   346    H   24  S      Val( 1S)     0.56977
   347    H   24  S      Ryd( 2S)     0.00134
   348    H   24  px     Ryd( 2p)     0.00019
   349    H   24  py     Ryd( 2p)     0.00064
   350    H   24  pz     Ryd( 2p)     0.00041

   351    H   25  S      Val( 1S)     0.56942
   352    H   25  S      Ryd( 2S)     0.00109
   353    H   25  px     Ryd( 2p)     0.00051
   354    H   25  py     Ryd( 2p)     0.00029
   355    H   25  pz     Ryd( 2p)     0.00043

   356    H   26  S      Val( 1S)     0.74891
   357    H   26  S      Ryd( 2S)     0.00086
   358    H   26  px     Ryd( 2p)     0.00006
   359    H   26  py     Ryd( 2p)     0.00030
   360    H   26  pz     Ryd( 2p)     0.00026

   361    H   27  S      Val( 1S)     0.73517
   362    H   27  S      Ryd( 2S)     0.00161
   363    H   27  px     Ryd( 2p)     0.00033
   364    H   27  py     Ryd( 2p)     0.00017
   365    H   27  pz     Ryd( 2p)     0.00010

   366    H   28  S      Val( 1S)     0.73512
   367    H   28  S      Ryd( 2S)     0.00162
   368    H   28  px     Ryd( 2p)     0.00033
   369    H   28  py     Ryd( 2p)     0.00017
   370    H   28  pz     Ryd( 2p)     0.00010

   371    H   29  S      Val( 1S)     0.74849
   372    H   29  S      Ryd( 2S)     0.00086
   373    H   29  px     Ryd( 2p)     0.00006
   374    H   29  py     Ryd( 2p)     0.00030
   375    H   29  pz     Ryd( 2p)     0.00026

   376    H   30  S      Val( 1S)     0.56925
   377    H   30  S      Ryd( 2S)     0.00109
   378    H   30  px     Ryd( 2p)     0.00045
   379    H   30  py     Ryd( 2p)     0.00049
   380    H   30  pz     Ryd( 2p)     0.00029

   381    H   31  S      Val( 1S)     0.56980
   382    H   31  S      Ryd( 2S)     0.00137
   383    H   31  px     Ryd( 2p)     0.00022
   384    H   31  py     Ryd( 2p)     0.00040
   385    H   31  pz     Ryd( 2p)     0.00061

   386    H   32  S      Val( 1S)     0.74088
   387    H   32  S      Ryd( 2S)     0.00158
   388    H   32  px     Ryd( 2p)     0.00032
   389    H   32  py     Ryd( 2p)     0.00018
   390    H   32  pz     Ryd( 2p)     0.00013

   391    H   33  S      Val( 1S)     0.74083
   392    H   33  S      Ryd( 2S)     0.00158
   393    H   33  px     Ryd( 2p)     0.00032
   394    H   33  py     Ryd( 2p)     0.00019
   395    H   33  pz     Ryd( 2p)     0.00013

 WARNING:  1 low occupancy (<1.9990e) core orbital  found on  C    2
           1 low occupancy (<1.9990e) core orbital  found on  C    5
           1 low occupancy (<1.9990e) core orbital  found on  C    7
           1 low occupancy (<1.9990e) core orbital  found on  C   10
           1 low occupancy (<1.9990e) core orbital  found on  C   13
           1 low occupancy (<1.9990e) core orbital  found on  C   18


 Summary of Natural Population Analysis:                  
                                                          
                                       Natural Population 
                Natural  -----------------------------------------------
    Atom  No    Charge         Core      Valence    Rydberg      Total
 -----------------------------------------------------------------------
      N    1   -0.76699      1.99949     5.75659    0.01092     7.76699
      C    2    0.18496      1.99899     3.79829    0.01776     5.81504
      C    3   -0.32552      1.99906     4.31068    0.01579     6.32552
      C    4   -0.27077      1.99902     4.25672    0.01504     6.27077
      C    5    0.32316      1.99865     3.65420    0.02399     5.67684
      O    6   -0.48519      1.99971     6.47333    0.01214     8.48519
      C    7    0.32388      1.99865     3.65344    0.02402     5.67612
      C    8   -0.27069      1.99902     4.25665    0.01502     6.27069
      C    9   -0.32530      1.99906     4.31045    0.01580     6.32530
      C   10    0.18502      1.99898     3.79820    0.01779     5.81498
      N   11   -0.76606      1.99949     5.75568    0.01090     7.76606
      C   12   -0.26685      1.99902     4.25249    0.01534     6.26685
      C   13   -0.25895      1.99877     4.24261    0.01757     6.25895
      C   14    1.11377      1.99907     2.81607    0.07109     4.88623
      F   15   -0.37609      1.99993     7.37011    0.00605     9.37609
      F   16   -0.37076      1.99993     7.36473    0.00610     9.37076
      F   17   -0.36953      1.99993     7.36372    0.00588     9.36953
      C   18   -0.25882      1.99877     4.24247    0.01758     6.25882
      C   19    1.11375      1.99907     2.81608    0.07110     4.88625
      F   20   -0.37590      1.99993     7.36992    0.00605     9.37590
      F   21   -0.36956      1.99993     7.36375    0.00588     9.36956
      F   22   -0.37095      1.99993     7.36492    0.00610     9.37095
      C   23   -0.26735      1.99902     4.25301    0.01533     6.26735
      H   24    0.42766      0.00000     0.56977    0.00257     0.57234
      H   25    0.42826      0.00000     0.56942    0.00232     0.57174
      H   26    0.24961      0.00000     0.74891    0.00148     0.75039
      H   27    0.26262      0.00000     0.73517    0.00221     0.73738
      H   28    0.26266      0.00000     0.73512    0.00222     0.73734
      H   29    0.25003      0.00000     0.74849    0.00148     0.74997
      H   30    0.42843      0.00000     0.56925    0.00232     0.57157
      H   31    0.42761      0.00000     0.56980    0.00260     0.57239
      H   32    0.25690      0.00000     0.74088    0.00222     0.74310
      H   33    0.25695      0.00000     0.74083    0.00222     0.74305
 =======================================================================
   * Total *    0.00000     45.98338   123.57174    0.44488   170.00000

                                 Natural Population      
 --------------------------------------------------------
   Core                      45.98338 ( 99.9639% of  46)
   Valence                  123.57174 ( 99.6546% of 124)
   Natural Minimal Basis    169.55512 ( 99.7383% of 170)
   Natural Rydberg Basis      0.44488 (  0.2617% of 170)
 --------------------------------------------------------

    Atom  No          Natural Electron Configuration
 ----------------------------------------------------------------------------
      N    1      [core]2S( 1.36)2p( 4.39)3p( 0.01)
      C    2      [core]2S( 0.85)2p( 2.95)3p( 0.01)
      C    3      [core]2S( 0.95)2p( 3.36)3p( 0.01)
      C    4      [core]2S( 0.96)2p( 3.29)3p( 0.01)
      C    5      [core]2S( 0.83)2p( 2.82)3p( 0.02)3d( 0.01)
      O    6      [core]2S( 1.58)2p( 4.90)3p( 0.01)3d( 0.01)
      C    7      [core]2S( 0.83)2p( 2.82)3p( 0.02)3d( 0.01)
      C    8      [core]2S( 0.96)2p( 3.29)3p( 0.01)
      C    9      [core]2S( 0.95)2p( 3.36)3p( 0.01)
      C   10      [core]2S( 0.85)2p( 2.95)3p( 0.01)
      N   11      [core]2S( 1.36)2p( 4.39)3p( 0.01)
      C   12      [core]2S( 0.95)2p( 3.31)3p( 0.01)
      C   13      [core]2S( 0.90)2p( 3.35)3p( 0.01)
      C   14      [core]2S( 0.79)2p( 2.02)3S( 0.01)3p( 0.05)3d( 0.02)
      F   15      [core]2S( 1.85)2p( 5.52)
      F   16      [core]2S( 1.84)2p( 5.52)
      F   17      [core]2S( 1.84)2p( 5.52)
      C   18      [core]2S( 0.90)2p( 3.35)3p( 0.01)
      C   19      [core]2S( 0.79)2p( 2.02)3S( 0.01)3p( 0.05)3d( 0.02)
      F   20      [core]2S( 1.85)2p( 5.52)
      F   21      [core]2S( 1.84)2p( 5.52)
      F   22      [core]2S( 1.84)2p( 5.52)
      C   23      [core]2S( 0.95)2p( 3.31)3p( 0.01)
      H   24            1S( 0.57)
      H   25            1S( 0.57)
      H   26            1S( 0.75)
      H   27            1S( 0.74)
      H   28            1S( 0.74)
      H   29            1S( 0.75)
      H   30            1S( 0.57)
      H   31            1S( 0.57)
      H   32            1S( 0.74)
      H   33            1S( 0.74)


 NBO analysis skipped by request.
 1\1\GINC-DRG2-W002\SP\RB3LYP TD-FC\6-31G(d,p)\C14H10F6N2O1\QDUEZ\18-Ju
 l-2024\0\\# TD(NStates=10, Root=1) B3LYP/6-31G** SCRF=(Solvent=water) 
 volume pop=NPA density=current Geom=AllCheck Guess=Read\\NKYXYJFTTIPZD
 E-UHFFFAOYSA-N_conf_3\\0,1\N,0,-4.8023704045,-0.4937375761,-1.82900431
 75\C,0,-3.6078385065,-0.4677784706,-1.1145207547\C,0,-2.4758821244,-1.
 1694220606,-1.57054863\C,0,-1.2666204452,-1.0962241545,-0.8882106623\C
 ,0,-1.1518964536,-0.3137453894,0.2602577015\O,0,0.0259300524,-0.280034
 2647,0.9979553931\C,0,1.1833192036,0.1199131693,0.3399997799\C,0,1.269
 7378847,1.3620887737,-0.2875996249\C,0,2.459345847,1.7674231623,-0.882
 5003245\C,0,3.5998512574,0.9427594774,-0.8554499068\N,0,4.8105290005,1
 .3775080508,-1.3877065018\C,0,3.501395499,-0.3050111572,-0.2178093008\
 C,0,2.3047329503,-0.7182289203,0.3700509857\C,0,2.2137210502,-2.070047
 1979,1.0224201772\F,0,1.2582635548,-2.8465901905,0.4492756643\F,0,1.90
 7541685,-1.9898230463,2.3380767141\F,0,3.3745725797,-2.7583308208,0.93
 382029\C,0,-2.2653090154,0.395935892,0.7265902684\C,0,-2.1467281294,1.
 2546324271,1.9553597725\F,0,-1.1992766009,2.2167613435,1.8116174938\F,
 0,-3.3035710966,1.892356487,2.2455108161\F,0,-1.8086096191,0.541308971
 ,3.0545365217\C,0,-3.4816969718,0.3119427029,0.0470846718\H,0,-4.93596
 68503,-1.3120738404,-2.408833405\H,0,-5.6316190118,-0.2866667772,-1.28
 75782948\H,0,-2.5507868311,-1.7847644035,-2.4625566622\H,0,-0.40718642
 51,-1.6613203165,-1.2308650918\H,0,0.4025191031,2.0126835029,-0.294362
 619\H,0,2.5124860026,2.7388149683,-1.365679158\H,0,5.4537501225,0.6419
 236499,-1.6501876903\H,0,4.7316291049,2.0753029606,-2.1160387558\H,0,4
 .3624654529,-0.9627572808,-0.1864970551\H,0,-4.3364318647,0.8652003288
 ,0.4191510883\\Version=ES64L-G16RevA.03\State=1-A\HF=-1323.3249282\RMS
 D=6.889e-09\Dipole=-0.290657,0.2756898,-3.3892552\Quadrupole=26.687758
 2,-16.4063279,-10.2814304,13.0054234,-3.2508971,-0.5652198\PG=C01 [X(C
 14H10F6N2O1)]\\@


 KNOWING HOW CONTENTED, FREE, AND JOYFUL IS LIFE IN
 THE REALMS OF SCIENCE, ONE FERVENTLY WISHES THAT
 MANY WOULD ENTER HER PORTALS.
   --  DMITRI IVANOVICH MENDELEEV
 "FIRST PRINCIPLES OF CHEMISTRY", LONGMANS, GREEN,
 AND CO.  LONDON, 1891
 Job cpu time:       0 days  1 hours 21 minutes 28.7 seconds.
 Elapsed time:       0 days  0 hours 27 minutes 14.8 seconds.
 File lengths (MBytes):  RWF=   1396 Int=      0 D2E=      0 Chk=     80 Scr=      1
 Normal termination of Gaussian 16 at Thu Jul 18 17:08:49 2024.
