 Entering Gaussian System, Link 0=g16
 Initial command:
 /opt/sw/arch/manual/gaussian/G16_A03/g16/l1.exe "/scratch/1380954/Gau-85337.inp" -scrdir="/scratch/1380954/"
 Entering Link 1 = /opt/sw/arch/manual/gaussian/G16_A03/g16/l1.exe PID=     85338.
  
 Copyright (c) 1988,1990,1992,1993,1995,1998,2003,2009,2016,
            Gaussian, Inc.  All Rights Reserved.
  
 This is part of the Gaussian(R) 16 program.  It is based on
 the Gaussian(R) 09 system (copyright 2009, Gaussian, Inc.),
 the Gaussian(R) 03 system (copyright 2003, Gaussian, Inc.),
 the Gaussian(R) 98 system (copyright 1998, Gaussian, Inc.),
 the Gaussian(R) 94 system (copyright 1995, Gaussian, Inc.),
 the Gaussian 92(TM) system (copyright 1992, Gaussian, Inc.),
 the Gaussian 90(TM) system (copyright 1990, Gaussian, Inc.),
 the Gaussian 88(TM) system (copyright 1988, Gaussian, Inc.),
 the Gaussian 86(TM) system (copyright 1986, Carnegie Mellon
 University), and the Gaussian 82(TM) system (copyright 1983,
 Carnegie Mellon University). Gaussian is a federally registered
 trademark of Gaussian, Inc.
  
 This software contains proprietary and confidential information,
 including trade secrets, belonging to Gaussian, Inc.
  
 This software is provided under written license and may be
 used, copied, transmitted, or stored only in accord with that
 written license.
  
 The following legend is applicable only to US Government
 contracts under FAR:
  
                    RESTRICTED RIGHTS LEGEND
  
 Use, reproduction and disclosure by the US Government is
 subject to restrictions as set forth in subparagraphs (a)
 and (c) of the Commercial Computer Software - Restricted
 Rights clause in FAR 52.227-19.
  
 Gaussian, Inc.
 340 Quinnipiac St., Bldg. 40, Wallingford CT 06492
  
  
 ---------------------------------------------------------------
 Warning -- This program may not be used in any manner that
 competes with the business of Gaussian, Inc. or will provide
 assistance to any competitor of Gaussian, Inc.  The licensee
 of this program is prohibited from giving any competitor of
 Gaussian, Inc. access to this program.  By using this program,
 the user acknowledges that Gaussian, Inc. is engaged in the
 business of creating and licensing software in the field of
 computational chemistry and represents and warrants to the
 licensee that it is not a competitor of Gaussian, Inc. and that
 it will not use this program in any manner prohibited above.
 ---------------------------------------------------------------
  

 Cite this work as:
 Gaussian 16, Revision A.03,
 M. J. Frisch, G. W. Trucks, H. B. Schlegel, G. E. Scuseria, 
 M. A. Robb, J. R. Cheeseman, G. Scalmani, V. Barone, 
 G. A. Petersson, H. Nakatsuji, X. Li, M. Caricato, A. V. Marenich, 
 J. Bloino, B. G. Janesko, R. Gomperts, B. Mennucci, H. P. Hratchian, 
 J. V. Ortiz, A. F. Izmaylov, J. L. Sonnenberg, D. Williams-Young, 
 F. Ding, F. Lipparini, F. Egidi, J. Goings, B. Peng, A. Petrone, 
 T. Henderson, D. Ranasinghe, V. G. Zakrzewski, J. Gao, N. Rega, 
 G. Zheng, W. Liang, M. Hada, M. Ehara, K. Toyota, R. Fukuda, 
 J. Hasegawa, M. Ishida, T. Nakajima, Y. Honda, O. Kitao, H. Nakai, 
 T. Vreven, K. Throssell, J. A. Montgomery, Jr., J. E. Peralta, 
 F. Ogliaro, M. J. Bearpark, J. J. Heyd, E. N. Brothers, K. N. Kudin, 
 V. N. Staroverov, T. A. Keith, R. Kobayashi, J. Normand, 
 K. Raghavachari, A. P. Rendell, J. C. Burant, S. S. Iyengar, 
 J. Tomasi, M. Cossi, J. M. Millam, M. Klene, C. Adamo, R. Cammi, 
 J. W. Ochterski, R. L. Martin, K. Morokuma, O. Farkas, 
 J. B. Foresman, and D. J. Fox, Gaussian, Inc., Wallingford CT, 2016.
 
 ******************************************
 Gaussian 16:  ES64L-G16RevA.03 25-Dec-2016
                18-Jul-2024 
 ******************************************
 %nprocshared=5
 Will use up to    5 processors via shared memory.
 %mem=10GB
 %Chk=NKYXYJFTTIPZDE-UHFFFAOYSA-N_conf_4_0.chk
 -------------------------------------------------------
 # opt=CalcFc B3LYP/6-31G** SCRF=(Solvent=water) scf=xqc
 -------------------------------------------------------
 1/10=4,18=20,19=15,26=3,38=1/1,3;
 2/9=110,12=2,17=6,18=5,40=1/2;
 3/5=1,6=6,7=101,11=2,25=1,30=1,70=2201,71=2,72=1,74=-5,140=1/1,2,3;
 4//1;
 5/5=2,8=3,13=1,38=5,53=1/2,8;
 8/6=4,10=90,11=11/1;
 11/6=1,8=1,9=11,15=111,16=1/1,2,10;
 10/6=1,13=1/2;
 6/7=2,8=2,9=2,10=2,28=1/1;
 7/10=1,18=20,25=1/1,2,3,16;
 1/10=4,18=20,19=15,26=3/3(2);
 2/9=110/2;
 99//99;
 2/9=110/2;
 3/5=1,6=6,7=101,11=2,25=1,30=1,70=2205,71=1,72=1,74=-5/1,2,3;
 4/5=5,16=3,69=1/1;
 5/5=2,8=3,13=1,38=5,53=1/2,8;
 7//1,2,3,16;
 1/18=20,19=15,26=3/3(-5);
 2/9=110/2;
 6/7=2,8=2,9=2,10=2,19=2,28=1/1;
 99/9=1/99;
 ----------------------------------
 NKYXYJFTTIPZDE-UHFFFAOYSA-N_conf_4
 ----------------------------------
 Symbolic Z-matrix:
 Charge =  0 Multiplicity = 1
 N                     4.69306   1.97304   0.42024 
 C                     3.49281   1.25813   0.39936 
 C                     2.57214   1.4593   -0.62985 
 C                     1.42677   0.66679  -0.72769 
 C                     1.20776  -0.35917   0.19559 
 O                     0.10586  -1.18065   0.09592 
 C                    -1.12507  -0.56317   0.04609 
 C                    -1.51721   0.34171   1.03626 
 C                    -2.78575   0.92291   0.986 
 C                    -3.66233   0.63249  -0.06025 
 N                    -4.97061   1.12249  -0.03941 
 C                    -3.28913  -0.33368  -0.99886 
 C                    -2.01638  -0.93329  -0.96665 
 C                    -1.62099  -1.94996  -2.00111 
 F                    -1.30969  -3.16435  -1.4715 
 F                    -0.53732  -1.56103  -2.73082 
 F                    -2.60249  -2.19326  -2.91844 
 C                     2.15688  -0.63366   1.186 
 C                     1.95481  -1.77298   2.14578 
 F                     2.96956  -1.90041   3.05026 
 F                     0.8238   -1.63379   2.89381 
 F                     1.86095  -2.9841    1.53215 
 C                     3.30301   0.17891   1.26712 
 H                     4.64076   2.89085  -0.011 
 H                     5.15359   1.99805   1.32477 
 H                     2.74254   2.23361  -1.37367 
 H                     0.72721   0.84105  -1.54094 
 H                    -0.85475   0.58126   1.86384 
 H                    -3.08644   1.60171   1.78015 
 H                    -5.07957   2.00317   0.45413 
 H                    -5.4338    1.12731  -0.94291 
 H                    -4.00049  -0.63044  -1.76841 
 H                     4.06051  -0.03885   2.01884 
 

 GradGradGradGradGradGradGradGradGradGradGradGradGradGradGradGradGradGrad
 Berny optimization.
 Initialization pass.
                           ----------------------------
                           !    Initial Parameters    !
                           ! (Angstroms and Degrees)  !
 --------------------------                            --------------------------
 ! Name  Definition              Value          Derivative Info.                !
 --------------------------------------------------------------------------------
 ! R1    R(1,2)                  1.3972         calculate D2E/DX2 analytically  !
 ! R2    R(1,24)                 1.0154         calculate D2E/DX2 analytically  !
 ! R3    R(1,25)                 1.0153         calculate D2E/DX2 analytically  !
 ! R4    R(2,3)                  1.3955         calculate D2E/DX2 analytically  !
 ! R5    R(2,23)                 1.3978         calculate D2E/DX2 analytically  !
 ! R6    R(3,4)                  1.3963         calculate D2E/DX2 analytically  !
 ! R7    R(3,26)                 1.0871         calculate D2E/DX2 analytically  !
 ! R8    R(4,5)                  1.3975         calculate D2E/DX2 analytically  !
 ! R9    R(4,27)                 1.0868         calculate D2E/DX2 analytically  !
 ! R10   R(5,6)                  1.378          calculate D2E/DX2 analytically  !
 ! R11   R(5,18)                 1.399          calculate D2E/DX2 analytically  !
 ! R12   R(6,7)                  1.378          calculate D2E/DX2 analytically  !
 ! R13   R(7,8)                  1.3975         calculate D2E/DX2 analytically  !
 ! R14   R(7,13)                 1.399          calculate D2E/DX2 analytically  !
 ! R15   R(8,9)                  1.3963         calculate D2E/DX2 analytically  !
 ! R16   R(8,28)                 1.0868         calculate D2E/DX2 analytically  !
 ! R17   R(9,10)                 1.3955         calculate D2E/DX2 analytically  !
 ! R18   R(9,29)                 1.0871         calculate D2E/DX2 analytically  !
 ! R19   R(10,11)                1.3972         calculate D2E/DX2 analytically  !
 ! R20   R(10,12)                1.3978         calculate D2E/DX2 analytically  !
 ! R21   R(11,30)                1.0154         calculate D2E/DX2 analytically  !
 ! R22   R(11,31)                1.0153         calculate D2E/DX2 analytically  !
 ! R23   R(12,13)                1.4073         calculate D2E/DX2 analytically  !
 ! R24   R(12,32)                1.0892         calculate D2E/DX2 analytically  !
 ! R25   R(13,14)                1.5033         calculate D2E/DX2 analytically  !
 ! R26   R(14,15)                1.3609         calculate D2E/DX2 analytically  !
 ! R27   R(14,16)                1.3631         calculate D2E/DX2 analytically  !
 ! R28   R(14,17)                1.3653         calculate D2E/DX2 analytically  !
 ! R29   R(18,19)                1.5033         calculate D2E/DX2 analytically  !
 ! R30   R(18,23)                1.4073         calculate D2E/DX2 analytically  !
 ! R31   R(19,20)                1.3653         calculate D2E/DX2 analytically  !
 ! R32   R(19,21)                1.3631         calculate D2E/DX2 analytically  !
 ! R33   R(19,22)                1.3609         calculate D2E/DX2 analytically  !
 ! R34   R(23,33)                1.0892         calculate D2E/DX2 analytically  !
 ! A1    A(2,1,24)             114.3239         calculate D2E/DX2 analytically  !
 ! A2    A(2,1,25)             114.5548         calculate D2E/DX2 analytically  !
 ! A3    A(24,1,25)            112.2998         calculate D2E/DX2 analytically  !
 ! A4    A(1,2,3)              120.2663         calculate D2E/DX2 analytically  !
 ! A5    A(1,2,23)             120.1612         calculate D2E/DX2 analytically  !
 ! A6    A(3,2,23)             118.6588         calculate D2E/DX2 analytically  !
 ! A7    A(2,3,4)              120.7344         calculate D2E/DX2 analytically  !
 ! A8    A(2,3,26)             120.2572         calculate D2E/DX2 analytically  !
 ! A9    A(4,3,26)             119.0067         calculate D2E/DX2 analytically  !
 ! A10   A(3,4,5)              119.9313         calculate D2E/DX2 analytically  !
 ! A11   A(3,4,27)             119.3046         calculate D2E/DX2 analytically  !
 ! A12   A(5,4,27)             120.7448         calculate D2E/DX2 analytically  !
 ! A13   A(4,5,6)              121.0086         calculate D2E/DX2 analytically  !
 ! A14   A(4,5,18)             120.3612         calculate D2E/DX2 analytically  !
 ! A15   A(6,5,18)             118.473          calculate D2E/DX2 analytically  !
 ! A16   A(5,6,7)              116.7287         calculate D2E/DX2 analytically  !
 ! A17   A(6,7,8)              121.0085         calculate D2E/DX2 analytically  !
 ! A18   A(6,7,13)             118.4731         calculate D2E/DX2 analytically  !
 ! A19   A(8,7,13)             120.3613         calculate D2E/DX2 analytically  !
 ! A20   A(7,8,9)              119.9313         calculate D2E/DX2 analytically  !
 ! A21   A(7,8,28)             120.7448         calculate D2E/DX2 analytically  !
 ! A22   A(9,8,28)             119.3046         calculate D2E/DX2 analytically  !
 ! A23   A(8,9,10)             120.7344         calculate D2E/DX2 analytically  !
 ! A24   A(8,9,29)             119.0067         calculate D2E/DX2 analytically  !
 ! A25   A(10,9,29)            120.2572         calculate D2E/DX2 analytically  !
 ! A26   A(9,10,11)            120.2663         calculate D2E/DX2 analytically  !
 ! A27   A(9,10,12)            118.6588         calculate D2E/DX2 analytically  !
 ! A28   A(11,10,12)           120.1612         calculate D2E/DX2 analytically  !
 ! A29   A(10,11,30)           114.3237         calculate D2E/DX2 analytically  !
 ! A30   A(10,11,31)           114.5546         calculate D2E/DX2 analytically  !
 ! A31   A(30,11,31)           112.2996         calculate D2E/DX2 analytically  !
 ! A32   A(10,12,13)           121.3735         calculate D2E/DX2 analytically  !
 ! A33   A(10,12,32)           119.2358         calculate D2E/DX2 analytically  !
 ! A34   A(13,12,32)           119.3903         calculate D2E/DX2 analytically  !
 ! A35   A(7,13,12)            118.6893         calculate D2E/DX2 analytically  !
 ! A36   A(7,13,14)            120.6297         calculate D2E/DX2 analytically  !
 ! A37   A(12,13,14)           120.6809         calculate D2E/DX2 analytically  !
 ! A38   A(13,14,15)           113.3184         calculate D2E/DX2 analytically  !
 ! A39   A(13,14,16)           112.612          calculate D2E/DX2 analytically  !
 ! A40   A(13,14,17)           113.1895         calculate D2E/DX2 analytically  !
 ! A41   A(15,14,16)           106.3244         calculate D2E/DX2 analytically  !
 ! A42   A(15,14,17)           105.4795         calculate D2E/DX2 analytically  !
 ! A43   A(16,14,17)           105.2288         calculate D2E/DX2 analytically  !
 ! A44   A(5,18,19)            120.6297         calculate D2E/DX2 analytically  !
 ! A45   A(5,18,23)            118.6893         calculate D2E/DX2 analytically  !
 ! A46   A(19,18,23)           120.6809         calculate D2E/DX2 analytically  !
 ! A47   A(18,19,20)           113.1895         calculate D2E/DX2 analytically  !
 ! A48   A(18,19,21)           112.6119         calculate D2E/DX2 analytically  !
 ! A49   A(18,19,22)           113.3184         calculate D2E/DX2 analytically  !
 ! A50   A(20,19,21)           105.2288         calculate D2E/DX2 analytically  !
 ! A51   A(20,19,22)           105.4795         calculate D2E/DX2 analytically  !
 ! A52   A(21,19,22)           106.3244         calculate D2E/DX2 analytically  !
 ! A53   A(2,23,18)            121.3735         calculate D2E/DX2 analytically  !
 ! A54   A(2,23,33)            119.2358         calculate D2E/DX2 analytically  !
 ! A55   A(18,23,33)           119.3903         calculate D2E/DX2 analytically  !
 ! D1    D(24,1,2,3)            29.4826         calculate D2E/DX2 analytically  !
 ! D2    D(24,1,2,23)         -161.6024         calculate D2E/DX2 analytically  !
 ! D3    D(25,1,2,3)           161.1144         calculate D2E/DX2 analytically  !
 ! D4    D(25,1,2,23)          -29.9706         calculate D2E/DX2 analytically  !
 ! D5    D(1,2,3,4)            174.2006         calculate D2E/DX2 analytically  !
 ! D6    D(1,2,3,26)            -5.3104         calculate D2E/DX2 analytically  !
 ! D7    D(23,2,3,4)             5.1209         calculate D2E/DX2 analytically  !
 ! D8    D(23,2,3,26)         -174.3901         calculate D2E/DX2 analytically  !
 ! D9    D(1,2,23,18)         -174.1513         calculate D2E/DX2 analytically  !
 ! D10   D(1,2,23,33)            5.6161         calculate D2E/DX2 analytically  !
 ! D11   D(3,2,23,18)           -5.0598         calculate D2E/DX2 analytically  !
 ! D12   D(3,2,23,33)          174.7076         calculate D2E/DX2 analytically  !
 ! D13   D(2,3,4,5)             -1.3463         calculate D2E/DX2 analytically  !
 ! D14   D(2,3,4,27)          -179.7596         calculate D2E/DX2 analytically  !
 ! D15   D(26,3,4,5)           178.1707         calculate D2E/DX2 analytically  !
 ! D16   D(26,3,4,27)           -0.2427         calculate D2E/DX2 analytically  !
 ! D17   D(3,4,5,6)           -178.0129         calculate D2E/DX2 analytically  !
 ! D18   D(3,4,5,18)            -2.6387         calculate D2E/DX2 analytically  !
 ! D19   D(27,4,5,6)             0.3772         calculate D2E/DX2 analytically  !
 ! D20   D(27,4,5,18)          175.7514         calculate D2E/DX2 analytically  !
 ! D21   D(4,5,6,7)            -54.4964         calculate D2E/DX2 analytically  !
 ! D22   D(18,5,6,7)           130.044          calculate D2E/DX2 analytically  !
 ! D23   D(4,5,18,19)         -177.3967         calculate D2E/DX2 analytically  !
 ! D24   D(4,5,18,23)            2.698          calculate D2E/DX2 analytically  !
 ! D25   D(6,5,18,19)           -1.9067         calculate D2E/DX2 analytically  !
 ! D26   D(6,5,18,23)          178.1879         calculate D2E/DX2 analytically  !
 ! D27   D(5,6,7,8)            -54.4969         calculate D2E/DX2 analytically  !
 ! D28   D(5,6,7,13)           130.0433         calculate D2E/DX2 analytically  !
 ! D29   D(6,7,8,9)           -178.0132         calculate D2E/DX2 analytically  !
 ! D30   D(6,7,8,28)             0.377          calculate D2E/DX2 analytically  !
 ! D31   D(13,7,8,9)            -2.6388         calculate D2E/DX2 analytically  !
 ! D32   D(13,7,8,28)          175.7515         calculate D2E/DX2 analytically  !
 ! D33   D(6,7,13,12)          178.1882         calculate D2E/DX2 analytically  !
 ! D34   D(6,7,13,14)           -1.9061         calculate D2E/DX2 analytically  !
 ! D35   D(8,7,13,12)            2.6981         calculate D2E/DX2 analytically  !
 ! D36   D(8,7,13,14)         -177.3963         calculate D2E/DX2 analytically  !
 ! D37   D(7,8,9,10)            -1.3465         calculate D2E/DX2 analytically  !
 ! D38   D(7,8,9,29)           178.1705         calculate D2E/DX2 analytically  !
 ! D39   D(28,8,9,10)         -179.76           calculate D2E/DX2 analytically  !
 ! D40   D(28,8,9,29)           -0.243          calculate D2E/DX2 analytically  !
 ! D41   D(8,9,10,11)          174.201          calculate D2E/DX2 analytically  !
 ! D42   D(8,9,10,12)            5.1212         calculate D2E/DX2 analytically  !
 ! D43   D(29,9,10,11)          -5.31           calculate D2E/DX2 analytically  !
 ! D44   D(29,9,10,12)        -174.3898         calculate D2E/DX2 analytically  !
 ! D45   D(9,10,11,30)          29.4826         calculate D2E/DX2 analytically  !
 ! D46   D(9,10,11,31)         161.1135         calculate D2E/DX2 analytically  !
 ! D47   D(12,10,11,30)       -161.6023         calculate D2E/DX2 analytically  !
 ! D48   D(12,10,11,31)        -29.9714         calculate D2E/DX2 analytically  !
 ! D49   D(9,10,12,13)          -5.0601         calculate D2E/DX2 analytically  !
 ! D50   D(9,10,12,32)         174.7076         calculate D2E/DX2 analytically  !
 ! D51   D(11,10,12,13)       -174.1517         calculate D2E/DX2 analytically  !
 ! D52   D(11,10,12,32)          5.616          calculate D2E/DX2 analytically  !
 ! D53   D(10,12,13,7)           1.1893         calculate D2E/DX2 analytically  !
 ! D54   D(10,12,13,14)       -178.7164         calculate D2E/DX2 analytically  !
 ! D55   D(32,12,13,7)        -178.5781         calculate D2E/DX2 analytically  !
 ! D56   D(32,12,13,14)          1.5163         calculate D2E/DX2 analytically  !
 ! D57   D(7,13,14,15)          60.171          calculate D2E/DX2 analytically  !
 ! D58   D(7,13,14,16)         -60.566          calculate D2E/DX2 analytically  !
 ! D59   D(7,13,14,17)        -179.774          calculate D2E/DX2 analytically  !
 ! D60   D(12,13,14,15)       -119.9252         calculate D2E/DX2 analytically  !
 ! D61   D(12,13,14,16)        119.3378         calculate D2E/DX2 analytically  !
 ! D62   D(12,13,14,17)          0.1298         calculate D2E/DX2 analytically  !
 ! D63   D(5,18,19,20)        -179.7748         calculate D2E/DX2 analytically  !
 ! D64   D(5,18,19,21)         -60.5669         calculate D2E/DX2 analytically  !
 ! D65   D(5,18,19,22)          60.1701         calculate D2E/DX2 analytically  !
 ! D66   D(23,18,19,20)          0.1287         calculate D2E/DX2 analytically  !
 ! D67   D(23,18,19,21)        119.3366         calculate D2E/DX2 analytically  !
 ! D68   D(23,18,19,22)       -119.9264         calculate D2E/DX2 analytically  !
 ! D69   D(5,18,23,2)            1.1892         calculate D2E/DX2 analytically  !
 ! D70   D(5,18,23,33)        -178.5778         calculate D2E/DX2 analytically  !
 ! D71   D(19,18,23,2)        -178.7161         calculate D2E/DX2 analytically  !
 ! D72   D(19,18,23,33)          1.5169         calculate D2E/DX2 analytically  !
 --------------------------------------------------------------------------------
 Trust Radius=3.00D-01 FncErr=1.00D-07 GrdErr=1.00D-06 EigMax=2.50D+02 EigMin=1.00D-04
 Number of steps in this run=    171 maximum allowed number of steps=    198.
 GradGradGradGradGradGradGradGradGradGradGradGradGradGradGradGradGradGrad

                          Input orientation:                          
 ---------------------------------------------------------------------
 Center     Atomic      Atomic             Coordinates (Angstroms)
 Number     Number       Type             X           Y           Z
 ---------------------------------------------------------------------
      1          7           0        4.693057    1.973042    0.420241
      2          6           0        3.492810    1.258134    0.399356
      3          6           0        2.572137    1.459304   -0.629854
      4          6           0        1.426770    0.666787   -0.727690
      5          6           0        1.207761   -0.359173    0.195593
      6          8           0        0.105860   -1.180648    0.095922
      7          6           0       -1.125066   -0.563169    0.046091
      8          6           0       -1.517207    0.341709    1.036258
      9          6           0       -2.785747    0.922914    0.986000
     10          6           0       -3.662333    0.632494   -0.060246
     11          7           0       -4.970613    1.122485   -0.039407
     12          6           0       -3.289134   -0.333676   -0.998860
     13          6           0       -2.016377   -0.933286   -0.966653
     14          6           0       -1.620989   -1.949959   -2.001105
     15          9           0       -1.309685   -3.164352   -1.471496
     16          9           0       -0.537316   -1.561027   -2.730822
     17          9           0       -2.602491   -2.193263   -2.918445
     18          6           0        2.156877   -0.633659    1.186002
     19          6           0        1.954807   -1.772978    2.145776
     20          9           0        2.969564   -1.900410    3.050257
     21          9           0        0.823798   -1.633793    2.893807
     22          9           0        1.860955   -2.984096    1.532152
     23          6           0        3.303013    0.178912    1.267119
     24          1           0        4.640756    2.890845   -0.010999
     25          1           0        5.153586    1.998046    1.324766
     26          1           0        2.742537    2.233613   -1.373670
     27          1           0        0.727205    0.841051   -1.540937
     28          1           0       -0.854751    0.581259    1.863843
     29          1           0       -3.086445    1.601705    1.780152
     30          1           0       -5.079567    2.003174    0.454133
     31          1           0       -5.433798    1.127306   -0.942908
     32          1           0       -4.000493   -0.630441   -1.768410
     33          1           0        4.060514   -0.038850    2.018838
 ---------------------------------------------------------------------
                    Distance matrix (angstroms):
                    1          2          3          4          5
     1  N    0.000000
     2  C    1.397183   0.000000
     3  C    2.421761   1.395486   0.000000
     4  C    3.700362   2.426612   1.396252   0.000000
     5  C    4.199640   2.806893   2.418624   1.397501   0.000000
     6  O    5.576138   4.184634   3.684918   2.415814   1.378021
     7  C    6.357901   4.976617   4.268092   2.936562   2.346497
     8  C    6.450434   5.132811   4.554962   3.447344   2.936563
     9  C    7.573332   6.314809   5.621888   4.554957   4.268091
    10  C    8.475876   7.197134   6.314799   5.132798   4.976612
    11  N    9.711912   8.475874   7.573319   6.450418   6.357896
    12  C    8.429126   7.105183   6.140475   4.828479   4.652895
    13  C    7.442226   6.084361   5.185786   3.804287   3.474980
    14  C    7.817931   6.496540   5.575457   4.213999   3.918918
    15  F    8.124309   6.791350   6.095499   4.766452   4.121378
    16  F    7.055186   5.829889   4.817174   3.582364   3.612984
    17  F    9.040461   7.750654   6.734662   5.405019   5.251584
    18  C    3.716650   2.445897   2.801833   2.426197   1.398955
    19  C    4.950571   3.821398   4.304981   3.806322   2.521931
    20  F    4.989092   4.156617   4.998884   4.821162   3.691676
    21  F    5.839431   4.659308   5.004011   4.332607   3.008728
    22  F    5.816388   4.684304   4.992380   4.315594   3.017164
    23  C    2.422463   1.397768   2.402517   2.781649   2.414080
    24  H    1.015414   2.037625   2.590652   3.973637   4.731887
    25  H    1.015321   2.040105   3.282478   4.458025   4.732974
    26  H    2.662807   2.158261   1.087131   2.145572   3.397155
    27  H    4.566793   3.404007   2.148507   1.086798   2.164950
    28  H    5.899086   4.637259   4.328169   3.453794   2.814502
    29  H    7.906194   6.731362   6.152069   5.247137   4.979566
    30  H    9.772730   8.604868   7.747219   6.746485   6.721460
    31  H   10.253128   9.027908   8.018929   6.879374   6.900443
    32  H    9.335209   8.025928   6.990194   5.676362   5.572863
    33  H    2.646381   2.151088   3.387521   3.870136   3.400740
                    6          7          8          9         10
     6  O    0.000000
     7  C    1.378021   0.000000
     8  C    2.415813   1.397501   0.000000
     9  C    3.684917   2.418623   1.396252   0.000000
    10  C    4.184633   2.806892   2.426611   1.395485   0.000000
    11  N    5.576138   4.199640   3.700362   2.421761   1.397184
    12  C    3.666319   2.414079   2.781649   2.402517   1.397768
    13  C    2.386241   1.398954   2.426197   2.801833   2.445896
    14  C    2.823362   2.521932   3.806322   4.304981   3.821398
    15  F    2.897524   3.017169   4.315595   4.992374   4.684295
    16  F    2.923840   3.008723   4.332606   5.004016   4.659317
    17  F    4.176956   3.691675   4.821161   4.998883   4.156617
    18  C    2.386240   3.474984   3.804295   5.185794   6.084364
    19  C    2.823360   3.918920   4.214002   5.575461   6.496544
    20  F    4.176955   5.251592   5.405035   6.734681   7.750670
    21  F    2.923856   3.613003   3.582374   4.817188   5.829911
    22  F    2.897505   4.121357   4.766431   6.095478   6.791330
    23  C    3.666319   4.652900   4.828490   6.140486   7.105187
    24  H    6.095389   6.721471   6.746506   7.747239   8.604874
    25  H    6.090459   6.900457   6.879401   8.018958   9.027924
    26  H    4.557296   4.979565   5.247140   6.152065   6.731347
    27  H    2.674443   2.814498   3.453789   4.328158   4.637239
    28  H    2.674441   2.164950   1.086798   2.148507   3.404007
    29  H    4.557295   3.397154   2.145572   1.087131   2.158260
    30  H    6.095384   4.731881   3.973632   2.590648   2.037623
    31  H    6.090454   4.732969   4.458021   3.282474   2.040103
    32  H    4.543192   3.400738   3.870135   3.387521   2.151088
    33  H    4.543193   5.572870   5.676377   6.990210   8.025937
                   11         12         13         14         15
    11  N    0.000000
    12  C    2.422463   0.000000
    13  C    3.716650   1.407295   0.000000
    14  C    4.950571   2.529738   1.503345   0.000000
    15  F    5.816377   3.486306   2.394146   1.360936   0.000000
    16  F    5.839441   3.475426   2.386204   1.363122   2.180162
    17  F    4.989093   2.759411   2.395947   1.365303   2.169798
    18  C    7.442230   5.875598   4.705290   5.114937   5.048144
    19  C    7.817939   6.281659   5.114939   5.478528   5.067296
    20  F    9.040483   7.617172   6.475377   6.825826   6.352620
    21  F    7.055212   5.810281   4.843600   5.480612   5.094137
    22  F    8.124292   6.320930   5.048123   5.067275   4.371195
    23  C    8.429130   6.989550   5.875596   6.281655   6.320950
    24  H    9.772733   8.617224   7.736580   8.161089   8.614303
    25  H   10.253145   9.061770   8.077851   8.517220   8.731742
    26  H    7.906172   6.566012   5.730809   6.077526   6.750416
    27  H    5.899062   4.219575   3.317426   3.676345   4.494108
    28  H    4.566794   3.867608   3.413931   4.683162   5.035976
    29  H    2.662806   3.392594   3.887951   5.390713   6.037002
    30  H    1.015414   3.282942   4.474882   5.798036   6.680074
    31  H    1.015322   2.595608   3.990660   5.012669   5.975453
    32  H    2.646381   1.089178   2.161306   2.730808   3.708006
    33  H    9.335220   7.950519   6.829479   7.217463   7.126727
                   16         17         18         19         20
    16  F    0.000000
    17  F    2.167919   0.000000
    18  C    4.843573   6.475371   0.000000
    19  C    5.480585   6.825829   1.503345   0.000000
    20  F    6.770101   8.170616   2.395947   1.365305   0.000000
    21  F    5.787432   6.770135   2.386203   1.363123   2.167919
    22  F    5.094092   6.352604   2.394148   1.360937   2.169801
    23  C    5.810253   7.617161   1.407295   2.529738   2.759411
    24  H    7.350445   9.314828   4.474885   5.798038   5.926238
    25  H    7.842267   9.784101   3.990663   5.012670   4.790118
    26  H    5.196017   7.110055   3.887952   5.390714   6.059111
    27  H    2.963920   4.710782   3.413931   4.683162   5.798521
    28  H    5.079478   5.798520   3.317438   3.676348   4.710801
    29  H    6.070405   6.059110   5.730820   6.077531   7.110079
    30  H    6.593900   5.926236   7.736579   8.161091   9.314846
    31  H    5.865092   4.790117   8.077847   8.517224   9.784116
    32  H    3.712927   2.391527   6.829478   7.217468   8.568201
    33  H    6.783534   8.568191   2.161307   2.730809   2.391527
                   21         22         23         24         25
    21  F    0.000000
    22  F    2.180164   0.000000
    23  C    3.475416   3.486316   0.000000
    24  H    6.593892   6.680086   3.282944   0.000000
    25  H    5.865084   5.975464   2.595610   1.686521   0.000000
    26  H    6.070400   6.037010   3.392595   2.427357   3.626321
    27  H    5.079482   5.035972   3.867608   4.675280   5.398494
    28  H    2.963917   4.494088   4.219593   6.248985   6.196612
    29  H    5.196025   6.750396   6.566027   8.036152   8.262117
    30  H    7.350460   8.614281   8.617223   9.771847  10.270125
    31  H    7.842293   8.731722   9.061762  10.270110  10.862469
    32  H    6.783566   7.126708   7.950515   9.495217  10.013683
    33  H    3.712916   3.708019   1.089179   3.611098   2.413604
                   26         27         28         29         30
    26  H    0.000000
    27  H    2.455355   0.000000
    28  H    5.113927   3.763323   0.000000
    29  H    6.657547   5.113918   2.455356   0.000000
    30  H    8.036124   6.248956   4.675276   2.427353   0.000000
    31  H    8.262078   6.196575   5.398490   3.626318   1.686519
    32  H    7.336695   4.956629   4.955519   4.290717   3.611098
    33  H    4.290718   4.955519   4.956651   7.336717   9.495223
                   31         32         33
    31  H    0.000000
    32  H    2.413605   0.000000
    33  H   10.013682   8.925977   0.000000
 Stoichiometry    C14H10F6N2O
 Framework group  C1[X(C14H10F6N2O)]
 Deg. of freedom    93
 Full point group                 C1      NOp   1
 Largest Abelian subgroup         C1      NOp   1
 Largest concise Abelian subgroup C1      NOp   1
                         Standard orientation:                         
 ---------------------------------------------------------------------
 Center     Atomic      Atomic             Coordinates (Angstroms)
 Number     Number       Type             X           Y           Z
 ---------------------------------------------------------------------
      1          7           0       -4.591002   -2.161302   -1.582081
      2          6           0       -3.421175   -1.556078   -1.115896
      3          6           0       -2.201620   -1.803012   -1.747632
      4          6           0       -1.048709   -1.112984   -1.367925
      5          6           0       -1.115359   -0.143108   -0.363978
      6          8           0       -0.000000    0.579689    0.000002
      7          6           0        1.115362   -0.143101    0.363987
      8          6           0        1.048717   -1.112963    1.367946
      9          6           0        2.201630   -1.802988    1.747653
     10          6           0        3.421179   -1.556066    1.115903
     11          7           0        4.591008   -2.161293    1.582082
     12          6           0        3.490603   -0.528661    0.170718
     13          6           0        2.341755    0.180683   -0.226094
     14          6           0        2.429631    1.263645   -1.265093
     15          9           0        2.030603    2.481992   -0.808416
     16          9           0        1.668407    0.998374   -2.364308
     17          9           0        3.695368    1.449858   -1.741841
     18          6           0       -2.341756    0.180683    0.226091
     19          6           0       -2.429636    1.263651    1.265083
     20          9           0       -3.695380    1.449883    1.741809
     21          9           0       -1.668436    0.998372    2.364312
     22          9           0       -2.030582    2.481992    0.808408
     23          6           0       -3.490602   -0.528663   -0.170721
     24          1           0       -4.447470   -3.064696   -2.022927
     25          1           0       -5.354046   -2.176273   -0.912441
     26          1           0       -2.138663   -2.532917   -2.550831
     27          1           0       -0.111998   -1.320847   -1.878311
     28          1           0        0.112008   -1.320821    1.878339
     29          1           0        2.138679   -2.532882    2.550863
     30          1           0        4.447472   -3.064681    2.022936
     31          1           0        5.354039   -2.176282    0.912426
     32          1           0        4.455161   -0.270215   -0.264186
     33          1           0       -4.455165   -0.270209    0.264171
 ---------------------------------------------------------------------
 Rotational constants (GHZ):           0.3647764           0.1588126           0.1539618
 Standard basis: 6-31G(d,p) (6D, 7F)
 There are   395 symmetry adapted cartesian basis functions of A   symmetry.
 There are   395 symmetry adapted basis functions of A   symmetry.
   395 basis functions,   714 primitive gaussians,   395 cartesian basis functions
    85 alpha electrons       85 beta electrons
       nuclear repulsion energy      2048.4487565123 Hartrees.
 NAtoms=   33 NActive=   33 NUniq=   33 SFac= 1.00D+00 NAtFMM=   60 NAOKFM=F Big=F
 Integral buffers will be    131072 words long.
 Raffenetti 2 integral format.
 Two-electron integral symmetry is turned on.
 Force inversion solution in PCM.
 ------------------------------------------------------------------------------
 Polarizable Continuum Model (PCM)
 =================================
 Model                : PCM.
 Atomic radii         : UFF (Universal Force Field).
 Polarization charges : Total charges.
 Charge compensation  : None.
 Solution method      : Matrix inversion.
 Cavity type          : Scaled VdW (van der Waals Surface) (Alpha=1.100).
 Cavity algorithm     : GePol (No added spheres)
                        Default sphere list used, NSphG=   33.
                        Lebedev-Laikov grids with approx.  5.0 points / Ang**2.
                        Smoothing algorithm: York/Karplus (Gamma=1.0000).
                        Polarization charges: spherical gaussians, with
                                              point-specific exponents (IZeta= 3).
                        Self-potential: point-specific (ISelfS= 7).
                        Self-field    : sphere-specific E.n sum rule (ISelfD= 2).
 1st derivatives      : Analytical E(r).r(x)/FMM algorithm (CHGder, D1EAlg=3).
                        Cavity 1st derivative terms included.
 2nd derivatives      : Analytical E(r).r(xy)/FMM algorithm (CHGder, D2EAlg=3).
                        Cavity 2nd derivative terms included.
 Solvent              : Water, Eps=  78.355300 Eps(inf)=   1.777849
 ------------------------------------------------------------------------------
 One-electron integrals computed using PRISM.
 NBasis=   395 RedAO= T EigKep=  3.44D-04  NBF=   395
 NBsUse=   395 1.00D-06 EigRej= -1.00D+00 NBFU=   395
 ExpMin= 1.61D-01 ExpMax= 7.00D+03 ExpMxC= 1.05D+03 IAcc=3 IRadAn=         5 AccDes= 0.00D+00
 Harris functional with IExCor=  402 and IRadAn=       5 diagonalized for initial guess.
 HarFok:  IExCor=  402 AccDes= 0.00D+00 IRadAn=         5 IDoV= 1 UseB2=F ITyADJ=14
 ICtDFT=  3500011 ScaDFX=  1.000000  1.000000  1.000000  1.000000
 FoFCou: FMM=F IPFlag=           0 FMFlag=      100000 FMFlg1=           0
         NFxFlg=           0 DoJE=T BraDBF=F KetDBF=T FulRan=T
         wScrn=  0.000000 ICntrl=       500 IOpCl=  0 I1Cent=   200000004 NGrid=           0
         NMat0=    1 NMatS0=      1 NMatT0=    0 NMatD0=    1 NMtDS0=    0 NMtDT0=    0
 Petite list used in FoFCou.
 Requested convergence on RMS density matrix=1.00D-08 within  32 cycles.
 Requested convergence on MAX density matrix=1.00D-06.
 Requested convergence on             energy=1.00D-06.
 No special actions if energy rises.
 Inv3:  Mode=1 IEnd=    22309587.
 Iteration    1 A*A^-1 deviation from unit magnitude is 3.11D-15 for    612.
 Iteration    1 A*A^-1 deviation from orthogonality  is 2.03D-15 for    961     10.
 Iteration    1 A^-1*A deviation from unit magnitude is 3.33D-15 for    413.
 Iteration    1 A^-1*A deviation from orthogonality  is 2.07D-15 for   1810    667.
 Error on total polarization charges =  0.00598
 SCF Done:  E(RB3LYP) =  -1323.32025145     A.U. after   13 cycles
            NFock= 13  Conv=0.43D-08     -V/T= 2.0082
 QCSCF skips out because SCF is already converged.
 DoSCS=F DFT=T ScalE2(SS,OS)=  1.000000  1.000000
 Range of M.O.s used for correlation:     1   395
 NBasis=   395 NAE=    85 NBE=    85 NFC=     0 NFV=     0
 NROrb=    395 NOA=    85 NOB=    85 NVA=   310 NVB=   310
 Symmetrizing basis deriv contribution to polar:
 IMax=3 JMax=2 DiffMx= 0.00D+00
 G2DrvN: will do    34 centers at a time, making    1 passes.
 Calling FoFCou, ICntrl=  3107 FMM=F I1Cent=   0 AccDes= 0.00D+00.
 NEqPCM:  Using equilibrium solvation (IEInf=0, Eps=  78.3553, EpsInf=   1.7778)
 G2PCM: DoFxE=T DoFxN=T DoGrad=T DoDP/DQ/DG/TGxP=FFFF NFrqRd=   0 IEInf=0 SqF1=F DoCFld=F IF1Alg=4.
 End of G2Drv F.D. properties file   721 does not exist.
 End of G2Drv F.D. properties file   722 does not exist.
 End of G2Drv F.D. properties file   788 does not exist.
          IDoAtm=111111111111111111111111111111111
 NEqPCM:  Using equilibrium solvation (IEInf=0, Eps=  78.3553, EpsInf=   1.7778)
          Differentiating once with respect to nuclear coordinates.
 CalDSu exits because no D1Ps are significant.
          There are   102 degrees of freedom in the 1st order CPHF.  IDoFFX=6 NUNeed=     0.
     96 vectors produced by pass  0 Test12= 2.63D-14 1.00D-09 XBig12= 1.43D-01 6.88D-02.
 AX will form    96 AO Fock derivatives at one time.
     96 vectors produced by pass  1 Test12= 2.63D-14 1.00D-09 XBig12= 3.63D-02 3.51D-02.
     96 vectors produced by pass  2 Test12= 2.63D-14 1.00D-09 XBig12= 4.57D-04 1.99D-03.
     96 vectors produced by pass  3 Test12= 2.63D-14 1.00D-09 XBig12= 1.90D-06 1.71D-04.
     96 vectors produced by pass  4 Test12= 2.63D-14 1.00D-09 XBig12= 3.91D-09 3.63D-06.
     85 vectors produced by pass  5 Test12= 2.63D-14 1.00D-09 XBig12= 4.25D-12 1.23D-07.
     28 vectors produced by pass  6 Test12= 2.63D-14 1.00D-09 XBig12= 3.83D-15 4.75D-09.
 InvSVY:  IOpt=1 It=  1 EMax= 4.44D-16
 Solved reduced A of dimension   593 with   102 vectors.
 End of Minotr F.D. properties file   721 does not exist.
 End of Minotr F.D. properties file   722 does not exist.
 End of Minotr F.D. properties file   788 does not exist.

 **********************************************************************

            Population analysis using the SCF density.

 **********************************************************************

 Orbital symmetries:
       Occupied  (A) (A) (A) (A) (A) (A) (A) (A) (A) (A) (A) (A)
                 (A) (A) (A) (A) (A) (A) (A) (A) (A) (A) (A) (A)
                 (A) (A) (A) (A) (A) (A) (A) (A) (A) (A) (A) (A)
                 (A) (A) (A) (A) (A) (A) (A) (A) (A) (A) (A) (A)
                 (A) (A) (A) (A) (A) (A) (A) (A) (A) (A) (A) (A)
                 (A) (A) (A) (A) (A) (A) (A) (A) (A) (A) (A) (A)
                 (A) (A) (A) (A) (A) (A) (A) (A) (A) (A) (A) (A)
                 (A)
       Virtual   (A) (A) (A) (A) (A) (A) (A) (A) (A) (A) (A) (A)
                 (A) (A) (A) (A) (A) (A) (A) (A) (A) (A) (A) (A)
                 (A) (A) (A) (A) (A) (A) (A) (A) (A) (A) (A) (A)
                 (A) (A) (A) (A) (A) (A) (A) (A) (A) (A) (A) (A)
                 (A) (A) (A) (A) (A) (A) (A) (A) (A) (A) (A) (A)
                 (A) (A) (A) (A) (A) (A) (A) (A) (A) (A) (A) (A)
                 (A) (A) (A) (A) (A) (A) (A) (A) (A) (A) (A) (A)
                 (A) (A) (A) (A) (A) (A) (A) (A) (A) (A) (A) (A)
                 (A) (A) (A) (A) (A) (A) (A) (A) (A) (A) (A) (A)
                 (A) (A) (A) (A) (A) (A) (A) (A) (A) (A) (A) (A)
                 (A) (A) (A) (A) (A) (A) (A) (A) (A) (A) (A) (A)
                 (A) (A) (A) (A) (A) (A) (A) (A) (A) (A) (A) (A)
                 (A) (A) (A) (A) (A) (A) (A) (A) (A) (A) (A) (A)
                 (A) (A) (A) (A) (A) (A) (A) (A) (A) (A) (A) (A)
                 (A) (A) (A) (A) (A) (A) (A) (A) (A) (A) (A) (A)
                 (A) (A) (A) (A) (A) (A) (A) (A) (A) (A) (A) (A)
                 (A) (A) (A) (A) (A) (A) (A) (A) (A) (A) (A) (A)
                 (A) (A) (A) (A) (A) (A) (A) (A) (A) (A) (A) (A)
                 (A) (A) (A) (A) (A) (A) (A) (A) (A) (A) (A) (A)
                 (A) (A) (A) (A) (A) (A) (A) (A) (A) (A) (A) (A)
                 (A) (A) (A) (A) (A) (A) (A) (A) (A) (A) (A) (A)
                 (A) (A) (A) (A) (A) (A) (A) (A) (A) (A) (A) (A)
                 (A) (A) (A) (A) (A) (A) (A) (A) (A) (A) (A) (A)
                 (A) (A) (A) (A) (A) (A) (A) (A) (A) (A) (A) (A)
                 (A) (A) (A) (A) (A) (A) (A) (A) (A) (A) (A) (A)
                 (A) (A) (A) (A) (A) (A) (A) (A) (A) (A)
 The electronic state is 1-A.
 Alpha  occ. eigenvalues --  -24.72697 -24.72697 -24.72359 -24.72359 -24.72329
 Alpha  occ. eigenvalues --  -24.72329 -19.19513 -14.34237 -14.34237 -10.43928
 Alpha  occ. eigenvalues --  -10.43928 -10.25944 -10.25944 -10.23789 -10.23789
 Alpha  occ. eigenvalues --  -10.22076 -10.22076 -10.20408 -10.20408 -10.20356
 Alpha  occ. eigenvalues --  -10.20356 -10.19948 -10.19948  -1.29832  -1.29829
 Alpha  occ. eigenvalues --   -1.21122  -1.21116  -1.21041  -1.21040  -1.09106
 Alpha  occ. eigenvalues --   -0.92350  -0.92261  -0.86693  -0.84814  -0.78479
 Alpha  occ. eigenvalues --   -0.78434  -0.75514  -0.72724  -0.70317  -0.69387
 Alpha  occ. eigenvalues --   -0.64448  -0.63498  -0.63172  -0.60489  -0.57888
 Alpha  occ. eigenvalues --   -0.57883  -0.57812  -0.57639  -0.57307  -0.55848
 Alpha  occ. eigenvalues --   -0.53855  -0.52118  -0.52059  -0.49424  -0.49067
 Alpha  occ. eigenvalues --   -0.47095  -0.46007  -0.45952  -0.45890  -0.45641
 Alpha  occ. eigenvalues --   -0.45439  -0.44524  -0.44391  -0.43554  -0.42070
 Alpha  occ. eigenvalues --   -0.41895  -0.41551  -0.41243  -0.40769  -0.40495
 Alpha  occ. eigenvalues --   -0.40059  -0.39783  -0.39739  -0.39320  -0.38642
 Alpha  occ. eigenvalues --   -0.38580  -0.37493  -0.35954  -0.34417  -0.31456
 Alpha  occ. eigenvalues --   -0.29431  -0.27107  -0.26667  -0.21653  -0.20215
 Alpha virt. eigenvalues --   -0.03505  -0.02278  -0.00226   0.00466   0.08041
 Alpha virt. eigenvalues --    0.08909   0.10529   0.10673   0.12224   0.12398
 Alpha virt. eigenvalues --    0.12876   0.13041   0.13086   0.13454   0.16480
 Alpha virt. eigenvalues --    0.16732   0.17055   0.18905   0.19061   0.21118
 Alpha virt. eigenvalues --    0.21534   0.21656   0.21711   0.23729   0.26211
 Alpha virt. eigenvalues --    0.26371   0.27254   0.29491   0.31442   0.32636
 Alpha virt. eigenvalues --    0.33720   0.33831   0.36083   0.36550   0.38179
 Alpha virt. eigenvalues --    0.39060   0.46138   0.46657   0.46862   0.48255
 Alpha virt. eigenvalues --    0.48538   0.48803   0.49395   0.50214   0.52360
 Alpha virt. eigenvalues --    0.53549   0.53770   0.54817   0.55369   0.55762
 Alpha virt. eigenvalues --    0.56594   0.56733   0.57760   0.58174   0.58390
 Alpha virt. eigenvalues --    0.59418   0.60140   0.60875   0.61058   0.61522
 Alpha virt. eigenvalues --    0.63011   0.63686   0.64282   0.67011   0.67187
 Alpha virt. eigenvalues --    0.67852   0.69339   0.69549   0.70254   0.70645
 Alpha virt. eigenvalues --    0.73462   0.76749   0.77944   0.78206   0.79707
 Alpha virt. eigenvalues --    0.80545   0.80824   0.81017   0.83258   0.84500
 Alpha virt. eigenvalues --    0.84577   0.85284   0.85505   0.86412   0.88378
 Alpha virt. eigenvalues --    0.88871   0.89410   0.90788   0.91864   0.92471
 Alpha virt. eigenvalues --    0.96524   0.96831   0.97266   0.98104   1.00779
 Alpha virt. eigenvalues --    1.00925   1.02239   1.02252   1.05950   1.06984
 Alpha virt. eigenvalues --    1.07757   1.07941   1.09545   1.09735   1.10923
 Alpha virt. eigenvalues --    1.12273   1.13807   1.14188   1.14324   1.15634
 Alpha virt. eigenvalues --    1.17609   1.18410   1.20066   1.21233   1.21833
 Alpha virt. eigenvalues --    1.23032   1.24850   1.25013   1.25822   1.30868
 Alpha virt. eigenvalues --    1.31415   1.31882   1.32662   1.33417   1.33602
 Alpha virt. eigenvalues --    1.33706   1.36533   1.36989   1.37296   1.37339
 Alpha virt. eigenvalues --    1.37800   1.38058   1.38559   1.38981   1.39887
 Alpha virt. eigenvalues --    1.39901   1.41105   1.42350   1.42353   1.44998
 Alpha virt. eigenvalues --    1.46445   1.49965   1.51145   1.51538   1.56194
 Alpha virt. eigenvalues --    1.60001   1.60311   1.61347   1.64662   1.65148
 Alpha virt. eigenvalues --    1.67135   1.68868   1.69760   1.70321   1.72478
 Alpha virt. eigenvalues --    1.72989   1.74441   1.74573   1.75383   1.75904
 Alpha virt. eigenvalues --    1.78113   1.78705   1.81360   1.82677   1.83053
 Alpha virt. eigenvalues --    1.83342   1.84912   1.85402   1.85418   1.86433
 Alpha virt. eigenvalues --    1.86599   1.87735   1.88427   1.88642   1.89852
 Alpha virt. eigenvalues --    1.89879   1.91246   1.93371   1.94385   1.95764
 Alpha virt. eigenvalues --    1.96045   1.96418   1.97194   1.98162   1.98374
 Alpha virt. eigenvalues --    1.98968   1.99729   2.00021   2.00447   2.02486
 Alpha virt. eigenvalues --    2.03862   2.04466   2.05487   2.05649   2.05885
 Alpha virt. eigenvalues --    2.07309   2.07461   2.08924   2.10245   2.12208
 Alpha virt. eigenvalues --    2.14292   2.14462   2.16361   2.16499   2.16989
 Alpha virt. eigenvalues --    2.18595   2.22211   2.22282   2.24747   2.25568
 Alpha virt. eigenvalues --    2.26731   2.27657   2.28596   2.30784   2.31824
 Alpha virt. eigenvalues --    2.32141   2.33312   2.34444   2.35448   2.36223
 Alpha virt. eigenvalues --    2.37214   2.40216   2.41055   2.42337   2.43010
 Alpha virt. eigenvalues --    2.43838   2.46800   2.46868   2.47135   2.48028
 Alpha virt. eigenvalues --    2.48877   2.50710   2.50860   2.52877   2.53226
 Alpha virt. eigenvalues --    2.53584   2.54736   2.55881   2.57618   2.61041
 Alpha virt. eigenvalues --    2.61404   2.64028   2.64670   2.66307   2.69164
 Alpha virt. eigenvalues --    2.69240   2.71733   2.72209   2.72989   2.74447
 Alpha virt. eigenvalues --    2.75327   2.76881   2.78808   2.82889   2.83507
 Alpha virt. eigenvalues --    2.84941   2.85778   2.86166   2.91529   2.95230
 Alpha virt. eigenvalues --    2.96619   2.97744   3.00769   3.01051   3.03114
 Alpha virt. eigenvalues --    3.03589   3.05218   3.06312   3.06931   3.07868
 Alpha virt. eigenvalues --    3.11905   3.14507   3.17642   3.18124   3.21930
 Alpha virt. eigenvalues --    3.27244   3.27721   3.27932   3.31209   3.32187
 Alpha virt. eigenvalues --    3.33578   3.43961   3.44041   3.52259   3.52701
 Alpha virt. eigenvalues --    3.75301   3.76865   4.03486   4.03538   4.09922
 Alpha virt. eigenvalues --    4.10295   4.12884   4.13810   4.14458   4.19166
 Alpha virt. eigenvalues --    4.30049   4.30861   4.31400   4.32116   4.39908
 Alpha virt. eigenvalues --    4.44202   4.51919   4.52624   4.57756   4.74187
 Alpha virt. eigenvalues --    4.83951   4.92436   4.99194   5.77103   5.98944
          Condensed to atoms (all electrons):
               1          2          3          4          5          6
     1  N    6.818394   0.302847  -0.071239   0.004467   0.000688  -0.000000
     2  C    0.302847   4.605055   0.521703  -0.013736  -0.037504  -0.000103
     3  C   -0.071239   0.521703   4.951605   0.486566  -0.015669   0.004742
     4  C    0.004467  -0.013736   0.486566   4.995735   0.458915  -0.063628
     5  C    0.000688  -0.037504  -0.015669   0.458915   4.742137   0.238700
     6  O   -0.000000  -0.000103   0.004742  -0.063628   0.238700   8.370417
     7  C   -0.000000   0.000054  -0.000325   0.002836  -0.027234   0.238700
     8  C   -0.000000   0.000026  -0.000333   0.002738   0.002836  -0.063628
     9  C   -0.000000  -0.000000   0.000005  -0.000333  -0.000325   0.004742
    10  C    0.000000   0.000000  -0.000000   0.000026   0.000054  -0.000103
    11  N   -0.000000   0.000000  -0.000000  -0.000000  -0.000000  -0.000000
    12  C   -0.000000  -0.000000   0.000003  -0.000122  -0.000072   0.004539
    13  C   -0.000000  -0.000001   0.000024   0.000950  -0.004957  -0.064489
    14  C    0.000000   0.000001  -0.000003  -0.000049   0.000290   0.000354
    15  F    0.000000   0.000000  -0.000000  -0.000007   0.000239  -0.000452
    16  F   -0.000000   0.000000   0.000020  -0.000261   0.000284  -0.000560
    17  F    0.000000   0.000000   0.000000  -0.000000   0.000003   0.000002
    18  C    0.004478  -0.011362  -0.040946  -0.050879   0.444129  -0.064489
    19  C   -0.000073   0.005322  -0.000586   0.007341  -0.029346   0.000354
    20  F   -0.000001   0.000784  -0.000002  -0.000025   0.002601   0.000002
    21  F    0.000000  -0.000027  -0.000007   0.000162  -0.000793  -0.000560
    22  F    0.000000  -0.000011  -0.000010   0.000106  -0.000533  -0.000452
    23  C   -0.065122   0.473760  -0.042576  -0.055409  -0.028352   0.004539
    24  H    0.345559  -0.024774  -0.009197  -0.000001  -0.000005  -0.000000
    25  H    0.344685  -0.024132   0.005393  -0.000174  -0.000016  -0.000000
    26  H   -0.006791  -0.040142   0.365544  -0.029612   0.003693  -0.000053
    27  H   -0.000104   0.003821  -0.032189   0.362486  -0.040213  -0.006521
    28  H    0.000000   0.000018  -0.000164   0.001091   0.004902  -0.006521
    29  H    0.000000  -0.000000  -0.000000   0.000001  -0.000002  -0.000053
    30  H   -0.000000   0.000000  -0.000000   0.000000  -0.000000  -0.000000
    31  H    0.000000   0.000000  -0.000000  -0.000000  -0.000000  -0.000000
    32  H   -0.000000  -0.000000  -0.000000   0.000001  -0.000002  -0.000048
    33  H   -0.007089  -0.034100   0.005611   0.000195   0.003965  -0.000048
               7          8          9         10         11         12
     1  N   -0.000000  -0.000000  -0.000000   0.000000  -0.000000  -0.000000
     2  C    0.000054   0.000026  -0.000000   0.000000   0.000000  -0.000000
     3  C   -0.000325  -0.000333   0.000005  -0.000000  -0.000000   0.000003
     4  C    0.002836   0.002738  -0.000333   0.000026  -0.000000  -0.000122
     5  C   -0.027234   0.002836  -0.000325   0.000054  -0.000000  -0.000072
     6  O    0.238700  -0.063628   0.004742  -0.000103  -0.000000   0.004539
     7  C    4.742138   0.458916  -0.015669  -0.037504   0.000688  -0.028352
     8  C    0.458916   4.995735   0.486565  -0.013736   0.004467  -0.055410
     9  C   -0.015669   0.486565   4.951605   0.521703  -0.071239  -0.042576
    10  C   -0.037504  -0.013736   0.521703   4.605056   0.302847   0.473760
    11  N    0.000688   0.004467  -0.071239   0.302847   6.818395  -0.065122
    12  C   -0.028352  -0.055410  -0.042576   0.473760  -0.065122   5.077393
    13  C    0.444128  -0.050879  -0.040946  -0.011362   0.004478   0.467209
    14  C   -0.029346   0.007341  -0.000586   0.005322  -0.000073  -0.039039
    15  F   -0.000533   0.000106  -0.000010  -0.000011   0.000000   0.000922
    16  F   -0.000793   0.000162  -0.000007  -0.000027   0.000000   0.001138
    17  F    0.002601  -0.000025  -0.000002   0.000784  -0.000001   0.002651
    18  C   -0.004957   0.000950   0.000024  -0.000001  -0.000000   0.000012
    19  C    0.000290  -0.000049  -0.000003   0.000001   0.000000  -0.000001
    20  F    0.000003  -0.000000   0.000000   0.000000   0.000000  -0.000000
    21  F    0.000284  -0.000261   0.000020   0.000000  -0.000000  -0.000001
    22  F    0.000239  -0.000007  -0.000000   0.000000   0.000000  -0.000000
    23  C   -0.000072  -0.000122   0.000003  -0.000000  -0.000000   0.000000
    24  H   -0.000000   0.000000  -0.000000   0.000000  -0.000000   0.000000
    25  H   -0.000000  -0.000000  -0.000000   0.000000   0.000000  -0.000000
    26  H   -0.000002   0.000001  -0.000000  -0.000000   0.000000  -0.000000
    27  H    0.004902   0.001091  -0.000164   0.000018   0.000000  -0.000084
    28  H   -0.040213   0.362486  -0.032189   0.003821  -0.000104   0.000492
    29  H    0.003693  -0.029612   0.365544  -0.040142  -0.006791   0.005135
    30  H   -0.000005  -0.000001  -0.009197  -0.024775   0.345559   0.005318
    31  H   -0.000016  -0.000174   0.005393  -0.024132   0.344685  -0.009200
    32  H    0.003965   0.000195   0.005611  -0.034100  -0.007089   0.363641
    33  H   -0.000002   0.000001  -0.000000  -0.000000  -0.000000   0.000000
              13         14         15         16         17         18
     1  N   -0.000000   0.000000   0.000000  -0.000000   0.000000   0.004478
     2  C   -0.000001   0.000001   0.000000   0.000000   0.000000  -0.011362
     3  C    0.000024  -0.000003  -0.000000   0.000020   0.000000  -0.040946
     4  C    0.000950  -0.000049  -0.000007  -0.000261  -0.000000  -0.050879
     5  C   -0.004957   0.000290   0.000239   0.000284   0.000003   0.444129
     6  O   -0.064489   0.000354  -0.000452  -0.000560   0.000002  -0.064489
     7  C    0.444128  -0.029346  -0.000533  -0.000793   0.002601  -0.004957
     8  C   -0.050879   0.007341   0.000106   0.000162  -0.000025   0.000950
     9  C   -0.040946  -0.000586  -0.000010  -0.000007  -0.000002   0.000024
    10  C   -0.011362   0.005322  -0.000011  -0.000027   0.000784  -0.000001
    11  N    0.004478  -0.000073   0.000000   0.000000  -0.000001  -0.000000
    12  C    0.467209  -0.039039   0.000922   0.001138   0.002651   0.000012
    13  C    5.256778   0.262820  -0.046421  -0.047384  -0.045242  -0.000538
    14  C    0.262820   4.135090   0.281063   0.277465   0.285813  -0.000038
    15  F   -0.046421   0.281063   9.117988  -0.038232  -0.039079  -0.000004
    16  F   -0.047384   0.277465  -0.038232   9.120043  -0.038980   0.000022
    17  F   -0.045242   0.285813  -0.039079  -0.038980   9.106400   0.000000
    18  C   -0.000538  -0.000038  -0.000004   0.000022   0.000000   5.256777
    19  C   -0.000038   0.000011  -0.000001   0.000001   0.000000   0.262820
    20  F    0.000000   0.000000  -0.000000  -0.000000  -0.000000  -0.045242
    21  F    0.000022   0.000001  -0.000000  -0.000000  -0.000000  -0.047385
    22  F   -0.000004  -0.000001   0.000000  -0.000000  -0.000000  -0.046420
    23  C    0.000012  -0.000001  -0.000000  -0.000001  -0.000000   0.467209
    24  H   -0.000000   0.000000  -0.000000   0.000000   0.000000  -0.000144
    25  H   -0.000000   0.000000  -0.000000  -0.000000  -0.000000   0.000016
    26  H    0.000000  -0.000000  -0.000000  -0.000001  -0.000000   0.000545
    27  H    0.000460   0.000311   0.000013   0.003969   0.000003   0.005514
    28  H    0.005514  -0.000060   0.000001   0.000001   0.000000   0.000460
    29  H    0.000545   0.000005  -0.000000  -0.000000  -0.000000   0.000000
    30  H   -0.000144   0.000001  -0.000000  -0.000000  -0.000000  -0.000000
    31  H    0.000016  -0.000000   0.000000  -0.000000  -0.000002  -0.000000
    32  H   -0.039661  -0.007148   0.000172   0.000170   0.009451  -0.000000
    33  H   -0.000000  -0.000000  -0.000000  -0.000000  -0.000000  -0.039661
              19         20         21         22         23         24
     1  N   -0.000073  -0.000001   0.000000   0.000000  -0.065122   0.345559
     2  C    0.005322   0.000784  -0.000027  -0.000011   0.473760  -0.024774
     3  C   -0.000586  -0.000002  -0.000007  -0.000010  -0.042576  -0.009197
     4  C    0.007341  -0.000025   0.000162   0.000106  -0.055409  -0.000001
     5  C   -0.029346   0.002601  -0.000793  -0.000533  -0.028352  -0.000005
     6  O    0.000354   0.000002  -0.000560  -0.000452   0.004539  -0.000000
     7  C    0.000290   0.000003   0.000284   0.000239  -0.000072  -0.000000
     8  C   -0.000049  -0.000000  -0.000261  -0.000007  -0.000122   0.000000
     9  C   -0.000003   0.000000   0.000020  -0.000000   0.000003  -0.000000
    10  C    0.000001   0.000000   0.000000   0.000000  -0.000000   0.000000
    11  N    0.000000   0.000000  -0.000000   0.000000  -0.000000  -0.000000
    12  C   -0.000001  -0.000000  -0.000001  -0.000000   0.000000   0.000000
    13  C   -0.000038   0.000000   0.000022  -0.000004   0.000012  -0.000000
    14  C    0.000011   0.000000   0.000001  -0.000001  -0.000001   0.000000
    15  F   -0.000001  -0.000000  -0.000000   0.000000  -0.000000  -0.000000
    16  F    0.000001  -0.000000  -0.000000  -0.000000  -0.000001   0.000000
    17  F    0.000000  -0.000000  -0.000000  -0.000000  -0.000000   0.000000
    18  C    0.262820  -0.045242  -0.047385  -0.046420   0.467209  -0.000144
    19  C    4.135091   0.285812   0.277466   0.281062  -0.039039   0.000001
    20  F    0.285812   9.106401  -0.038980  -0.039079   0.002651  -0.000000
    21  F    0.277466  -0.038980   9.120043  -0.038232   0.001138  -0.000000
    22  F    0.281062  -0.039079  -0.038232   9.117988   0.000922  -0.000000
    23  C   -0.039039   0.002651   0.001138   0.000922   5.077393   0.005318
    24  H    0.000001  -0.000000  -0.000000  -0.000000   0.005318   0.423539
    25  H   -0.000000  -0.000002  -0.000000   0.000000  -0.009200  -0.027632
    26  H    0.000005  -0.000000  -0.000000  -0.000000   0.005135   0.004101
    27  H   -0.000060   0.000000   0.000001   0.000001   0.000492  -0.000005
    28  H    0.000311   0.000003   0.003969   0.000013  -0.000084  -0.000000
    29  H   -0.000000  -0.000000  -0.000001  -0.000000  -0.000000   0.000000
    30  H    0.000000   0.000000   0.000000  -0.000000   0.000000  -0.000000
    31  H    0.000000  -0.000000  -0.000000  -0.000000  -0.000000  -0.000000
    32  H   -0.000000  -0.000000  -0.000000  -0.000000   0.000000  -0.000000
    33  H   -0.007148   0.009451   0.000170   0.000172   0.363641  -0.000054
              25         26         27         28         29         30
     1  N    0.344685  -0.006791  -0.000104   0.000000   0.000000  -0.000000
     2  C   -0.024132  -0.040142   0.003821   0.000018  -0.000000   0.000000
     3  C    0.005393   0.365544  -0.032189  -0.000164  -0.000000  -0.000000
     4  C   -0.000174  -0.029612   0.362486   0.001091   0.000001   0.000000
     5  C   -0.000016   0.003693  -0.040213   0.004902  -0.000002  -0.000000
     6  O   -0.000000  -0.000053  -0.006521  -0.006521  -0.000053  -0.000000
     7  C   -0.000000  -0.000002   0.004902  -0.040213   0.003693  -0.000005
     8  C   -0.000000   0.000001   0.001091   0.362486  -0.029612  -0.000001
     9  C   -0.000000  -0.000000  -0.000164  -0.032189   0.365544  -0.009197
    10  C    0.000000  -0.000000   0.000018   0.003821  -0.040142  -0.024775
    11  N    0.000000   0.000000   0.000000  -0.000104  -0.006791   0.345559
    12  C   -0.000000  -0.000000  -0.000084   0.000492   0.005135   0.005318
    13  C   -0.000000   0.000000   0.000460   0.005514   0.000545  -0.000144
    14  C    0.000000  -0.000000   0.000311  -0.000060   0.000005   0.000001
    15  F   -0.000000  -0.000000   0.000013   0.000001  -0.000000  -0.000000
    16  F   -0.000000  -0.000001   0.003969   0.000001  -0.000000  -0.000000
    17  F   -0.000000  -0.000000   0.000003   0.000000  -0.000000  -0.000000
    18  C    0.000016   0.000545   0.005514   0.000460   0.000000  -0.000000
    19  C   -0.000000   0.000005  -0.000060   0.000311  -0.000000   0.000000
    20  F   -0.000002  -0.000000   0.000000   0.000003  -0.000000   0.000000
    21  F   -0.000000  -0.000000   0.000001   0.003969  -0.000001   0.000000
    22  F    0.000000  -0.000000   0.000001   0.000013  -0.000000  -0.000000
    23  C   -0.009200   0.005135   0.000492  -0.000084  -0.000000   0.000000
    24  H   -0.027632   0.004101  -0.000005  -0.000000   0.000000  -0.000000
    25  H    0.424119  -0.000053   0.000003   0.000000   0.000000  -0.000000
    26  H   -0.000053   0.588087  -0.005985  -0.000001  -0.000000   0.000000
    27  H    0.000003  -0.005985   0.581172   0.000086  -0.000001  -0.000000
    28  H    0.000000  -0.000001   0.000086   0.581172  -0.005985  -0.000005
    29  H    0.000000  -0.000000  -0.000001  -0.005985   0.588087   0.004101
    30  H   -0.000000   0.000000  -0.000000  -0.000005   0.004101   0.423540
    31  H   -0.000000   0.000000   0.000000   0.000003  -0.000053  -0.027632
    32  H   -0.000000  -0.000000  -0.000004   0.000011  -0.000176  -0.000054
    33  H    0.004105  -0.000176   0.000011  -0.000004  -0.000000  -0.000000
              31         32         33
     1  N    0.000000  -0.000000  -0.007089
     2  C    0.000000  -0.000000  -0.034100
     3  C   -0.000000  -0.000000   0.005611
     4  C   -0.000000   0.000001   0.000195
     5  C   -0.000000  -0.000002   0.003965
     6  O   -0.000000  -0.000048  -0.000048
     7  C   -0.000016   0.003965  -0.000002
     8  C   -0.000174   0.000195   0.000001
     9  C    0.005393   0.005611  -0.000000
    10  C   -0.024132  -0.034100  -0.000000
    11  N    0.344685  -0.007089  -0.000000
    12  C   -0.009200   0.363641   0.000000
    13  C    0.000016  -0.039661  -0.000000
    14  C   -0.000000  -0.007148  -0.000000
    15  F    0.000000   0.000172  -0.000000
    16  F   -0.000000   0.000170  -0.000000
    17  F   -0.000002   0.009451  -0.000000
    18  C   -0.000000  -0.000000  -0.039661
    19  C    0.000000  -0.000000  -0.007148
    20  F   -0.000000  -0.000000   0.009451
    21  F   -0.000000  -0.000000   0.000170
    22  F   -0.000000  -0.000000   0.000172
    23  C   -0.000000   0.000000   0.363641
    24  H   -0.000000  -0.000000  -0.000054
    25  H   -0.000000  -0.000000   0.004105
    26  H    0.000000  -0.000000  -0.000176
    27  H    0.000000  -0.000004   0.000011
    28  H    0.000003   0.000011  -0.000004
    29  H   -0.000053  -0.000176  -0.000000
    30  H   -0.027632  -0.000054  -0.000000
    31  H    0.424120   0.004105  -0.000000
    32  H    0.004105   0.582346  -0.000000
    33  H   -0.000000  -0.000000   0.582346
 Mulliken charges:
               1
     1  N   -0.670699
     2  C    0.272503
     3  C   -0.127968
     4  C   -0.109381
     5  C    0.281589
     6  O   -0.595386
     7  C    0.281589
     8  C   -0.109381
     9  C   -0.127968
    10  C    0.272502
    11  N   -0.670699
    12  C   -0.162234
    13  C   -0.090892
    14  C    0.820459
    15  F   -0.275754
    16  F   -0.277030
    17  F   -0.284375
    18  C   -0.090892
    19  C    0.820459
    20  F   -0.284376
    21  F   -0.277029
    22  F   -0.275755
    23  C   -0.162234
    24  H    0.283295
    25  H    0.282888
    26  H    0.115705
    27  H    0.120974
    28  H    0.120974
    29  H    0.115705
    30  H    0.283294
    31  H    0.282888
    32  H    0.118615
    33  H    0.118615
 Sum of Mulliken charges =  -0.00000
 Mulliken charges with hydrogens summed into heavy atoms:
               1
     1  N   -0.104517
     2  C    0.272503
     3  C   -0.012263
     4  C    0.011593
     5  C    0.281589
     6  O   -0.595386
     7  C    0.281589
     8  C    0.011593
     9  C   -0.012263
    10  C    0.272502
    11  N   -0.104517
    12  C   -0.043619
    13  C   -0.090892
    14  C    0.820459
    15  F   -0.275754
    16  F   -0.277030
    17  F   -0.284375
    18  C   -0.090892
    19  C    0.820459
    20  F   -0.284376
    21  F   -0.277029
    22  F   -0.275755
    23  C   -0.043619
 APT charges:
               1
     1  N   -1.420371
     2  C    0.236109
     3  C   -0.382926
     4  C   -0.585506
     5  C   -0.354062
     6  O   -0.456448
     7  C   -0.354063
     8  C   -0.585505
     9  C   -0.382927
    10  C    0.236111
    11  N   -1.420358
    12  C   -0.456657
    13  C   -0.451610
    14  C    0.012626
    15  F   -0.065183
    16  F   -0.148619
    17  F    0.380202
    18  C   -0.451612
    19  C    0.012628
    20  F    0.380202
    21  F   -0.148614
    22  F   -0.065190
    23  C   -0.456658
    24  H    0.823410
    25  H    0.909631
    26  H    0.663535
    27  H    0.310975
    28  H    0.310975
    29  H    0.663536
    30  H    0.823403
    31  H    0.909620
    32  H    0.756672
    33  H    0.756673
 Sum of APT charges =  -0.00000
 APT charges with hydrogens summed into heavy atoms:
               1
     1  N    0.312670
     2  C    0.236109
     3  C    0.280609
     4  C   -0.274531
     5  C   -0.354062
     6  O   -0.456448
     7  C   -0.354063
     8  C   -0.274529
     9  C    0.280609
    10  C    0.236111
    11  N    0.312665
    12  C    0.300015
    13  C   -0.451610
    14  C    0.012626
    15  F   -0.065183
    16  F   -0.148619
    17  F    0.380202
    18  C   -0.451612
    19  C    0.012628
    20  F    0.380202
    21  F   -0.148614
    22  F   -0.065190
    23  C    0.300015
 Electronic spatial extent (au):  <R**2>=           7514.1864
 Charge=             -0.0000 electrons
 Dipole moment (field-independent basis, Debye):
    X=             -0.0000    Y=             -9.6205    Z=              0.0000  Tot=              9.6205
 Quadrupole moment (field-independent basis, Debye-Ang):
   XX=            -95.7057   YY=           -112.5926   ZZ=           -128.6678
   XY=              0.0000   XZ=              6.5935   YZ=              0.0000
 Traceless Quadrupole moment (field-independent basis, Debye-Ang):
   XX=             16.6163   YY=             -0.2706   ZZ=            -16.3458
   XY=              0.0000   XZ=              6.5935   YZ=              0.0000
 Octapole moment (field-independent basis, Debye-Ang**2):
  XXX=             -0.0028  YYY=            -11.4631  ZZZ=              0.0003  XYY=              0.0000
  XXY=           -120.0430  XXZ=             -0.0012  XZZ=              0.0001  YZZ=            -11.6562
  YYZ=             -0.0004  XYZ=            -25.3295
 Hexadecapole moment (field-independent basis, Debye-Ang**3):
 XXXX=          -4809.2089 YYYY=          -1495.8707 ZZZZ=          -1440.0991 XXXY=              0.0023
 XXXZ=           -141.5035 YYYX=              0.0004 YYYZ=              0.0011 ZZZX=           -144.9958
 ZZZY=             -0.0013 XXYY=           -886.5040 XXZZ=          -1319.5697 YYZZ=           -422.7717
 XXYZ=              0.0011 YYXZ=            125.6150 ZZXY=             -0.0008
 N-N= 2.048448756512D+03 E-N=-7.209304508200D+03  KE= 1.312538131733D+03
  Exact polarizability:   0.000   0.000   0.000   0.000   0.000   0.000
 Approx polarizability: 345.453  -0.000 225.664  -4.670   0.000 213.931
 D2PCM: PCM CHGder 2nd derivatives, FixD1E=F FixD2E=F DoIter=F DoCFld=F I1PDM=0
 Calling FoFJK, ICntrl=    100147 FMM=F ISym2X=0 I1Cent= 0 IOpClX= 0 NMat=1 NMatS=1 NMatT=0.
 ***** Axes restored to original set *****
 -------------------------------------------------------------------
 Center     Atomic                   Forces (Hartrees/Bohr)
 Number     Number              X              Y              Z
 -------------------------------------------------------------------
      1        7          -0.002064907    0.002820966    0.002974517
      2        6           0.015948176   -0.004845407   -0.005123493
      3        6          -0.014284707   -0.000023463   -0.005157744
      4        6           0.006291385    0.004048996    0.001218275
      5        6           0.003030856    0.000506918   -0.003043948
      6        8           0.000662604   -0.007392214   -0.000255966
      7        6          -0.003053126   -0.000249684    0.003053023
      8        6          -0.006918189    0.002940692   -0.000976176
      9        6           0.014093187    0.002161034    0.005232171
     10        6          -0.014801769   -0.007942233    0.004680066
     11        7           0.001512263    0.003340293   -0.002761905
     12        6           0.006521246   -0.007353534   -0.010006588
     13        6          -0.010304681    0.006416143    0.000310426
     14        6           0.000598172   -0.008847180   -0.012727644
     15        9          -0.000468462    0.007256084    0.001420716
     16        9          -0.002084717    0.000974618    0.006124809
     17        9           0.001912798    0.005047650    0.008497918
     18        6           0.008998256    0.008151189    0.000193713
     19        6           0.001062295   -0.009665793    0.012086685
     20        9          -0.002832262    0.005198564   -0.008143678
     21        9           0.001840528    0.001747283   -0.006030716
     22        9          -0.000836771    0.007304995   -0.000915633
     23        6          -0.005048614   -0.009064760    0.009438047
     24        1           0.001230813   -0.002018149    0.003131611
     25        1          -0.000957283    0.002042500   -0.002960010
     26        1           0.000212386    0.000255265    0.001349276
     27        1          -0.000678706   -0.002267241    0.002705892
     28        1           0.001054074   -0.001919512   -0.002850872
     29        1          -0.000262632    0.000305747   -0.001329758
     30        1          -0.000872022   -0.001984683   -0.003270098
     31        1           0.000597305    0.001971901    0.003099713
     32        1           0.003097926    0.000776648    0.001373321
     33        1          -0.003195421    0.000306368   -0.001335950
 -------------------------------------------------------------------
 Cartesian Forces:  Max     0.015948176 RMS     0.005504111
 FormGI is forming the generalized inverse of G from B-inverse, IUseBI=4.

 GradGradGradGradGradGradGradGradGradGradGradGradGradGradGradGradGradGrad
 Berny optimization.
 Internal  Forces:  Max     0.010504077 RMS     0.003421290
 Search for a local minimum.
 Step number   1 out of a maximum of  171
 All quantities printed in internal units (Hartrees-Bohrs-Radians)
 Mixed Optimization -- RFO/linear search
 Second derivative matrix not updated -- analytic derivatives used.
 ITU=  0
     Eigenvalues ---    0.00247   0.00353   0.00416   0.00493   0.00522
     Eigenvalues ---    0.00595   0.01358   0.01391   0.01573   0.01591
     Eigenvalues ---    0.01729   0.01755   0.01786   0.01801   0.01994
     Eigenvalues ---    0.01998   0.02239   0.02271   0.02421   0.02437
     Eigenvalues ---    0.02649   0.02670   0.02716   0.02809   0.02928
     Eigenvalues ---    0.03009   0.11174   0.11246   0.11793   0.11795
     Eigenvalues ---    0.12030   0.12037   0.12280   0.12303   0.12558
     Eigenvalues ---    0.12582   0.13484   0.13487   0.15498   0.15518
     Eigenvalues ---    0.17755   0.17951   0.18190   0.19138   0.19430
     Eigenvalues ---    0.19616   0.20430   0.20504   0.20909   0.20948
     Eigenvalues ---    0.22751   0.22945   0.23168   0.23281   0.23790
     Eigenvalues ---    0.24271   0.24660   0.25704   0.25714   0.31944
     Eigenvalues ---    0.32626   0.33124   0.33178   0.33193   0.33366
     Eigenvalues ---    0.34639   0.35382   0.35386   0.35831   0.35866
     Eigenvalues ---    0.36060   0.36409   0.37495   0.38432   0.38580
     Eigenvalues ---    0.41403   0.42382   0.42588   0.44464   0.45481
     Eigenvalues ---    0.45546   0.45867   0.45963   0.45990   0.46433
     Eigenvalues ---    0.47298   0.47751   0.47812   0.49274   0.50385
     Eigenvalues ---    0.50387   0.51836   0.52332
 RFO step:  Lambda=-8.13735485D-03 EMin= 2.46886630D-03
 Linear search not attempted -- first point.
 Iteration  1 RMS(Cart)=  0.12100778 RMS(Int)=  0.00273550
 Iteration  2 RMS(Cart)=  0.00519588 RMS(Int)=  0.00032925
 Iteration  3 RMS(Cart)=  0.00000696 RMS(Int)=  0.00032922
 Iteration  4 RMS(Cart)=  0.00000000 RMS(Int)=  0.00032922
 Variable       Old X    -DE/DX   Delta X   Delta X   Delta X     New X
                                 (Linear)    (Quad)   (Total)
    R1        2.64029  -0.00004   0.00000  -0.00892  -0.00892   2.63137
    R2        1.91885  -0.00322   0.00000  -0.00681  -0.00681   1.91205
    R3        1.91868  -0.00302   0.00000  -0.00643  -0.00643   1.91225
    R4        2.63709   0.01050   0.00000   0.02177   0.02187   2.65895
    R5        2.64140   0.00452   0.00000   0.01237   0.01249   2.65389
    R6        2.63853  -0.00381   0.00000  -0.01055  -0.01059   2.62795
    R7        2.05438  -0.00071   0.00000  -0.00169  -0.00169   2.05269
    R8        2.64089  -0.00263   0.00000  -0.00627  -0.00640   2.63450
    R9        2.05375  -0.00195   0.00000  -0.00452  -0.00452   2.04923
   R10        2.60408   0.00968   0.00000   0.02110   0.02110   2.62518
   R11        2.64364   0.00080   0.00000   0.00160   0.00151   2.64515
   R12        2.60408   0.00968   0.00000   0.02109   0.02109   2.62518
   R13        2.64089  -0.00263   0.00000  -0.00627  -0.00640   2.63450
   R14        2.64364   0.00080   0.00000   0.00160   0.00151   2.64515
   R15        2.63853  -0.00381   0.00000  -0.01055  -0.01059   2.62795
   R16        2.05375  -0.00195   0.00000  -0.00452  -0.00452   2.04923
   R17        2.63708   0.01050   0.00000   0.02177   0.02187   2.65895
   R18        2.05438  -0.00071   0.00000  -0.00169  -0.00169   2.05269
   R19        2.64029  -0.00004   0.00000  -0.00892  -0.00892   2.63137
   R20        2.64140   0.00452   0.00000   0.01237   0.01249   2.65389
   R21        1.91885  -0.00322   0.00000  -0.00680  -0.00680   1.91205
   R22        1.91868  -0.00302   0.00000  -0.00643  -0.00643   1.91225
   R23        2.65940  -0.00878   0.00000  -0.02233  -0.02229   2.63711
   R24        2.05825  -0.00321   0.00000  -0.00964  -0.00964   2.04861
   R25        2.84091  -0.00529   0.00000  -0.00036  -0.00036   2.84055
   R26        2.57180  -0.00603   0.00000  -0.01483  -0.01483   2.55696
   R27        2.57593  -0.00466   0.00000  -0.00985  -0.00985   2.56608
   R28        2.58005  -0.00798   0.00000  -0.02489  -0.02489   2.55516
   R29        2.84091  -0.00529   0.00000  -0.00036  -0.00036   2.84055
   R30        2.65940  -0.00878   0.00000  -0.02233  -0.02229   2.63711
   R31        2.58005  -0.00799   0.00000  -0.02489  -0.02489   2.55516
   R32        2.57593  -0.00466   0.00000  -0.00985  -0.00985   2.56608
   R33        2.57180  -0.00603   0.00000  -0.01483  -0.01483   2.55696
   R34        2.05825  -0.00321   0.00000  -0.00964  -0.00964   2.04861
    A1        1.99533   0.00126   0.00000   0.01007   0.01006   2.00539
    A2        1.99936   0.00135   0.00000   0.00869   0.00869   2.00805
    A3        1.96000  -0.00248   0.00000  -0.01704  -0.01705   1.94295
    A4        2.09904   0.00252   0.00000   0.01254   0.01096   2.11000
    A5        2.09721   0.00147   0.00000   0.01091   0.00933   2.10654
    A6        2.07099  -0.00339   0.00000  -0.00634  -0.00779   2.06320
    A7        2.10721   0.00056   0.00000   0.00346   0.00341   2.11062
    A8        2.09888  -0.00117   0.00000  -0.01207  -0.01205   2.08684
    A9        2.07706   0.00060   0.00000   0.00861   0.00863   2.08569
   A10        2.09320   0.00134   0.00000   0.00681   0.00653   2.09972
   A11        2.08226   0.00238   0.00000   0.01942   0.01955   2.10181
   A12        2.10739  -0.00371   0.00000  -0.02603  -0.02591   2.08148
   A13        2.11200   0.00212   0.00000   0.00623   0.00635   2.11835
   A14        2.10070  -0.00290   0.00000  -0.01293  -0.01333   2.08737
   A15        2.06774   0.00082   0.00000   0.00807   0.00817   2.07591
   A16        2.03730   0.00694   0.00000   0.00880   0.00880   2.04611
   A17        2.11200   0.00212   0.00000   0.00623   0.00635   2.11835
   A18        2.06774   0.00082   0.00000   0.00807   0.00817   2.07591
   A19        2.10070  -0.00290   0.00000  -0.01293  -0.01333   2.08737
   A20        2.09320   0.00134   0.00000   0.00681   0.00653   2.09972
   A21        2.10739  -0.00371   0.00000  -0.02603  -0.02591   2.08148
   A22        2.08226   0.00238   0.00000   0.01942   0.01955   2.10181
   A23        2.10721   0.00056   0.00000   0.00346   0.00341   2.11062
   A24        2.07706   0.00060   0.00000   0.00861   0.00863   2.08569
   A25        2.09888  -0.00117   0.00000  -0.01207  -0.01205   2.08684
   A26        2.09904   0.00252   0.00000   0.01254   0.01096   2.11000
   A27        2.07099  -0.00339   0.00000  -0.00634  -0.00779   2.06320
   A28        2.09721   0.00147   0.00000   0.01091   0.00933   2.10654
   A29        1.99532   0.00126   0.00000   0.01007   0.01006   2.00539
   A30        1.99935   0.00135   0.00000   0.00870   0.00869   2.00804
   A31        1.96000  -0.00248   0.00000  -0.01704  -0.01704   1.94295
   A32        2.11837  -0.00215   0.00000  -0.00786  -0.00782   2.11055
   A33        2.08106   0.00217   0.00000   0.00937   0.00933   2.09038
   A34        2.08375  -0.00002   0.00000  -0.00148  -0.00153   2.08223
   A35        2.07152   0.00672   0.00000   0.02318   0.02300   2.09452
   A36        2.10539  -0.00368   0.00000  -0.01450  -0.01443   2.09096
   A37        2.10628  -0.00304   0.00000  -0.00870  -0.00863   2.09765
   A38        1.97778  -0.00433   0.00000  -0.01440  -0.01454   1.96324
   A39        1.96545  -0.00401   0.00000  -0.01399  -0.01412   1.95133
   A40        1.97553  -0.00763   0.00000  -0.01796  -0.01803   1.95750
   A41        1.85571   0.00333   0.00000   0.00554   0.00537   1.86108
   A42        1.84096   0.00697   0.00000   0.02210   0.02203   1.86299
   A43        1.83659   0.00761   0.00000   0.02441   0.02435   1.86094
   A44        2.10539  -0.00368   0.00000  -0.01450  -0.01443   2.09096
   A45        2.07152   0.00672   0.00000   0.02318   0.02300   2.09452
   A46        2.10628  -0.00304   0.00000  -0.00870  -0.00863   2.09765
   A47        1.97553  -0.00763   0.00000  -0.01796  -0.01803   1.95750
   A48        1.96545  -0.00401   0.00000  -0.01399  -0.01412   1.95133
   A49        1.97778  -0.00433   0.00000  -0.01440  -0.01454   1.96324
   A50        1.83659   0.00761   0.00000   0.02441   0.02436   1.86094
   A51        1.84096   0.00697   0.00000   0.02210   0.02203   1.86299
   A52        1.85571   0.00333   0.00000   0.00554   0.00537   1.86108
   A53        2.11837  -0.00215   0.00000  -0.00786  -0.00782   2.11055
   A54        2.08106   0.00217   0.00000   0.00938   0.00933   2.09038
   A55        2.08375  -0.00002   0.00000  -0.00148  -0.00153   2.08223
    D1        0.51457  -0.00101   0.00000  -0.04586  -0.04626   0.46830
    D2       -2.82049   0.00222   0.00000   0.05608   0.05647  -2.76402
    D3        2.81198  -0.00209   0.00000  -0.05233  -0.05272   2.75925
    D4       -0.52309   0.00114   0.00000   0.04961   0.05001  -0.47307
    D5        3.04037   0.00162   0.00000   0.03534   0.03518   3.07556
    D6       -0.09268   0.00169   0.00000   0.03665   0.03641  -0.05627
    D7        0.08938  -0.00208   0.00000  -0.06695  -0.06688   0.02249
[...]
   134    C    9  dx2y2  Ryd( 3d)     0.00048
   135    C    9  dz2    Ryd( 3d)     0.00044

   136    C   10  S      Cor( 1S)     1.99898
   137    C   10  S      Val( 2S)     0.84668
   138    C   10  S      Ryd( 3S)     0.00115
   139    C   10  S      Ryd( 4S)     0.00010
   140    C   10  px     Val( 2p)     0.95965
   141    C   10  px     Ryd( 3p)     0.00543
   142    C   10  py     Val( 2p)     1.01012
   143    C   10  py     Ryd( 3p)     0.00347
   144    C   10  pz     Val( 2p)     0.98169
   145    C   10  pz     Ryd( 3p)     0.00268
   146    C   10  dxy    Ryd( 3d)     0.00124
   147    C   10  dxz    Ryd( 3d)     0.00116
   148    C   10  dyz    Ryd( 3d)     0.00051
   149    C   10  dx2y2  Ryd( 3d)     0.00093
   150    C   10  dz2    Ryd( 3d)     0.00112

   151    N   11  S      Cor( 1S)     1.99949
   152    N   11  S      Val( 2S)     1.36445
   153    N   11  S      Ryd( 3S)     0.00011
   154    N   11  S      Ryd( 4S)     0.00001
   155    N   11  px     Val( 2p)     1.37462
   156    N   11  px     Ryd( 3p)     0.00232
   157    N   11  py     Val( 2p)     1.53720
   158    N   11  py     Ryd( 3p)     0.00285
   159    N   11  pz     Val( 2p)     1.47994
   160    N   11  pz     Ryd( 3p)     0.00241
   161    N   11  dxy    Ryd( 3d)     0.00101
   162    N   11  dxz    Ryd( 3d)     0.00047
   163    N   11  dyz    Ryd( 3d)     0.00056
   164    N   11  dx2y2  Ryd( 3d)     0.00038
   165    N   11  dz2    Ryd( 3d)     0.00080

   166    C   12  S      Cor( 1S)     1.99901
   167    C   12  S      Val( 2S)     0.94589
   168    C   12  S      Ryd( 3S)     0.00066
   169    C   12  S      Ryd( 4S)     0.00005
   170    C   12  px     Val( 2p)     1.16769
   171    C   12  px     Ryd( 3p)     0.00418
   172    C   12  py     Val( 2p)     1.08317
   173    C   12  py     Ryd( 3p)     0.00416
   174    C   12  pz     Val( 2p)     1.05610
   175    C   12  pz     Ryd( 3p)     0.00372
   176    C   12  dxy    Ryd( 3d)     0.00057
   177    C   12  dxz    Ryd( 3d)     0.00047
   178    C   12  dyz    Ryd( 3d)     0.00043
   179    C   12  dx2y2  Ryd( 3d)     0.00051
   180    C   12  dz2    Ryd( 3d)     0.00060

   181    C   13  S      Cor( 1S)     1.99877
   182    C   13  S      Val( 2S)     0.89604
   183    C   13  S      Ryd( 3S)     0.00089
   184    C   13  S      Ryd( 4S)     0.00008
   185    C   13  px     Val( 2p)     1.10732
   186    C   13  px     Ryd( 3p)     0.00456
   187    C   13  py     Val( 2p)     1.11180
   188    C   13  py     Ryd( 3p)     0.00467
   189    C   13  pz     Val( 2p)     1.12729
   190    C   13  pz     Ryd( 3p)     0.00434
   191    C   13  dxy    Ryd( 3d)     0.00064
   192    C   13  dxz    Ryd( 3d)     0.00051
   193    C   13  dyz    Ryd( 3d)     0.00071
   194    C   13  dx2y2  Ryd( 3d)     0.00059
   195    C   13  dz2    Ryd( 3d)     0.00057

   196    C   14  S      Cor( 1S)     1.99907
   197    C   14  S      Val( 2S)     0.79458
   198    C   14  S      Ryd( 3S)     0.00524
   199    C   14  S      Ryd( 4S)     0.00032
   200    C   14  px     Val( 2p)     0.56190
   201    C   14  px     Ryd( 3p)     0.01830
   202    C   14  py     Val( 2p)     0.75306
   203    C   14  py     Ryd( 3p)     0.01478
   204    C   14  pz     Val( 2p)     0.70650
   205    C   14  pz     Ryd( 3p)     0.01538
   206    C   14  dxy    Ryd( 3d)     0.00357
   207    C   14  dxz    Ryd( 3d)     0.00328
   208    C   14  dyz    Ryd( 3d)     0.00298
   209    C   14  dx2y2  Ryd( 3d)     0.00333
   210    C   14  dz2    Ryd( 3d)     0.00391

   211    F   15  S      Cor( 1S)     1.99993
   212    F   15  S      Val( 2S)     1.84493
   213    F   15  S      Ryd( 3S)     0.00090
   214    F   15  S      Ryd( 4S)     0.00003
   215    F   15  px     Val( 2p)     1.90822
   216    F   15  px     Ryd( 3p)     0.00021
   217    F   15  py     Val( 2p)     1.92591
   218    F   15  py     Ryd( 3p)     0.00034
   219    F   15  pz     Val( 2p)     1.68566
   220    F   15  pz     Ryd( 3p)     0.00029
   221    F   15  dxy    Ryd( 3d)     0.00025
   222    F   15  dxz    Ryd( 3d)     0.00117
   223    F   15  dyz    Ryd( 3d)     0.00123
   224    F   15  dx2y2  Ryd( 3d)     0.00025
   225    F   15  dz2    Ryd( 3d)     0.00143

   226    F   16  S      Cor( 1S)     1.99993
   227    F   16  S      Val( 2S)     1.84692
   228    F   16  S      Ryd( 3S)     0.00090
   229    F   16  S      Ryd( 4S)     0.00004
   230    F   16  px     Val( 2p)     1.83015
   231    F   16  px     Ryd( 3p)     0.00027
   232    F   16  py     Val( 2p)     1.77161
   233    F   16  py     Ryd( 3p)     0.00033
   234    F   16  pz     Val( 2p)     1.92136
   235    F   16  pz     Ryd( 3p)     0.00028
   236    F   16  dxy    Ryd( 3d)     0.00103
   237    F   16  dxz    Ryd( 3d)     0.00055
   238    F   16  dyz    Ryd( 3d)     0.00084
   239    F   16  dx2y2  Ryd( 3d)     0.00129
   240    F   16  dz2    Ryd( 3d)     0.00052

   241    F   17  S      Cor( 1S)     1.99993
   242    F   17  S      Val( 2S)     1.84145
   243    F   17  S      Ryd( 3S)     0.00072
   244    F   17  S      Ryd( 4S)     0.00005
   245    F   17  px     Val( 2p)     1.68757
   246    F   17  px     Ryd( 3p)     0.00014
   247    F   17  py     Val( 2p)     1.89635
   248    F   17  py     Ryd( 3p)     0.00031
   249    F   17  pz     Val( 2p)     1.93837
   250    F   17  pz     Ryd( 3p)     0.00030
   251    F   17  dxy    Ryd( 3d)     0.00123
   252    F   17  dxz    Ryd( 3d)     0.00117
   253    F   17  dyz    Ryd( 3d)     0.00027
   254    F   17  dx2y2  Ryd( 3d)     0.00125
   255    F   17  dz2    Ryd( 3d)     0.00043

   256    C   18  S      Cor( 1S)     1.99877
   257    C   18  S      Val( 2S)     0.89604
   258    C   18  S      Ryd( 3S)     0.00089
   259    C   18  S      Ryd( 4S)     0.00008
   260    C   18  px     Val( 2p)     1.10732
   261    C   18  px     Ryd( 3p)     0.00456
   262    C   18  py     Val( 2p)     1.11180
   263    C   18  py     Ryd( 3p)     0.00467
   264    C   18  pz     Val( 2p)     1.12729
   265    C   18  pz     Ryd( 3p)     0.00434
   266    C   18  dxy    Ryd( 3d)     0.00064
   267    C   18  dxz    Ryd( 3d)     0.00051
   268    C   18  dyz    Ryd( 3d)     0.00071
   269    C   18  dx2y2  Ryd( 3d)     0.00059
   270    C   18  dz2    Ryd( 3d)     0.00057

   271    C   19  S      Cor( 1S)     1.99907
   272    C   19  S      Val( 2S)     0.79458
   273    C   19  S      Ryd( 3S)     0.00524
   274    C   19  S      Ryd( 4S)     0.00032
   275    C   19  px     Val( 2p)     0.56190
   276    C   19  px     Ryd( 3p)     0.01830
   277    C   19  py     Val( 2p)     0.75306
   278    C   19  py     Ryd( 3p)     0.01478
   279    C   19  pz     Val( 2p)     0.70650
   280    C   19  pz     Ryd( 3p)     0.01538
   281    C   19  dxy    Ryd( 3d)     0.00357
   282    C   19  dxz    Ryd( 3d)     0.00328
   283    C   19  dyz    Ryd( 3d)     0.00298
   284    C   19  dx2y2  Ryd( 3d)     0.00333
   285    C   19  dz2    Ryd( 3d)     0.00391

   286    F   20  S      Cor( 1S)     1.99993
   287    F   20  S      Val( 2S)     1.84145
   288    F   20  S      Ryd( 3S)     0.00072
   289    F   20  S      Ryd( 4S)     0.00005
   290    F   20  px     Val( 2p)     1.68757
   291    F   20  px     Ryd( 3p)     0.00014
   292    F   20  py     Val( 2p)     1.89635
   293    F   20  py     Ryd( 3p)     0.00031
   294    F   20  pz     Val( 2p)     1.93837
   295    F   20  pz     Ryd( 3p)     0.00030
   296    F   20  dxy    Ryd( 3d)     0.00123
   297    F   20  dxz    Ryd( 3d)     0.00117
   298    F   20  dyz    Ryd( 3d)     0.00027
   299    F   20  dx2y2  Ryd( 3d)     0.00125
   300    F   20  dz2    Ryd( 3d)     0.00043

   301    F   21  S      Cor( 1S)     1.99993
   302    F   21  S      Val( 2S)     1.84692
   303    F   21  S      Ryd( 3S)     0.00090
   304    F   21  S      Ryd( 4S)     0.00004
   305    F   21  px     Val( 2p)     1.83015
   306    F   21  px     Ryd( 3p)     0.00027
   307    F   21  py     Val( 2p)     1.77162
   308    F   21  py     Ryd( 3p)     0.00033
   309    F   21  pz     Val( 2p)     1.92136
   310    F   21  pz     Ryd( 3p)     0.00028
   311    F   21  dxy    Ryd( 3d)     0.00103
   312    F   21  dxz    Ryd( 3d)     0.00055
   313    F   21  dyz    Ryd( 3d)     0.00084
   314    F   21  dx2y2  Ryd( 3d)     0.00129
   315    F   21  dz2    Ryd( 3d)     0.00052

   316    F   22  S      Cor( 1S)     1.99993
   317    F   22  S      Val( 2S)     1.84493
   318    F   22  S      Ryd( 3S)     0.00090
   319    F   22  S      Ryd( 4S)     0.00003
   320    F   22  px     Val( 2p)     1.90822
   321    F   22  px     Ryd( 3p)     0.00021
   322    F   22  py     Val( 2p)     1.92590
   323    F   22  py     Ryd( 3p)     0.00034
   324    F   22  pz     Val( 2p)     1.68567
   325    F   22  pz     Ryd( 3p)     0.00029
   326    F   22  dxy    Ryd( 3d)     0.00025
   327    F   22  dxz    Ryd( 3d)     0.00117
   328    F   22  dyz    Ryd( 3d)     0.00123
   329    F   22  dx2y2  Ryd( 3d)     0.00025
   330    F   22  dz2    Ryd( 3d)     0.00143

   331    C   23  S      Cor( 1S)     1.99901
   332    C   23  S      Val( 2S)     0.94589
   333    C   23  S      Ryd( 3S)     0.00066
   334    C   23  S      Ryd( 4S)     0.00005
   335    C   23  px     Val( 2p)     1.16769
   336    C   23  px     Ryd( 3p)     0.00418
   337    C   23  py     Val( 2p)     1.08318
   338    C   23  py     Ryd( 3p)     0.00416
   339    C   23  pz     Val( 2p)     1.05610
   340    C   23  pz     Ryd( 3p)     0.00372
   341    C   23  dxy    Ryd( 3d)     0.00057
   342    C   23  dxz    Ryd( 3d)     0.00047
   343    C   23  dyz    Ryd( 3d)     0.00043
   344    C   23  dx2y2  Ryd( 3d)     0.00051
   345    C   23  dz2    Ryd( 3d)     0.00060

   346    H   24  S      Val( 1S)     0.56987
   347    H   24  S      Ryd( 2S)     0.00137
   348    H   24  px     Ryd( 2p)     0.00022
   349    H   24  py     Ryd( 2p)     0.00040
   350    H   24  pz     Ryd( 2p)     0.00061

   351    H   25  S      Val( 1S)     0.56932
   352    H   25  S      Ryd( 2S)     0.00109
   353    H   25  px     Ryd( 2p)     0.00045
   354    H   25  py     Ryd( 2p)     0.00049
   355    H   25  pz     Ryd( 2p)     0.00029

   356    H   26  S      Val( 1S)     0.74857
   357    H   26  S      Ryd( 2S)     0.00086
   358    H   26  px     Ryd( 2p)     0.00006
   359    H   26  py     Ryd( 2p)     0.00030
   360    H   26  pz     Ryd( 2p)     0.00026

   361    H   27  S      Val( 1S)     0.73522
   362    H   27  S      Ryd( 2S)     0.00161
   363    H   27  px     Ryd( 2p)     0.00033
   364    H   27  py     Ryd( 2p)     0.00017
   365    H   27  pz     Ryd( 2p)     0.00010

   366    H   28  S      Val( 1S)     0.73522
   367    H   28  S      Ryd( 2S)     0.00161
   368    H   28  px     Ryd( 2p)     0.00033
   369    H   28  py     Ryd( 2p)     0.00017
   370    H   28  pz     Ryd( 2p)     0.00010

   371    H   29  S      Val( 1S)     0.74857
   372    H   29  S      Ryd( 2S)     0.00086
   373    H   29  px     Ryd( 2p)     0.00006
   374    H   29  py     Ryd( 2p)     0.00030
   375    H   29  pz     Ryd( 2p)     0.00026

   376    H   30  S      Val( 1S)     0.56987
   377    H   30  S      Ryd( 2S)     0.00137
   378    H   30  px     Ryd( 2p)     0.00022
   379    H   30  py     Ryd( 2p)     0.00040
   380    H   30  pz     Ryd( 2p)     0.00061

   381    H   31  S      Val( 1S)     0.56932
   382    H   31  S      Ryd( 2S)     0.00109
   383    H   31  px     Ryd( 2p)     0.00045
   384    H   31  py     Ryd( 2p)     0.00049
   385    H   31  pz     Ryd( 2p)     0.00029

   386    H   32  S      Val( 1S)     0.74092
   387    H   32  S      Ryd( 2S)     0.00158
   388    H   32  px     Ryd( 2p)     0.00032
   389    H   32  py     Ryd( 2p)     0.00018
   390    H   32  pz     Ryd( 2p)     0.00013

   391    H   33  S      Val( 1S)     0.74092
   392    H   33  S      Ryd( 2S)     0.00158
   393    H   33  px     Ryd( 2p)     0.00032
   394    H   33  py     Ryd( 2p)     0.00018
   395    H   33  pz     Ryd( 2p)     0.00013

 WARNING:  1 low occupancy (<1.9990e) core orbital  found on  C    2
           1 low occupancy (<1.9990e) core orbital  found on  C    5
           1 low occupancy (<1.9990e) core orbital  found on  C    7
           1 low occupancy (<1.9990e) core orbital  found on  C   10
           1 low occupancy (<1.9990e) core orbital  found on  C   13
           1 low occupancy (<1.9990e) core orbital  found on  C   18


 Summary of Natural Population Analysis:                  
                                                          
                                       Natural Population 
                Natural  -----------------------------------------------
    Atom  No    Charge         Core      Valence    Rydberg      Total
 -----------------------------------------------------------------------
      N    1   -0.76660      1.99949     5.75620    0.01091     7.76660
      C    2    0.18508      1.99898     3.79815    0.01779     5.81492
      C    3   -0.32547      1.99906     4.31062    0.01579     6.32547
      C    4   -0.27088      1.99902     4.25684    0.01502     6.27088
      C    5    0.32366      1.99865     3.65370    0.02399     5.67634
      O    6   -0.48505      1.99971     6.47320    0.01215     8.48505
      C    7    0.32366      1.99865     3.65370    0.02399     5.67634
      C    8   -0.27088      1.99902     4.25684    0.01502     6.27088
      C    9   -0.32547      1.99906     4.31062    0.01579     6.32547
      C   10    0.18508      1.99898     3.79815    0.01779     5.81492
      N   11   -0.76659      1.99949     5.75620    0.01091     7.76659
      C   12   -0.26721      1.99901     4.25286    0.01534     6.26721
      C   13   -0.25881      1.99877     4.24245    0.01758     6.25881
      C   14    1.11379      1.99907     2.81604    0.07110     4.88621
      F   15   -0.37075      1.99993     7.36472    0.00610     9.37075
      F   16   -0.37602      1.99993     7.37004    0.00605     9.37602
      F   17   -0.36954      1.99993     7.36373    0.00588     9.36954
      C   18   -0.25881      1.99877     4.24245    0.01758     6.25881
      C   19    1.11379      1.99907     2.81604    0.07110     4.88621
      F   20   -0.36954      1.99993     7.36373    0.00588     9.36954
      F   21   -0.37602      1.99993     7.37004    0.00605     9.37602
      F   22   -0.37075      1.99993     7.36472    0.00610     9.37075
      C   23   -0.26721      1.99901     4.25286    0.01534     6.26721
      H   24    0.42753      0.00000     0.56987    0.00260     0.57247
      H   25    0.42836      0.00000     0.56932    0.00232     0.57164
      H   26    0.24995      0.00000     0.74857    0.00148     0.75005
      H   27    0.26257      0.00000     0.73522    0.00222     0.73743
      H   28    0.26257      0.00000     0.73522    0.00222     0.73743
      H   29    0.24995      0.00000     0.74857    0.00148     0.75005
      H   30    0.42753      0.00000     0.56987    0.00260     0.57247
      H   31    0.42836      0.00000     0.56932    0.00232     0.57164
      H   32    0.25686      0.00000     0.74092    0.00222     0.74314
      H   33    0.25686      0.00000     0.74092    0.00222     0.74314
 =======================================================================
   * Total *    0.00000     45.98338   123.57170    0.44492   170.00000

                                 Natural Population      
 --------------------------------------------------------
   Core                      45.98338 ( 99.9639% of  46)
   Valence                  123.57170 ( 99.6546% of 124)
   Natural Minimal Basis    169.55508 ( 99.7383% of 170)
   Natural Rydberg Basis      0.44492 (  0.2617% of 170)
 --------------------------------------------------------

    Atom  No          Natural Electron Configuration
 ----------------------------------------------------------------------------
      N    1      [core]2S( 1.36)2p( 4.39)3p( 0.01)
      C    2      [core]2S( 0.85)2p( 2.95)3p( 0.01)
      C    3      [core]2S( 0.95)2p( 3.36)3p( 0.01)
      C    4      [core]2S( 0.96)2p( 3.29)3p( 0.01)
      C    5      [core]2S( 0.83)2p( 2.82)3p( 0.02)3d( 0.01)
      O    6      [core]2S( 1.58)2p( 4.90)3p( 0.01)3d( 0.01)
      C    7      [core]2S( 0.83)2p( 2.82)3p( 0.02)3d( 0.01)
      C    8      [core]2S( 0.96)2p( 3.29)3p( 0.01)
      C    9      [core]2S( 0.95)2p( 3.36)3p( 0.01)
      C   10      [core]2S( 0.85)2p( 2.95)3p( 0.01)
      N   11      [core]2S( 1.36)2p( 4.39)3p( 0.01)
      C   12      [core]2S( 0.95)2p( 3.31)3p( 0.01)
      C   13      [core]2S( 0.90)2p( 3.35)3p( 0.01)
      C   14      [core]2S( 0.79)2p( 2.02)3S( 0.01)3p( 0.05)3d( 0.02)
      F   15      [core]2S( 1.84)2p( 5.52)
      F   16      [core]2S( 1.85)2p( 5.52)
      F   17      [core]2S( 1.84)2p( 5.52)
      C   18      [core]2S( 0.90)2p( 3.35)3p( 0.01)
      C   19      [core]2S( 0.79)2p( 2.02)3S( 0.01)3p( 0.05)3d( 0.02)
      F   20      [core]2S( 1.84)2p( 5.52)
      F   21      [core]2S( 1.85)2p( 5.52)
      F   22      [core]2S( 1.84)2p( 5.52)
      C   23      [core]2S( 0.95)2p( 3.31)3p( 0.01)
      H   24            1S( 0.57)
      H   25            1S( 0.57)
      H   26            1S( 0.75)
      H   27            1S( 0.74)
      H   28            1S( 0.74)
      H   29            1S( 0.75)
      H   30            1S( 0.57)
      H   31            1S( 0.57)
      H   32            1S( 0.74)
      H   33            1S( 0.74)


 NBO analysis skipped by request.
 1\1\GINC-DRG2-W008\SP\RB3LYP TD-FC\6-31G(d,p)\C14H10F6N2O1\QDUEZ\18-Ju
 l-2024\0\\# TD(NStates=10, Root=1) B3LYP/6-31G** SCRF=(Solvent=water) 
 volume pop=NPA density=current Geom=AllCheck Guess=Read\\NKYXYJFTTIPZD
 E-UHFFFAOYSA-N_conf_4\\0,1\N,0,4.7751530056,1.8764826872,0.3361637507\
 C,0,3.5816527961,1.1603506486,0.3097058512\C,0,2.6383879867,1.36292712
 02,-0.7153781413\C,0,1.4795483855,0.5974083187,-0.7820844109\C,0,1.226
 0210497,-0.3821248378,0.1773935905\O,0,0.1079664113,-1.2041040132,0.09
 50979061\C,0,-1.1388366269,-0.5901897079,0.0625451035\C,0,-1.556464678
 1,0.2605005131,1.0854196724\C,0,-2.8332744617,0.8106718069,1.064291515
 9\C,0,-3.7318297775,0.5145620925,0.021938327\N,0,-5.0337246842,1.00732
 97881,0.0373593871\C,0,-3.3006911902,-0.3458248175,-1.0013335957\C,0,-
 2.0153939563,-0.8900067027,-0.9875388454\C,0,-1.5650223266,-1.78627049
 28,-2.1078879239\F,0,-1.2343167737,-3.0258152157,-1.6774132809\F,0,-0.
 4713270076,-1.2926607562,-2.7438398996\F,0,-2.5215082237,-1.9436755245
 ,-3.0510434461\C,0,2.1483441662,-0.5927795765,1.2098003511\C,0,1.87129
 13164,-1.6295603043,2.2631914831\F,0,2.8463058212,-1.6788671579,3.1991
 933003\F,0,0.7112225693,-1.3829764978,2.924774403\F,0,1.7634598502,-2.
 8756230774,1.7466204926\C,0,3.3165551718,0.1688709487,1.2688319562\H,0
 ,4.7449028167,2.7756707651,-0.1265917844\H,0,5.2162261745,1.9439155175
 ,1.2442439062\H,0,2.8236884885,2.1207280325,-1.4712220196\H,0,0.768948
 0698,0.7453671199,-1.58740346\H,0,-0.8785160327,0.4767363161,1.9033506
 448\H,0,-3.1456179064,1.4697904338,1.8692155344\H,0,-5.1608790609,1.86
 36653661,0.5609223048\H,0,-5.4853448991,1.0574872146,-0.8666460073\H,0
 ,-3.9699018922,-0.5869293922,-1.819307702\H,0,4.0229754181,-0.00505661
 51,2.0724336378\\Version=ES64L-G16RevA.03\State=1-A\HF=-1323.3249136\R
 MSD=4.474e-09\Dipole=-0.3615291,4.0315298,0.1396475\Quadrupole=22.1792
 3,-3.7800659,-18.3991641,2.1913611,4.3588936,0.8915061\PG=C01 [X(C14H1
 0F6N2O1)]\\@


 THEORY:  SUPPOSITION WHICH HAS SCIENTIFIC BASIS,
          BUT NOT EXPERIMENTALLY PROVEN.
 FACT:    A THEORY WHICH HAS BEEN PROVEN BY ENOUGH 
          MONEY TO PAY FOR THE EXPERIMENTS.

                          --  THE WIZARD OF ID
 Job cpu time:       0 days  1 hours 20 minutes 40.0 seconds.
 Elapsed time:       0 days  0 hours 26 minutes 58.0 seconds.
 File lengths (MBytes):  RWF=   1397 Int=      0 D2E=      0 Chk=     80 Scr=      1
 Normal termination of Gaussian 16 at Thu Jul 18 17:08:37 2024.
