 Entering Gaussian System, Link 0=g16
 Initial command:
 /opt/sw/arch/manual/gaussian/G16_A03/g16/l1.exe "/scratch/1380950/Gau-169316.inp" -scrdir="/scratch/1380950/"
 Entering Link 1 = /opt/sw/arch/manual/gaussian/G16_A03/g16/l1.exe PID=    169317.
  
 Copyright (c) 1988,1990,1992,1993,1995,1998,2003,2009,2016,
            Gaussian, Inc.  All Rights Reserved.
  
 This is part of the Gaussian(R) 16 program.  It is based on
 the Gaussian(R) 09 system (copyright 2009, Gaussian, Inc.),
 the Gaussian(R) 03 system (copyright 2003, Gaussian, Inc.),
 the Gaussian(R) 98 system (copyright 1998, Gaussian, Inc.),
 the Gaussian(R) 94 system (copyright 1995, Gaussian, Inc.),
 the Gaussian 92(TM) system (copyright 1992, Gaussian, Inc.),
 the Gaussian 90(TM) system (copyright 1990, Gaussian, Inc.),
 the Gaussian 88(TM) system (copyright 1988, Gaussian, Inc.),
 the Gaussian 86(TM) system (copyright 1986, Carnegie Mellon
 University), and the Gaussian 82(TM) system (copyright 1983,
 Carnegie Mellon University). Gaussian is a federally registered
 trademark of Gaussian, Inc.
  
 This software contains proprietary and confidential information,
 including trade secrets, belonging to Gaussian, Inc.
  
 This software is provided under written license and may be
 used, copied, transmitted, or stored only in accord with that
 written license.
  
 The following legend is applicable only to US Government
 contracts under FAR:
  
                    RESTRICTED RIGHTS LEGEND
  
 Use, reproduction and disclosure by the US Government is
 subject to restrictions as set forth in subparagraphs (a)
 and (c) of the Commercial Computer Software - Restricted
 Rights clause in FAR 52.227-19.
  
 Gaussian, Inc.
 340 Quinnipiac St., Bldg. 40, Wallingford CT 06492
  
  
 ---------------------------------------------------------------
 Warning -- This program may not be used in any manner that
 competes with the business of Gaussian, Inc. or will provide
 assistance to any competitor of Gaussian, Inc.  The licensee
 of this program is prohibited from giving any competitor of
 Gaussian, Inc. access to this program.  By using this program,
 the user acknowledges that Gaussian, Inc. is engaged in the
 business of creating and licensing software in the field of
 computational chemistry and represents and warrants to the
 licensee that it is not a competitor of Gaussian, Inc. and that
 it will not use this program in any manner prohibited above.
 ---------------------------------------------------------------
  

 Cite this work as:
 Gaussian 16, Revision A.03,
 M. J. Frisch, G. W. Trucks, H. B. Schlegel, G. E. Scuseria, 
 M. A. Robb, J. R. Cheeseman, G. Scalmani, V. Barone, 
 G. A. Petersson, H. Nakatsuji, X. Li, M. Caricato, A. V. Marenich, 
 J. Bloino, B. G. Janesko, R. Gomperts, B. Mennucci, H. P. Hratchian, 
 J. V. Ortiz, A. F. Izmaylov, J. L. Sonnenberg, D. Williams-Young, 
 F. Ding, F. Lipparini, F. Egidi, J. Goings, B. Peng, A. Petrone, 
 T. Henderson, D. Ranasinghe, V. G. Zakrzewski, J. Gao, N. Rega, 
 G. Zheng, W. Liang, M. Hada, M. Ehara, K. Toyota, R. Fukuda, 
 J. Hasegawa, M. Ishida, T. Nakajima, Y. Honda, O. Kitao, H. Nakai, 
 T. Vreven, K. Throssell, J. A. Montgomery, Jr., J. E. Peralta, 
 F. Ogliaro, M. J. Bearpark, J. J. Heyd, E. N. Brothers, K. N. Kudin, 
 V. N. Staroverov, T. A. Keith, R. Kobayashi, J. Normand, 
 K. Raghavachari, A. P. Rendell, J. C. Burant, S. S. Iyengar, 
 J. Tomasi, M. Cossi, J. M. Millam, M. Klene, C. Adamo, R. Cammi, 
 J. W. Ochterski, R. L. Martin, K. Morokuma, O. Farkas, 
 J. B. Foresman, and D. J. Fox, Gaussian, Inc., Wallingford CT, 2016.
 
 ******************************************
 Gaussian 16:  ES64L-G16RevA.03 25-Dec-2016
                18-Jul-2024 
 ******************************************
 %nprocshared=5
 Will use up to    5 processors via shared memory.
 %mem=10GB
 %Chk=NKYXYJFTTIPZDE-UHFFFAOYSA-N_conf_0_0.chk
 -------------------------------------------------------
 # opt=CalcFc B3LYP/6-31G** SCRF=(Solvent=water) scf=xqc
 -------------------------------------------------------
 1/10=4,18=20,19=15,26=3,38=1/1,3;
 2/9=110,12=2,17=6,18=5,40=1/2;
 3/5=1,6=6,7=101,11=2,25=1,30=1,70=2201,71=2,72=1,74=-5,140=1/1,2,3;
 4//1;
 5/5=2,8=3,13=1,38=5,53=1/2,8;
 8/6=4,10=90,11=11/1;
 11/6=1,8=1,9=11,15=111,16=1/1,2,10;
 10/6=1,13=1/2;
 6/7=2,8=2,9=2,10=2,28=1/1;
 7/10=1,18=20,25=1/1,2,3,16;
 1/10=4,18=20,19=15,26=3/3(2);
 2/9=110/2;
 99//99;
 2/9=110/2;
 3/5=1,6=6,7=101,11=2,25=1,30=1,70=2205,71=1,72=1,74=-5/1,2,3;
 4/5=5,16=3,69=1/1;
 5/5=2,8=3,13=1,38=5,53=1/2,8;
 7//1,2,3,16;
 1/18=20,19=15,26=3/3(-5);
 2/9=110/2;
 6/7=2,8=2,9=2,10=2,19=2,28=1/1;
 99/9=1/99;
 ----------------------------------
 NKYXYJFTTIPZDE-UHFFFAOYSA-N_conf_0
 ----------------------------------
 Symbolic Z-matrix:
 Charge =  0 Multiplicity = 1
 N                     4.70886   1.1015    1.48407 
 C                     3.54321   0.46809   1.04435 
 C                     2.35977   0.58702   1.77426 
 C                     1.16278   0.06267   1.28278 
 C                     1.13031  -0.53665   0.02059 
 O                    -0.0287   -1.09385  -0.47461 
 C                    -1.15216  -0.29587  -0.48373 
 C                    -1.1357    0.96942  -1.07713 
 C                    -2.29868   1.74148  -1.10362 
 C                    -3.49836   1.24115  -0.59582 
 N                    -4.62583   2.06296  -0.51358 
 C                    -3.49472  -0.0106    0.02602 
 C                    -2.33433  -0.80566   0.06439 
 C                    -2.35555  -2.1625    0.71126 
 F                    -1.52136  -2.24662   1.78575 
 F                    -1.992    -3.16602  -0.13389 
 F                    -3.58762  -2.5147    1.18239 
 C                     2.29649  -0.63644  -0.74618 
 C                     2.26542  -1.2726   -2.10787 
 F                     3.48748  -1.30212  -2.71592 
 F                     1.44624  -0.61622  -2.97711 
 F                     1.84162  -2.56623  -2.08662 
 C                     3.49177  -0.10178  -0.23087 
 H                     5.56533   0.722     1.09206 
 H                     4.76591   1.21232   2.49208 
 H                     2.35969   1.084     2.74115 
 H                     0.26406   0.1309    1.89021 
 H                    -0.22479   1.36611  -1.5178 
 H                    -2.25938   2.73879  -1.53453 
 H                    -4.66086   2.79133  -1.2206 
 H                    -5.50542   1.56117  -0.43767 
 H                    -4.41038  -0.37822   0.48713 
 H                     4.39692  -0.13485  -0.83569 
 

 GradGradGradGradGradGradGradGradGradGradGradGradGradGradGradGradGradGrad
 Berny optimization.
 Initialization pass.
                           ----------------------------
                           !    Initial Parameters    !
                           ! (Angstroms and Degrees)  !
 --------------------------                            --------------------------
 ! Name  Definition              Value          Derivative Info.                !
 --------------------------------------------------------------------------------
 ! R1    R(1,2)                  1.3976         calculate D2E/DX2 analytically  !
 ! R2    R(1,24)                 1.0155         calculate D2E/DX2 analytically  !
 ! R3    R(1,25)                 1.0157         calculate D2E/DX2 analytically  !
 ! R4    R(2,3)                  1.3955         calculate D2E/DX2 analytically  !
 ! R5    R(2,23)                 1.3977         calculate D2E/DX2 analytically  !
 ! R6    R(3,4)                  1.3962         calculate D2E/DX2 analytically  !
 ! R7    R(3,26)                 1.0871         calculate D2E/DX2 analytically  !
 ! R8    R(4,5)                  1.3976         calculate D2E/DX2 analytically  !
 ! R9    R(4,27)                 1.0869         calculate D2E/DX2 analytically  !
 ! R10   R(5,6)                  1.378          calculate D2E/DX2 analytically  !
 ! R11   R(5,18)                 1.3992         calculate D2E/DX2 analytically  !
 ! R12   R(6,7)                  1.378          calculate D2E/DX2 analytically  !
 ! R13   R(7,8)                  1.3976         calculate D2E/DX2 analytically  !
 ! R14   R(7,13)                 1.3992         calculate D2E/DX2 analytically  !
 ! R15   R(8,9)                  1.3962         calculate D2E/DX2 analytically  !
 ! R16   R(8,28)                 1.0869         calculate D2E/DX2 analytically  !
 ! R17   R(9,10)                 1.3955         calculate D2E/DX2 analytically  !
 ! R18   R(9,29)                 1.0871         calculate D2E/DX2 analytically  !
 ! R19   R(10,11)                1.3976         calculate D2E/DX2 analytically  !
 ! R20   R(10,12)                1.3977         calculate D2E/DX2 analytically  !
 ! R21   R(11,30)                1.0157         calculate D2E/DX2 analytically  !
 ! R22   R(11,31)                1.0155         calculate D2E/DX2 analytically  !
 ! R23   R(12,13)                1.4072         calculate D2E/DX2 analytically  !
 ! R24   R(12,32)                1.0891         calculate D2E/DX2 analytically  !
 ! R25   R(13,14)                1.5033         calculate D2E/DX2 analytically  !
 ! R26   R(14,15)                1.3629         calculate D2E/DX2 analytically  !
 ! R27   R(14,16)                1.3614         calculate D2E/DX2 analytically  !
 ! R28   R(14,17)                1.3653         calculate D2E/DX2 analytically  !
 ! R29   R(18,19)                1.5033         calculate D2E/DX2 analytically  !
 ! R30   R(18,23)                1.4072         calculate D2E/DX2 analytically  !
 ! R31   R(19,20)                1.3653         calculate D2E/DX2 analytically  !
 ! R32   R(19,21)                1.3629         calculate D2E/DX2 analytically  !
 ! R33   R(19,22)                1.3614         calculate D2E/DX2 analytically  !
 ! R34   R(23,33)                1.0891         calculate D2E/DX2 analytically  !
 ! A1    A(2,1,24)             114.368          calculate D2E/DX2 analytically  !
 ! A2    A(2,1,25)             114.1132         calculate D2E/DX2 analytically  !
 ! A3    A(24,1,25)            112.118          calculate D2E/DX2 analytically  !
 ! A4    A(1,2,3)              120.272          calculate D2E/DX2 analytically  !
 ! A5    A(1,2,23)             120.1676         calculate D2E/DX2 analytically  !
 ! A6    A(3,2,23)             118.7338         calculate D2E/DX2 analytically  !
 ! A7    A(2,3,4)              120.7258         calculate D2E/DX2 analytically  !
 ! A8    A(2,3,26)             120.2791         calculate D2E/DX2 analytically  !
 ! A9    A(4,3,26)             118.9931         calculate D2E/DX2 analytically  !
 ! A10   A(3,4,5)              119.9251         calculate D2E/DX2 analytically  !
 ! A11   A(3,4,27)             119.2486         calculate D2E/DX2 analytically  !
 ! A12   A(5,4,27)             120.8259         calculate D2E/DX2 analytically  !
 ! A13   A(4,5,6)              121.1611         calculate D2E/DX2 analytically  !
 ! A14   A(4,5,18)             120.4048         calculate D2E/DX2 analytically  !
 ! A15   A(6,5,18)             118.3736         calculate D2E/DX2 analytically  !
 ! A16   A(5,6,7)              116.9954         calculate D2E/DX2 analytically  !
 ! A17   A(6,7,8)              121.1612         calculate D2E/DX2 analytically  !
 ! A18   A(6,7,13)             118.3735         calculate D2E/DX2 analytically  !
 ! A19   A(8,7,13)             120.4049         calculate D2E/DX2 analytically  !
 ! A20   A(7,8,9)              119.9251         calculate D2E/DX2 analytically  !
 ! A21   A(7,8,28)             120.8259         calculate D2E/DX2 analytically  !
 ! A22   A(9,8,28)             119.2485         calculate D2E/DX2 analytically  !
 ! A23   A(8,9,10)             120.7258         calculate D2E/DX2 analytically  !
 ! A24   A(8,9,29)             118.9931         calculate D2E/DX2 analytically  !
 ! A25   A(10,9,29)            120.2791         calculate D2E/DX2 analytically  !
 ! A26   A(9,10,11)            120.272          calculate D2E/DX2 analytically  !
 ! A27   A(9,10,12)            118.7338         calculate D2E/DX2 analytically  !
 ! A28   A(11,10,12)           120.1676         calculate D2E/DX2 analytically  !
 ! A29   A(10,11,30)           114.1131         calculate D2E/DX2 analytically  !
 ! A30   A(10,11,31)           114.368          calculate D2E/DX2 analytically  !
 ! A31   A(30,11,31)           112.118          calculate D2E/DX2 analytically  !
 ! A32   A(10,12,13)           121.3518         calculate D2E/DX2 analytically  !
 ! A33   A(10,12,32)           119.2389         calculate D2E/DX2 analytically  !
 ! A34   A(13,12,32)           119.409          calculate D2E/DX2 analytically  !
 ! A35   A(7,13,12)            118.6967         calculate D2E/DX2 analytically  !
 ! A36   A(7,13,14)            120.6189         calculate D2E/DX2 analytically  !
 ! A37   A(12,13,14)           120.6679         calculate D2E/DX2 analytically  !
 ! A38   A(13,14,15)           112.7259         calculate D2E/DX2 analytically  !
 ! A39   A(13,14,16)           113.2286         calculate D2E/DX2 analytically  !
 ! A40   A(13,14,17)           113.2072         calculate D2E/DX2 analytically  !
 ! A41   A(15,14,16)           106.2888         calculate D2E/DX2 analytically  !
 ! A42   A(15,14,17)           105.3294         calculate D2E/DX2 analytically  !
 ! A43   A(16,14,17)           105.3695         calculate D2E/DX2 analytically  !
 ! A44   A(5,18,19)            120.6189         calculate D2E/DX2 analytically  !
 ! A45   A(5,18,23)            118.6967         calculate D2E/DX2 analytically  !
 ! A46   A(19,18,23)           120.6679         calculate D2E/DX2 analytically  !
 ! A47   A(18,19,20)           113.2073         calculate D2E/DX2 analytically  !
 ! A48   A(18,19,21)           112.7262         calculate D2E/DX2 analytically  !
 ! A49   A(18,19,22)           113.2284         calculate D2E/DX2 analytically  !
 ! A50   A(20,19,21)           105.3293         calculate D2E/DX2 analytically  !
 ! A51   A(20,19,22)           105.3695         calculate D2E/DX2 analytically  !
 ! A52   A(21,19,22)           106.2887         calculate D2E/DX2 analytically  !
 ! A53   A(2,23,18)            121.3517         calculate D2E/DX2 analytically  !
 ! A54   A(2,23,33)            119.239          calculate D2E/DX2 analytically  !
 ! A55   A(18,23,33)           119.409          calculate D2E/DX2 analytically  !
 ! D1    D(24,1,2,3)           160.3732         calculate D2E/DX2 analytically  !
 ! D2    D(24,1,2,23)          -30.1678         calculate D2E/DX2 analytically  !
 ! D3    D(25,1,2,3)            29.4086         calculate D2E/DX2 analytically  !
 ! D4    D(25,1,2,23)         -161.1324         calculate D2E/DX2 analytically  !
 ! D5    D(1,2,3,4)            174.0837         calculate D2E/DX2 analytically  !
 ! D6    D(1,2,3,26)            -6.4382         calculate D2E/DX2 analytically  !
 ! D7    D(23,2,3,4)             4.4752         calculate D2E/DX2 analytically  !
 ! D8    D(23,2,3,26)         -176.0468         calculate D2E/DX2 analytically  !
 ! D9    D(1,2,23,18)         -174.0949         calculate D2E/DX2 analytically  !
 ! D10   D(1,2,23,33)            6.1042         calculate D2E/DX2 analytically  !
 ! D11   D(3,2,23,18)           -4.4752         calculate D2E/DX2 analytically  !
 ! D12   D(3,2,23,33)          175.7239         calculate D2E/DX2 analytically  !
 ! D13   D(2,3,4,5)             -2.8595         calculate D2E/DX2 analytically  !
 ! D14   D(2,3,4,27)           177.3775         calculate D2E/DX2 analytically  !
 ! D15   D(26,3,4,5)           177.6559         calculate D2E/DX2 analytically  !
 ! D16   D(26,3,4,27)           -2.1071         calculate D2E/DX2 analytically  !
 ! D17   D(3,4,5,6)            178.2626         calculate D2E/DX2 analytically  !
 ! D18   D(3,4,5,18)             1.1358         calculate D2E/DX2 analytically  !
 ! D19   D(27,4,5,6)            -1.9782         calculate D2E/DX2 analytically  !
 ! D20   D(27,4,5,18)         -179.105          calculate D2E/DX2 analytically  !
 ! D21   D(4,5,6,7)             53.0565         calculate D2E/DX2 analytically  !
 ! D22   D(18,5,6,7)          -129.7599         calculate D2E/DX2 analytically  !
 ! D23   D(4,5,18,19)         -179.6255         calculate D2E/DX2 analytically  !
 ! D24   D(4,5,18,23)           -1.094          calculate D2E/DX2 analytically  !
 ! D25   D(6,5,18,19)            3.1687         calculate D2E/DX2 analytically  !
 ! D26   D(6,5,18,23)         -178.2997         calculate D2E/DX2 analytically  !
 ! D27   D(5,6,7,8)             53.0563         calculate D2E/DX2 analytically  !
 ! D28   D(5,6,7,13)          -129.7599         calculate D2E/DX2 analytically  !
 ! D29   D(6,7,8,9)            178.2629         calculate D2E/DX2 analytically  !
 ! D30   D(6,7,8,28)            -1.9785         calculate D2E/DX2 analytically  !
 ! D31   D(13,7,8,9)             1.136          calculate D2E/DX2 analytically  !
 ! D32   D(13,7,8,28)         -179.1055         calculate D2E/DX2 analytically  !
 ! D33   D(6,7,13,12)         -178.2999         calculate D2E/DX2 analytically  !
 ! D34   D(6,7,13,14)            3.1697         calculate D2E/DX2 analytically  !
 ! D35   D(8,7,13,12)           -1.094          calculate D2E/DX2 analytically  !
 ! D36   D(8,7,13,14)         -179.6244         calculate D2E/DX2 analytically  !
 ! D37   D(7,8,9,10)            -2.8596         calculate D2E/DX2 analytically  !
 ! D38   D(7,8,9,29)           177.6552         calculate D2E/DX2 analytically  !
 ! D39   D(28,8,9,10)          177.378          calculate D2E/DX2 analytically  !
 ! D40   D(28,8,9,29)           -2.1072         calculate D2E/DX2 analytically  !
 ! D41   D(8,9,10,11)          174.0835         calculate D2E/DX2 analytically  !
 ! D42   D(8,9,10,12)            4.4752         calculate D2E/DX2 analytically  !
 ! D43   D(29,9,10,11)          -6.438          calculate D2E/DX2 analytically  !
 ! D44   D(29,9,10,12)        -176.0463         calculate D2E/DX2 analytically  !
 ! D45   D(9,10,11,30)          29.4089         calculate D2E/DX2 analytically  !
 ! D46   D(9,10,11,31)         160.3733         calculate D2E/DX2 analytically  !
 ! D47   D(12,10,11,30)       -161.1324         calculate D2E/DX2 analytically  !
 ! D48   D(12,10,11,31)        -30.1679         calculate D2E/DX2 analytically  !
 ! D49   D(9,10,12,13)          -4.4751         calculate D2E/DX2 analytically  !
 ! D50   D(9,10,12,32)         175.7234         calculate D2E/DX2 analytically  !
 ! D51   D(11,10,12,13)       -174.0946         calculate D2E/DX2 analytically  !
 ! D52   D(11,10,12,32)          6.1039         calculate D2E/DX2 analytically  !
 ! D53   D(10,12,13,7)           2.806          calculate D2E/DX2 analytically  !
 ! D54   D(10,12,13,14)       -178.6643         calculate D2E/DX2 analytically  !
 ! D55   D(32,12,13,7)        -177.3928         calculate D2E/DX2 analytically  !
 ! D56   D(32,12,13,14)          1.1369         calculate D2E/DX2 analytically  !
 ! D57   D(7,13,14,15)          61.1867         calculate D2E/DX2 analytically  !
 ! D58   D(7,13,14,16)         -59.522          calculate D2E/DX2 analytically  !
 ! D59   D(7,13,14,17)        -179.3785         calculate D2E/DX2 analytically  !
 ! D60   D(12,13,14,15)       -117.3146         calculate D2E/DX2 analytically  !
 ! D61   D(12,13,14,16)        121.9767         calculate D2E/DX2 analytically  !
 ! D62   D(12,13,14,17)          2.1202         calculate D2E/DX2 analytically  !
 ! D63   D(5,18,19,20)        -179.3788         calculate D2E/DX2 analytically  !
 ! D64   D(5,18,19,21)          61.1864         calculate D2E/DX2 analytically  !
 ! D65   D(5,18,19,22)         -59.5223         calculate D2E/DX2 analytically  !
 ! D66   D(23,18,19,20)          2.1188         calculate D2E/DX2 analytically  !
 ! D67   D(23,18,19,21)       -117.3161         calculate D2E/DX2 analytically  !
 ! D68   D(23,18,19,22)        121.9752         calculate D2E/DX2 analytically  !
 ! D69   D(5,18,23,2)            2.8062         calculate D2E/DX2 analytically  !
 ! D70   D(5,18,23,33)        -177.3933         calculate D2E/DX2 analytically  !
 ! D71   D(19,18,23,2)        -178.6631         calculate D2E/DX2 analytically  !
 ! D72   D(19,18,23,33)          1.1375         calculate D2E/DX2 analytically  !
 --------------------------------------------------------------------------------
 Trust Radius=3.00D-01 FncErr=1.00D-07 GrdErr=1.00D-06 EigMax=2.50D+02 EigMin=1.00D-04
 Number of steps in this run=    171 maximum allowed number of steps=    198.
 GradGradGradGradGradGradGradGradGradGradGradGradGradGradGradGradGradGrad

                          Input orientation:                          
 ---------------------------------------------------------------------
 Center     Atomic      Atomic             Coordinates (Angstroms)
 Number     Number       Type             X           Y           Z
 ---------------------------------------------------------------------
      1          7           0        4.708860    1.101505    1.484073
      2          6           0        3.543207    0.468095    1.044349
      3          6           0        2.359773    0.587017    1.774257
      4          6           0        1.162777    0.062674    1.282776
      5          6           0        1.130313   -0.536650    0.020587
      6          8           0       -0.028702   -1.093849   -0.474607
      7          6           0       -1.152160   -0.295874   -0.483734
      8          6           0       -1.135699    0.969424   -1.077127
      9          6           0       -2.298678    1.741477   -1.103617
     10          6           0       -3.498361    1.241149   -0.595820
     11          7           0       -4.625828    2.062956   -0.513584
     12          6           0       -3.494717   -0.010602    0.026025
     13          6           0       -2.334332   -0.805664    0.064388
     14          6           0       -2.355546   -2.162496    0.711261
     15          9           0       -1.521361   -2.246622    1.785750
     16          9           0       -1.992003   -3.166020   -0.133893
     17          9           0       -3.587623   -2.514698    1.182394
     18          6           0        2.296491   -0.636440   -0.746176
     19          6           0        2.265417   -1.272604   -2.107872
     20          9           0        3.487477   -1.302116   -2.715922
     21          9           0        1.446236   -0.616215   -2.977107
     22          9           0        1.841619   -2.566225   -2.086621
     23          6           0        3.491766   -0.101775   -0.230870
     24          1           0        5.565327    0.722001    1.092060
     25          1           0        4.765908    1.212321    2.492085
     26          1           0        2.359690    1.083997    2.741152
     27          1           0        0.264063    0.130904    1.890212
     28          1           0       -0.224785    1.366111   -1.517804
     29          1           0       -2.259385    2.738795   -1.534535
     30          1           0       -4.660859    2.791330   -1.220597
     31          1           0       -5.505421    1.561170   -0.437668
     32          1           0       -4.410384   -0.378219    0.487129
     33          1           0        4.396921   -0.134854   -0.835689
 ---------------------------------------------------------------------
                    Distance matrix (angstroms):
                    1          2          3          4          5
     1  N    0.000000
     2  C    1.397609   0.000000
     3  C    2.422213   1.395502   0.000000
     4  C    3.700593   2.426450   1.396169   0.000000
     5  C    4.198969   2.807073   2.418586   1.397628   0.000000
     6  O    5.576782   4.183949   3.686124   2.417760   1.378043
     7  C    6.338492   4.996514   4.267515   2.933947   2.349892
     8  C    6.382480   5.161798   4.527135   3.416773   2.933947
     9  C    7.497419   6.353179   5.596079   4.527133   4.267514
    10  C    8.467817   7.271275   6.353179   5.161796   4.996513
    11  N    9.594343   8.467814   7.497415   6.382475   6.338489
    12  C    8.406031   7.127307   6.139097   4.824629   4.654853
    13  C    7.433663   6.093296   5.186312   3.803716   3.475349
    14  C    7.820279   6.467321   5.560936   4.201976   3.907891
    15  F    7.079309   5.793894   4.805501   3.576371   3.615409
    16  F    8.107474   6.725593   6.055103   4.731179   4.084888
    17  F    9.055361   7.730773   6.733681   5.405481   5.246083
    18  C    3.716717   2.445461   2.802397   2.427079   1.399233
    19  C    4.950644   3.820901   4.305580   3.807267   2.521989
    20  F    4.990904   4.156488   5.000225   4.822497   3.691970
    21  F    5.787694   4.663167   4.985757   4.322944   3.015345
    22  F    5.867126   4.680329   5.011766   4.327213   3.010890
    23  C    2.422856   1.397706   2.403410   2.782510   2.414293
    24  H    1.015497   2.038557   3.280121   4.455731   4.733034
    25  H    1.015688   2.035880   2.587618   3.970726   4.731253
    26  H    2.664423   2.158515   1.087141   2.145358   3.396960
    27  H    4.567628   3.403228   2.147902   1.086885   2.165990
    28  H    5.781188   4.644225   4.257299   3.386374   2.797041
    29  H    7.768471   6.743648   6.075760   5.177843   4.963566
    30  H    9.897594   8.822363   7.944646   6.901245   6.793648
    31  H   10.403648   9.234113   8.228174   7.047714   6.974511
    32  H    9.292151   8.017876   6.958692   5.646907   5.562560
    33  H    2.647108   2.151028   3.388642   3.871253   3.400791
                    6          7          8          9         10
     6  O    0.000000
     7  C    1.378043   0.000000
     8  C    2.417761   1.397629   0.000000
     9  C    3.686125   2.418586   1.396169   0.000000
    10  C    4.183950   2.807074   2.426450   1.395502   0.000000
    11  N    5.576782   4.198969   3.700594   2.422213   1.397609
    12  C    3.665694   2.414293   2.782510   2.403410   1.397707
    13  C    2.385266   1.399234   2.427080   2.802398   2.445462
    14  C    2.821788   2.521989   3.807267   4.305581   3.820902
    15  F    2.943830   3.015342   4.322934   4.985740   4.663149
    16  F    2.874810   3.010891   4.327222   5.011781   4.680345
    17  F    4.174971   3.691971   4.822497   5.000226   4.156490
    18  C    2.385266   3.475349   3.803716   5.186312   6.093296
    19  C    2.821788   3.907896   4.201990   5.560951   6.467333
    20  F    4.174971   5.246086   5.405488   6.733690   7.730780
    21  F    2.943821   3.615409   3.576390   4.805524   5.793908
    22  F    2.874819   4.084905   4.731207   6.055135   6.725621
    23  C    3.665694   4.654853   4.824630   6.139097   7.127307
    24  H    6.086454   6.974513   7.047719   8.228178   9.234116
    25  H    6.091631   6.793649   6.901249   7.944650   8.822365
    26  H    4.559445   4.963569   5.177850   6.075765   6.743652
    27  H    2.679198   2.797043   3.386378   4.257301   4.644227
    28  H    2.679200   2.165992   1.086886   2.147902   3.403229
    29  H    4.559446   3.396961   2.145358   1.087141   2.158516
    30  H    6.091633   4.731254   3.970727   2.587619   2.035880
    31  H    6.086455   4.733034   4.455731   3.280121   2.038557
    32  H    4.542708   3.400791   3.871253   3.388641   2.151027
    33  H    4.542708   5.562562   5.646912   6.958697   8.017880
                   11         12         13         14         15
    11  N    0.000000
    12  C    2.422856   0.000000
    13  C    3.716717   1.407157   0.000000
    14  C    4.950644   2.529409   1.503292   0.000000
    15  F    5.787670   3.462739   2.387545   1.362890   0.000000
    16  F    5.867145   3.498627   2.393279   1.361436   2.179868
    17  F    4.990905   2.759769   2.396137   1.365294   2.169180
    18  C    7.433662   5.875888   4.704272   5.108269   4.855855
    19  C    7.820292   6.270989   5.108271   5.485682   5.518033
    20  F    9.055370   7.611657   6.470707   6.828378   6.800412
    21  F    7.079327   5.813655   4.855850   5.518023   5.843772
    22  F    8.107505   6.282593   5.016471   5.060369   5.138778
    23  C    8.406029   6.991799   5.875888   6.270984   5.813654
    24  H   10.403649   9.151915   8.111381   8.438339   7.714602
    25  H    9.897592   8.707176   7.770417   8.079346   7.210613
    26  H    7.768470   6.545544   5.724485   6.074012   5.202727
    27  H    5.781185   4.198053   3.310960   3.675862   2.975111
    28  H    4.567629   3.869264   3.416157   4.686144   5.064230
    29  H    2.664424   3.394197   3.889134   5.392170   6.035177
    30  H    1.015688   3.280971   4.472391   5.795424   6.653986
    31  H    1.015498   2.593917   3.988705   5.010732   5.942693
    32  H    2.647107   1.089130   2.161344   2.730612   3.677472
    33  H    9.292154   7.939518   6.824214   7.218047   6.808640
                   16         17         18         19         20
    16  F    0.000000
    17  F    2.168602   0.000000
    18  C    5.016458   6.470706   0.000000
    19  C    5.060360   6.828377   1.503292   0.000000
    20  F    6.337643   8.168493   2.396138   1.365294   0.000000
    21  F    5.138761   6.800399   2.387550   1.362891   2.169180
    22  F    4.343911   6.337649   2.393277   1.361437   2.168603
    23  C    6.282573   7.611654   1.407156   2.529409   2.759768
    24  H    8.586787   9.708805   3.988704   5.010731   4.786986
    25  H    8.469651   9.240533   4.472389   5.795422   5.922847
    26  H    6.727983   7.123964   3.889132   5.392169   6.061774
    27  H    4.478453   4.726067   3.416155   4.686142   5.801760
    28  H    5.057518   5.801762   3.310959   3.675882   4.726078
    29  H    6.074548   6.061775   5.724484   6.074032   7.123978
    30  H    6.617683   5.922848   7.770418   8.079363   9.240545
    31  H    5.897686   4.786987   8.111380   8.438351   9.708813
    32  H    3.742468   2.392671   6.824213   7.218051   8.572592
    33  H    7.106254   8.572589   2.161345   2.730611   2.392670
                   21         22         23         24         25
    21  F    0.000000
    22  F    2.179869   0.000000
    23  C    3.462753   3.498615   0.000000
    24  H    5.942714   5.897664   2.593917   0.000000
    25  H    6.654008   6.617660   3.280971   1.685098   0.000000
    26  H    6.035197   6.074530   3.394196   3.623073   2.422475
    27  H    5.064239   5.057508   3.869263   5.393500   4.668867
    28  H    2.975146   4.478487   4.198052   6.383704   6.403895
    29  H    5.202762   6.728021   6.545542   8.496622   8.240056
    30  H    7.210638   8.469688   8.707176  10.686692  10.253838
    31  H    7.714615   8.586817   9.151913  11.207396  10.686689
    32  H    6.808639   7.106272   7.939516  10.054414   9.526489
    33  H    3.677489   3.742455   1.089131   2.411553   3.609032
                   26         27         28         29         30
    26  H    0.000000
    27  H    2.454411   0.000000
    28  H    4.989770   3.657771   0.000000
    29  H    6.508126   4.989768   2.454411   0.000000
    30  H    8.240057   6.403894   4.668868   2.422477   0.000000
    31  H    8.496620   6.383700   5.393501   3.623074   1.685098
    32  H    7.283721   4.906965   4.957992   4.292982   3.609031
    33  H    4.292983   4.957992   4.906969   7.283725   9.526494
                   31         32         33
    31  H    0.000000
    32  H    2.411552   0.000000
    33  H   10.054417   8.909416   0.000000
 Stoichiometry    C14H10F6N2O
 Framework group  C1[X(C14H10F6N2O)]
 Deg. of freedom    93
 Full point group                 C1      NOp   1
 Largest Abelian subgroup         C1      NOp   1
 Largest concise Abelian subgroup C1      NOp   1
                         Standard orientation:                         
 ---------------------------------------------------------------------
 Center     Atomic      Atomic             Coordinates (Angstroms)
 Number     Number       Type             X           Y           Z
 ---------------------------------------------------------------------
      1          7           0       -4.563205   -2.254853    1.479844
      2          6           0       -3.436451   -1.481619    1.186852
      3          6           0       -2.195707   -1.810657    1.734314
      4          6           0       -1.042608   -1.121811    1.353337
      5          6           0       -1.115085   -0.131041    0.370237
      6          8           0       -0.000000    0.589037   -0.000004
      7          6           0        1.115088   -0.131032   -0.370250
      8          6           0        1.042617   -1.121800   -1.353353
      9          6           0        2.195719   -1.810641   -1.734329
     10          6           0        3.436461   -1.481599   -1.186866
     11          7           0        4.563218   -2.254831   -1.479853
     12          6           0        3.491264   -0.513678   -0.180034
     13          6           0        2.341858    0.192871    0.219647
     14          6           0        2.424019    1.251839    1.283472
     15          9           0        1.684715    0.947746    2.387295
     16          9           0        1.994255    2.472426    0.860415
     17          9           0        3.693267    1.454669    1.743797
     18          6           0       -2.341857    0.192858   -0.219657
     19          6           0       -2.424028    1.251847   -1.283460
     20          9           0       -3.693276    1.454667   -1.743790
     21          9           0       -1.684711    0.947796   -2.387288
     22          9           0       -1.994286    2.472432   -0.860370
     23          6           0       -3.491259   -0.513698    0.180022
     24          1           0       -5.448263   -1.786580    1.310646
     25          1           0       -4.534718   -2.700758    2.391973
     26          1           0       -2.115492   -2.604652    2.472563
     27          1           0       -0.095753   -1.368842    1.826371
     28          1           0        0.095761   -1.368840   -1.826383
     29          1           0        2.115506   -2.604642   -2.472573
     30          1           0        4.534734   -2.700736   -2.391983
     31          1           0        5.448274   -1.786555   -1.310653
     32          1           0        4.444465   -0.300771    0.301922
     33          1           0       -4.444464   -0.300787   -0.301927
 ---------------------------------------------------------------------
 Rotational constants (GHZ):           0.3645837           0.1588602           0.1544840
 Standard basis: 6-31G(d,p) (6D, 7F)
 There are   395 symmetry adapted cartesian basis functions of A   symmetry.
 There are   395 symmetry adapted basis functions of A   symmetry.
   395 basis functions,   714 primitive gaussians,   395 cartesian basis functions
    85 alpha electrons       85 beta electrons
       nuclear repulsion energy      2049.1317941374 Hartrees.
 NAtoms=   33 NActive=   33 NUniq=   33 SFac= 1.00D+00 NAtFMM=   60 NAOKFM=F Big=F
 Integral buffers will be    131072 words long.
 Raffenetti 2 integral format.
 Two-electron integral symmetry is turned on.
 Force inversion solution in PCM.
 ------------------------------------------------------------------------------
 Polarizable Continuum Model (PCM)
 =================================
 Model                : PCM.
 Atomic radii         : UFF (Universal Force Field).
 Polarization charges : Total charges.
 Charge compensation  : None.
 Solution method      : Matrix inversion.
 Cavity type          : Scaled VdW (van der Waals Surface) (Alpha=1.100).
 Cavity algorithm     : GePol (No added spheres)
                        Default sphere list used, NSphG=   33.
                        Lebedev-Laikov grids with approx.  5.0 points / Ang**2.
                        Smoothing algorithm: York/Karplus (Gamma=1.0000).
                        Polarization charges: spherical gaussians, with
                                              point-specific exponents (IZeta= 3).
                        Self-potential: point-specific (ISelfS= 7).
                        Self-field    : sphere-specific E.n sum rule (ISelfD= 2).
 1st derivatives      : Analytical E(r).r(x)/FMM algorithm (CHGder, D1EAlg=3).
                        Cavity 1st derivative terms included.
 2nd derivatives      : Analytical E(r).r(xy)/FMM algorithm (CHGder, D2EAlg=3).
                        Cavity 2nd derivative terms included.
 Solvent              : Water, Eps=  78.355300 Eps(inf)=   1.777849
 ------------------------------------------------------------------------------
 One-electron integrals computed using PRISM.
 NBasis=   395 RedAO= T EigKep=  3.49D-04  NBF=   395
 NBsUse=   395 1.00D-06 EigRej= -1.00D+00 NBFU=   395
 ExpMin= 1.61D-01 ExpMax= 7.00D+03 ExpMxC= 1.05D+03 IAcc=3 IRadAn=         5 AccDes= 0.00D+00
 Harris functional with IExCor=  402 and IRadAn=       5 diagonalized for initial guess.
 HarFok:  IExCor=  402 AccDes= 0.00D+00 IRadAn=         5 IDoV= 1 UseB2=F ITyADJ=14
 ICtDFT=  3500011 ScaDFX=  1.000000  1.000000  1.000000  1.000000
 FoFCou: FMM=F IPFlag=           0 FMFlag=      100000 FMFlg1=           0
         NFxFlg=           0 DoJE=T BraDBF=F KetDBF=T FulRan=T
         wScrn=  0.000000 ICntrl=       500 IOpCl=  0 I1Cent=   200000004 NGrid=           0
         NMat0=    1 NMatS0=      1 NMatT0=    0 NMatD0=    1 NMtDS0=    0 NMtDT0=    0
 Petite list used in FoFCou.
 Requested convergence on RMS density matrix=1.00D-08 within  32 cycles.
 Requested convergence on MAX density matrix=1.00D-06.
 Requested convergence on             energy=1.00D-06.
 No special actions if energy rises.
 Inv3:  Mode=1 IEnd=    22375083.
 Iteration    1 A*A^-1 deviation from unit magnitude is 3.89D-15 for   2545.
 Iteration    1 A*A^-1 deviation from orthogonality  is 2.42D-15 for   1814    405.
 Iteration    1 A^-1*A deviation from unit magnitude is 3.77D-15 for   2545.
 Iteration    1 A^-1*A deviation from orthogonality  is 1.33D-15 for   2539      6.
 Error on total polarization charges =  0.00597
 SCF Done:  E(RB3LYP) =  -1323.32045852     A.U. after   13 cycles
            NFock= 13  Conv=0.44D-08     -V/T= 2.0082
 QCSCF skips out because SCF is already converged.
 DoSCS=F DFT=T ScalE2(SS,OS)=  1.000000  1.000000
 Range of M.O.s used for correlation:     1   395
 NBasis=   395 NAE=    85 NBE=    85 NFC=     0 NFV=     0
 NROrb=    395 NOA=    85 NOB=    85 NVA=   310 NVB=   310
 Symmetrizing basis deriv contribution to polar:
 IMax=3 JMax=2 DiffMx= 0.00D+00
 G2DrvN: will do    34 centers at a time, making    1 passes.
 Calling FoFCou, ICntrl=  3107 FMM=F I1Cent=   0 AccDes= 0.00D+00.
 NEqPCM:  Using equilibrium solvation (IEInf=0, Eps=  78.3553, EpsInf=   1.7778)
 G2PCM: DoFxE=T DoFxN=T DoGrad=T DoDP/DQ/DG/TGxP=FFFF NFrqRd=   0 IEInf=0 SqF1=F DoCFld=F IF1Alg=4.
 End of G2Drv F.D. properties file   721 does not exist.
 End of G2Drv F.D. properties file   722 does not exist.
 End of G2Drv F.D. properties file   788 does not exist.
          IDoAtm=111111111111111111111111111111111
 NEqPCM:  Using equilibrium solvation (IEInf=0, Eps=  78.3553, EpsInf=   1.7778)
          Differentiating once with respect to nuclear coordinates.
 CalDSu exits because no D1Ps are significant.
          There are   102 degrees of freedom in the 1st order CPHF.  IDoFFX=6 NUNeed=     0.
     96 vectors produced by pass  0 Test12= 2.63D-14 1.00D-09 XBig12= 1.43D-01 6.72D-02.
 AX will form    96 AO Fock derivatives at one time.
     96 vectors produced by pass  1 Test12= 2.63D-14 1.00D-09 XBig12= 3.59D-02 3.17D-02.
     96 vectors produced by pass  2 Test12= 2.63D-14 1.00D-09 XBig12= 4.52D-04 1.83D-03.
     96 vectors produced by pass  3 Test12= 2.63D-14 1.00D-09 XBig12= 1.73D-06 1.13D-04.
     96 vectors produced by pass  4 Test12= 2.63D-14 1.00D-09 XBig12= 3.04D-09 3.91D-06.
     86 vectors produced by pass  5 Test12= 2.63D-14 1.00D-09 XBig12= 3.84D-12 1.34D-07.
     27 vectors produced by pass  6 Test12= 2.63D-14 1.00D-09 XBig12= 4.24D-15 4.52D-09.
 InvSVY:  IOpt=1 It=  1 EMax= 3.33D-16
 Solved reduced A of dimension   593 with   102 vectors.
 End of Minotr F.D. properties file   721 does not exist.
 End of Minotr F.D. properties file   722 does not exist.
 End of Minotr F.D. properties file   788 does not exist.

 **********************************************************************

            Population analysis using the SCF density.

 **********************************************************************

 Orbital symmetries:
       Occupied  (A) (A) (A) (A) (A) (A) (A) (A) (A) (A) (A) (A)
                 (A) (A) (A) (A) (A) (A) (A) (A) (A) (A) (A) (A)
                 (A) (A) (A) (A) (A) (A) (A) (A) (A) (A) (A) (A)
                 (A) (A) (A) (A) (A) (A) (A) (A) (A) (A) (A) (A)
                 (A) (A) (A) (A) (A) (A) (A) (A) (A) (A) (A) (A)
                 (A) (A) (A) (A) (A) (A) (A) (A) (A) (A) (A) (A)
                 (A) (A) (A) (A) (A) (A) (A) (A) (A) (A) (A) (A)
                 (A)
       Virtual   (A) (A) (A) (A) (A) (A) (A) (A) (A) (A) (A) (A)
                 (A) (A) (A) (A) (A) (A) (A) (A) (A) (A) (A) (A)
                 (A) (A) (A) (A) (A) (A) (A) (A) (A) (A) (A) (A)
                 (A) (A) (A) (A) (A) (A) (A) (A) (A) (A) (A) (A)
                 (A) (A) (A) (A) (A) (A) (A) (A) (A) (A) (A) (A)
                 (A) (A) (A) (A) (A) (A) (A) (A) (A) (A) (A) (A)
                 (A) (A) (A) (A) (A) (A) (A) (A) (A) (A) (A) (A)
                 (A) (A) (A) (A) (A) (A) (A) (A) (A) (A) (A) (A)
                 (A) (A) (A) (A) (A) (A) (A) (A) (A) (A) (A) (A)
                 (A) (A) (A) (A) (A) (A) (A) (A) (A) (A) (A) (A)
                 (A) (A) (A) (A) (A) (A) (A) (A) (A) (A) (A) (A)
                 (A) (A) (A) (A) (A) (A) (A) (A) (A) (A) (A) (A)
                 (A) (A) (A) (A) (A) (A) (A) (A) (A) (A) (A) (A)
                 (A) (A) (A) (A) (A) (A) (A) (A) (A) (A) (A) (A)
                 (A) (A) (A) (A) (A) (A) (A) (A) (A) (A) (A) (A)
                 (A) (A) (A) (A) (A) (A) (A) (A) (A) (A) (A) (A)
                 (A) (A) (A) (A) (A) (A) (A) (A) (A) (A) (A) (A)
                 (A) (A) (A) (A) (A) (A) (A) (A) (A) (A) (A) (A)
                 (A) (A) (A) (A) (A) (A) (A) (A) (A) (A) (A) (A)
                 (A) (A) (A) (A) (A) (A) (A) (A) (A) (A) (A) (A)
                 (A) (A) (A) (A) (A) (A) (A) (A) (A) (A) (A) (A)
                 (A) (A) (A) (A) (A) (A) (A) (A) (A) (A) (A) (A)
                 (A) (A) (A) (A) (A) (A) (A) (A) (A) (A) (A) (A)
                 (A) (A) (A) (A) (A) (A) (A) (A) (A) (A) (A) (A)
                 (A) (A) (A) (A) (A) (A) (A) (A) (A) (A) (A) (A)
                 (A) (A) (A) (A) (A) (A) (A) (A) (A) (A)
 The electronic state is 1-A.
 Alpha  occ. eigenvalues --  -24.72703 -24.72703 -24.72376 -24.72376 -24.72302
 Alpha  occ. eigenvalues --  -24.72302 -19.19524 -14.34233 -14.34233 -10.43932
 Alpha  occ. eigenvalues --  -10.43932 -10.25974 -10.25974 -10.23779 -10.23779
 Alpha  occ. eigenvalues --  -10.22100 -10.22100 -10.20425 -10.20425 -10.20356
 Alpha  occ. eigenvalues --  -10.20355 -10.19953 -10.19953  -1.29829  -1.29827
 Alpha  occ. eigenvalues --   -1.21120  -1.21114  -1.21035  -1.21034  -1.09110
 Alpha  occ. eigenvalues --   -0.92353  -0.92264  -0.86698  -0.84823  -0.78486
 Alpha  occ. eigenvalues --   -0.78451  -0.75515  -0.72737  -0.70328  -0.69390
 Alpha  occ. eigenvalues --   -0.64451  -0.63518  -0.63175  -0.60492  -0.57896
 Alpha  occ. eigenvalues --   -0.57877  -0.57810  -0.57640  -0.57287  -0.55863
 Alpha  occ. eigenvalues --   -0.53876  -0.52078  -0.52071  -0.49407  -0.49100
 Alpha  occ. eigenvalues --   -0.47014  -0.45976  -0.45942  -0.45877  -0.45622
 Alpha  occ. eigenvalues --   -0.45461  -0.44621  -0.44354  -0.43360  -0.42023
 Alpha  occ. eigenvalues --   -0.42015  -0.41552  -0.41212  -0.40756  -0.40694
 Alpha  occ. eigenvalues --   -0.39939  -0.39805  -0.39767  -0.39506  -0.39136
 Alpha  occ. eigenvalues --   -0.37923  -0.37529  -0.35842  -0.34412  -0.31580
 Alpha  occ. eigenvalues --   -0.29481  -0.27124  -0.26652  -0.21645  -0.20246
 Alpha virt. eigenvalues --   -0.03532  -0.02290  -0.00303   0.00563   0.08267
 Alpha virt. eigenvalues --    0.08775   0.10185   0.10824   0.12230   0.12425
 Alpha virt. eigenvalues --    0.12741   0.12994   0.13184   0.13590   0.16430
 Alpha virt. eigenvalues --    0.16623   0.17175   0.18828   0.19194   0.21065
 Alpha virt. eigenvalues --    0.21434   0.21688   0.21780   0.23746   0.26192
 Alpha virt. eigenvalues --    0.26403   0.27352   0.29138   0.31468   0.32618
 Alpha virt. eigenvalues --    0.33620   0.33664   0.36212   0.36755   0.38262
 Alpha virt. eigenvalues --    0.39247   0.45661   0.46557   0.46652   0.48264
 Alpha virt. eigenvalues --    0.48698   0.48699   0.49478   0.50483   0.52379
 Alpha virt. eigenvalues --    0.52914   0.53685   0.54712   0.55322   0.55861
 Alpha virt. eigenvalues --    0.56615   0.56622   0.57849   0.58116   0.58716
 Alpha virt. eigenvalues --    0.59389   0.60338   0.60662   0.61070   0.62753
 Alpha virt. eigenvalues --    0.62793   0.63636   0.63810   0.66411   0.67031
 Alpha virt. eigenvalues --    0.68552   0.69108   0.69189   0.70333   0.70758
 Alpha virt. eigenvalues --    0.73544   0.77050   0.77682   0.78833   0.79609
 Alpha virt. eigenvalues --    0.79831   0.80788   0.80886   0.83310   0.83799
 Alpha virt. eigenvalues --    0.84598   0.85587   0.86074   0.86871   0.88447
 Alpha virt. eigenvalues --    0.88905   0.89548   0.89959   0.91996   0.93481
 Alpha virt. eigenvalues --    0.96144   0.96619   0.97194   0.97628   1.00232
 Alpha virt. eigenvalues --    1.01582   1.02217   1.02888   1.05855   1.06361
 Alpha virt. eigenvalues --    1.07659   1.07939   1.09642   1.10109   1.10905
 Alpha virt. eigenvalues --    1.11774   1.13661   1.14413   1.14417   1.15048
 Alpha virt. eigenvalues --    1.18814   1.19236   1.19318   1.20703   1.22045
 Alpha virt. eigenvalues --    1.23160   1.24243   1.25429   1.26931   1.29930
 Alpha virt. eigenvalues --    1.30654   1.32107   1.32156   1.33116   1.33606
 Alpha virt. eigenvalues --    1.33918   1.36809   1.37040   1.37491   1.37804
 Alpha virt. eigenvalues --    1.38071   1.38149   1.38438   1.38667   1.40231
 Alpha virt. eigenvalues --    1.40516   1.41264   1.42664   1.42818   1.44229
 Alpha virt. eigenvalues --    1.45371   1.49215   1.51265   1.51335   1.56172
 Alpha virt. eigenvalues --    1.60169   1.60542   1.61413   1.64465   1.64589
 Alpha virt. eigenvalues --    1.67330   1.68021   1.69805   1.70383   1.72885
 Alpha virt. eigenvalues --    1.72961   1.73967   1.74511   1.75510   1.77724
 Alpha virt. eigenvalues --    1.78364   1.78906   1.80945   1.81799   1.82973
 Alpha virt. eigenvalues --    1.83017   1.85053   1.85170   1.85469   1.85982
 Alpha virt. eigenvalues --    1.86345   1.88317   1.88446   1.89051   1.89956
 Alpha virt. eigenvalues --    1.90447   1.90876   1.93163   1.94674   1.95658
 Alpha virt. eigenvalues --    1.95735   1.96494   1.96780   1.97855   1.98284
 Alpha virt. eigenvalues --    1.99053   1.99809   1.99977   2.01243   2.02304
 Alpha virt. eigenvalues --    2.03454   2.04697   2.05192   2.05909   2.06589
 Alpha virt. eigenvalues --    2.07234   2.07433   2.09335   2.09497   2.12212
 Alpha virt. eigenvalues --    2.14528   2.14842   2.15900   2.16476   2.17589
 Alpha virt. eigenvalues --    2.18693   2.22560   2.22679   2.24595   2.25012
 Alpha virt. eigenvalues --    2.27113   2.27471   2.27804   2.30623   2.31273
 Alpha virt. eigenvalues --    2.31412   2.33842   2.34128   2.35875   2.36573
 Alpha virt. eigenvalues --    2.36832   2.40594   2.40726   2.41576   2.42462
 Alpha virt. eigenvalues --    2.44965   2.45908   2.46067   2.47542   2.48467
 Alpha virt. eigenvalues --    2.49626   2.50640   2.51185   2.53015   2.53071
 Alpha virt. eigenvalues --    2.53545   2.55035   2.55335   2.58139   2.60094
 Alpha virt. eigenvalues --    2.60723   2.63760   2.63997   2.65988   2.69498
 Alpha virt. eigenvalues --    2.70216   2.70906   2.72376   2.73739   2.74132
 Alpha virt. eigenvalues --    2.75518   2.76528   2.79213   2.82351   2.83310
 Alpha virt. eigenvalues --    2.85018   2.85685   2.86345   2.91714   2.94978
 Alpha virt. eigenvalues --    2.96632   2.97763   3.00753   3.01024   3.02967
 Alpha virt. eigenvalues --    3.03645   3.05198   3.06302   3.07007   3.07740
 Alpha virt. eigenvalues --    3.11957   3.14386   3.17338   3.18138   3.21659
 Alpha virt. eigenvalues --    3.27168   3.27583   3.28162   3.31154   3.32208
 Alpha virt. eigenvalues --    3.33715   3.43998   3.44057   3.51949   3.52441
 Alpha virt. eigenvalues --    3.75218   3.76900   4.03603   4.03742   4.09994
 Alpha virt. eigenvalues --    4.10137   4.12853   4.13848   4.14699   4.18802
 Alpha virt. eigenvalues --    4.30011   4.30672   4.31449   4.32451   4.39779
 Alpha virt. eigenvalues --    4.44576   4.51697   4.52520   4.57363   4.74507
 Alpha virt. eigenvalues --    4.83802   4.91925   4.99636   5.76950   5.97818
          Condensed to atoms (all electrons):
               1          2          3          4          5          6
     1  N    6.819928   0.301696  -0.071433   0.004519   0.000717   0.000000
     2  C    0.301696   4.606288   0.520427  -0.011270  -0.037878  -0.000068
     3  C   -0.071433   0.520427   4.955016   0.481396  -0.013756   0.004759
     4  C    0.004519  -0.011270   0.481396   5.003356   0.455460  -0.063533
     5  C    0.000717  -0.037878  -0.013756   0.455460   4.742813   0.237570
     6  O    0.000000  -0.000068   0.004759  -0.063533   0.237570   8.372876
     7  C    0.000000   0.000105  -0.000475   0.002742  -0.027276   0.237570
     8  C    0.000000   0.000021  -0.000317   0.002371   0.002742  -0.063533
     9  C   -0.000000   0.000000   0.000001  -0.000317  -0.000475   0.004759
    10  C   -0.000000  -0.000000   0.000000   0.000021   0.000105  -0.000068
    11  N    0.000000  -0.000000  -0.000000   0.000000   0.000000   0.000000
    12  C   -0.000000  -0.000000   0.000002  -0.000119  -0.000135   0.004416
    13  C    0.000000   0.000002   0.000008   0.000911  -0.004173  -0.064579
    14  C   -0.000000   0.000000   0.000000  -0.000057   0.000260   0.000644
    15  F   -0.000000   0.000000   0.000024  -0.000095   0.000200  -0.000695
    16  F    0.000000   0.000000  -0.000000  -0.000007   0.000279  -0.000332
    17  F   -0.000000   0.000000   0.000000  -0.000000   0.000003   0.000002
    18  C    0.004372  -0.012937  -0.040877  -0.050268   0.445560  -0.064579
    19  C   -0.000075   0.005253  -0.000597   0.007454  -0.028775   0.000644
    20  F   -0.000001   0.000780  -0.000002  -0.000026   0.002590   0.000002
    21  F    0.000000  -0.000007  -0.000012   0.000207   0.000196  -0.000695
    22  F    0.000000  -0.000030  -0.000005   0.000063  -0.001577  -0.000332
    23  C   -0.064822   0.475281  -0.042082  -0.056602  -0.029511   0.004416
    24  H    0.344166  -0.023919   0.005448  -0.000186  -0.000004  -0.000000
    25  H    0.345096  -0.024898  -0.009263  -0.000007  -0.000006  -0.000000
    26  H   -0.006836  -0.039898   0.365387  -0.029728   0.003672  -0.000052
    27  H   -0.000106   0.003775  -0.032176   0.362925  -0.040143  -0.006803
    28  H    0.000000  -0.000008  -0.000147   0.001087   0.005497  -0.006803
    29  H    0.000000  -0.000000  -0.000000   0.000003  -0.000006  -0.000052
    30  H    0.000000  -0.000000   0.000000   0.000000   0.000000  -0.000000
    31  H   -0.000000  -0.000000   0.000000  -0.000000   0.000000  -0.000000
    32  H   -0.000000  -0.000000  -0.000000   0.000001  -0.000003  -0.000050
    33  H   -0.007180  -0.033634   0.005710   0.000162   0.003927  -0.000050
               7          8          9         10         11         12
     1  N    0.000000   0.000000  -0.000000  -0.000000   0.000000  -0.000000
     2  C    0.000105   0.000021   0.000000  -0.000000  -0.000000  -0.000000
     3  C   -0.000475  -0.000317   0.000001   0.000000  -0.000000   0.000002
     4  C    0.002742   0.002371  -0.000317   0.000021   0.000000  -0.000119
     5  C   -0.027276   0.002742  -0.000475   0.000105   0.000000  -0.000135
     6  O    0.237570  -0.063533   0.004759  -0.000068   0.000000   0.004416
     7  C    4.742812   0.455460  -0.013755  -0.037878   0.000717  -0.029511
     8  C    0.455460   5.003357   0.481395  -0.011270   0.004519  -0.056602
     9  C   -0.013755   0.481395   4.955016   0.520427  -0.071433  -0.042082
    10  C   -0.037878  -0.011270   0.520427   4.606290   0.301696   0.475281
    11  N    0.000717   0.004519  -0.071433   0.301696   6.819928  -0.064822
    12  C   -0.029511  -0.056602  -0.042082   0.475281  -0.064822   5.073758
    13  C    0.445560  -0.050268  -0.040877  -0.012937   0.004372   0.470254
    14  C   -0.028775   0.007454  -0.000597   0.005253  -0.000075  -0.039146
    15  F    0.000197   0.000207  -0.000012  -0.000007   0.000000   0.000669
    16  F   -0.001577   0.000063  -0.000005  -0.000030   0.000000   0.001401
    17  F    0.002590  -0.000026  -0.000002   0.000780  -0.000001   0.002692
    18  C   -0.004173   0.000912   0.000008   0.000002   0.000000   0.000009
    19  C    0.000260  -0.000057   0.000000   0.000000  -0.000000  -0.000001
    20  F    0.000003  -0.000000   0.000000   0.000000  -0.000000  -0.000000
    21  F    0.000200  -0.000095   0.000024   0.000000  -0.000000  -0.000000
    22  F    0.000279  -0.000007  -0.000000   0.000000   0.000000  -0.000000
    23  C   -0.000135  -0.000119   0.000002  -0.000000  -0.000000   0.000000
    24  H    0.000000  -0.000000   0.000000  -0.000000  -0.000000   0.000000
    25  H    0.000000   0.000000   0.000000  -0.000000   0.000000   0.000000
    26  H   -0.000006   0.000003  -0.000000  -0.000000   0.000000  -0.000000
    27  H    0.005497   0.001087  -0.000147  -0.000008   0.000000  -0.000047
    28  H   -0.040142   0.362926  -0.032176   0.003775  -0.000106   0.000535
    29  H    0.003672  -0.029728   0.365387  -0.039898  -0.006836   0.005126
    30  H   -0.000006  -0.000007  -0.009263  -0.024897   0.345096   0.005324
    31  H   -0.000004  -0.000186   0.005448  -0.023919   0.344166  -0.009247
    32  H    0.003927   0.000162   0.005710  -0.033634  -0.007180   0.363295
    33  H   -0.000003   0.000001  -0.000000  -0.000000  -0.000000   0.000000
              13         14         15         16         17         18
     1  N    0.000000  -0.000000  -0.000000   0.000000  -0.000000   0.004372
     2  C    0.000002   0.000000   0.000000   0.000000   0.000000  -0.012937
     3  C    0.000008   0.000000   0.000024  -0.000000   0.000000  -0.040877
     4  C    0.000911  -0.000057  -0.000095  -0.000007  -0.000000  -0.050268
     5  C   -0.004173   0.000260   0.000200   0.000279   0.000003   0.445560
     6  O   -0.064579   0.000644  -0.000695  -0.000332   0.000002  -0.064579
     7  C    0.445560  -0.028775   0.000197  -0.001577   0.002590  -0.004173
     8  C   -0.050268   0.007454   0.000207   0.000063  -0.000026   0.000912
     9  C   -0.040877  -0.000597  -0.000012  -0.000005  -0.000002   0.000008
    10  C   -0.012937   0.005253  -0.000007  -0.000030   0.000780   0.000002
    11  N    0.004372  -0.000075   0.000000   0.000000  -0.000001   0.000000
    12  C    0.470254  -0.039146   0.000669   0.001401   0.002692   0.000009
    13  C    5.253705   0.261693  -0.049984  -0.043746  -0.045187  -0.000530
    14  C    0.261693   4.136101   0.280359   0.278162   0.285795  -0.000036
    15  F   -0.049984   0.280359   9.118697  -0.038315  -0.039051   0.000020
    16  F   -0.043746   0.278162  -0.038315   9.119783  -0.039012  -0.000005
    17  F   -0.045187   0.285795  -0.039051  -0.039012   9.106293   0.000000
    18  C   -0.000530  -0.000036   0.000020  -0.000005   0.000000   5.253704
    19  C   -0.000036   0.000009   0.000001  -0.000001   0.000000   0.261693
    20  F    0.000000   0.000000  -0.000000  -0.000000  -0.000000  -0.045187
    21  F    0.000020   0.000001  -0.000000  -0.000000  -0.000000  -0.049982
    22  F   -0.000005  -0.000001  -0.000000   0.000000  -0.000000  -0.043748
    23  C    0.000009  -0.000001  -0.000000  -0.000000  -0.000000   0.470254
    24  H    0.000000  -0.000000  -0.000000   0.000000  -0.000000  -0.000058
    25  H    0.000000  -0.000000   0.000000   0.000000   0.000000  -0.000157
    26  H   -0.000000  -0.000000  -0.000001  -0.000000  -0.000000   0.000574
    27  H    0.000493   0.000277   0.003689   0.000013   0.000003   0.005417
    28  H    0.005417  -0.000061   0.000001   0.000001   0.000000   0.000493
    29  H    0.000574   0.000005  -0.000000  -0.000000  -0.000000  -0.000000
    30  H   -0.000157   0.000001  -0.000000  -0.000000  -0.000000   0.000000
    31  H   -0.000058  -0.000002   0.000000  -0.000000  -0.000002   0.000000
    32  H   -0.039953  -0.007109   0.000164   0.000175   0.009428  -0.000000
    33  H   -0.000000   0.000000  -0.000000  -0.000000  -0.000000  -0.039953
              19         20         21         22         23         24
     1  N   -0.000075  -0.000001   0.000000   0.000000  -0.064822   0.344166
     2  C    0.005253   0.000780  -0.000007  -0.000030   0.475281  -0.023919
     3  C   -0.000597  -0.000002  -0.000012  -0.000005  -0.042082   0.005448
     4  C    0.007454  -0.000026   0.000207   0.000063  -0.056602  -0.000186
     5  C   -0.028775   0.002590   0.000196  -0.001577  -0.029511  -0.000004
     6  O    0.000644   0.000002  -0.000695  -0.000332   0.004416  -0.000000
     7  C    0.000260   0.000003   0.000200   0.000279  -0.000135   0.000000
     8  C   -0.000057  -0.000000  -0.000095  -0.000007  -0.000119  -0.000000
     9  C    0.000000   0.000000   0.000024  -0.000000   0.000002   0.000000
    10  C    0.000000   0.000000   0.000000   0.000000  -0.000000  -0.000000
    11  N   -0.000000  -0.000000  -0.000000   0.000000  -0.000000  -0.000000
    12  C   -0.000001  -0.000000  -0.000000  -0.000000   0.000000   0.000000
    13  C   -0.000036   0.000000   0.000020  -0.000005   0.000009   0.000000
    14  C    0.000009   0.000000   0.000001  -0.000001  -0.000001  -0.000000
    15  F    0.000001  -0.000000  -0.000000  -0.000000  -0.000000  -0.000000
    16  F   -0.000001  -0.000000  -0.000000   0.000000  -0.000000   0.000000
    17  F    0.000000  -0.000000  -0.000000  -0.000000  -0.000000  -0.000000
    18  C    0.261693  -0.045187  -0.049982  -0.043748   0.470254  -0.000058
    19  C    4.136102   0.285795   0.280357   0.278163  -0.039146  -0.000002
    20  F    0.285795   9.106293  -0.039051  -0.039012   0.002692  -0.000002
    21  F    0.280357  -0.039051   9.118698  -0.038314   0.000669   0.000000
    22  F    0.278163  -0.039012  -0.038314   9.119783   0.001401  -0.000000
    23  C   -0.039146   0.002692   0.000669   0.001401   5.073759  -0.009247
    24  H   -0.000002  -0.000002   0.000000  -0.000000  -0.009247   0.424748
    25  H    0.000001  -0.000000  -0.000000  -0.000000   0.005324  -0.027679
    26  H    0.000005  -0.000000  -0.000000  -0.000000   0.005126  -0.000048
    27  H   -0.000061   0.000000   0.000001   0.000001   0.000535   0.000003
    28  H    0.000277   0.000003   0.003689   0.000013  -0.000047  -0.000000
    29  H   -0.000000  -0.000000  -0.000001  -0.000000  -0.000000  -0.000000
    30  H   -0.000000   0.000000   0.000000   0.000000   0.000000  -0.000000
    31  H   -0.000000  -0.000000  -0.000000   0.000000   0.000000  -0.000000
    32  H    0.000000  -0.000000  -0.000000  -0.000000   0.000000  -0.000000
    33  H   -0.007109   0.009428   0.000164   0.000175   0.363295   0.004110
              25         26         27         28         29         30
     1  N    0.345096  -0.006836  -0.000106   0.000000   0.000000   0.000000
     2  C   -0.024898  -0.039898   0.003775  -0.000008  -0.000000  -0.000000
     3  C   -0.009263   0.365387  -0.032176  -0.000147  -0.000000   0.000000
     4  C   -0.000007  -0.029728   0.362925   0.001087   0.000003   0.000000
     5  C   -0.000006   0.003672  -0.040143   0.005497  -0.000006   0.000000
     6  O   -0.000000  -0.000052  -0.006803  -0.006803  -0.000052  -0.000000
     7  C    0.000000  -0.000006   0.005497  -0.040142   0.003672  -0.000006
     8  C    0.000000   0.000003   0.001087   0.362926  -0.029728  -0.000007
     9  C    0.000000  -0.000000  -0.000147  -0.032176   0.365387  -0.009263
    10  C   -0.000000  -0.000000  -0.000008   0.003775  -0.039898  -0.024897
    11  N    0.000000   0.000000   0.000000  -0.000106  -0.006836   0.345096
    12  C    0.000000  -0.000000  -0.000047   0.000535   0.005126   0.005324
    13  C    0.000000  -0.000000   0.000493   0.005417   0.000574  -0.000157
    14  C   -0.000000  -0.000000   0.000277  -0.000061   0.000005   0.000001
    15  F    0.000000  -0.000001   0.003689   0.000001  -0.000000  -0.000000
    16  F    0.000000  -0.000000   0.000013   0.000001  -0.000000  -0.000000
    17  F    0.000000  -0.000000   0.000003   0.000000  -0.000000  -0.000000
    18  C   -0.000157   0.000574   0.005417   0.000493  -0.000000   0.000000
    19  C    0.000001   0.000005  -0.000061   0.000277  -0.000000  -0.000000
    20  F   -0.000000  -0.000000   0.000000   0.000003  -0.000000   0.000000
    21  F   -0.000000  -0.000000   0.000001   0.003689  -0.000001   0.000000
    22  F   -0.000000  -0.000000   0.000001   0.000013  -0.000000   0.000000
    23  C    0.005324   0.005126   0.000535  -0.000047  -0.000000   0.000000
    24  H   -0.027679  -0.000048   0.000003  -0.000000  -0.000000  -0.000000
    25  H    0.424506   0.004249  -0.000005  -0.000000  -0.000000  -0.000000
    26  H    0.004249   0.588045  -0.005912  -0.000001  -0.000000  -0.000000
    27  H   -0.000005  -0.005912   0.580253   0.000086  -0.000001  -0.000000
    28  H   -0.000000  -0.000001   0.000086   0.580253  -0.005912  -0.000005
    29  H   -0.000000  -0.000000  -0.000001  -0.005912   0.588045   0.004249
    30  H   -0.000000  -0.000000  -0.000000  -0.000005   0.004249   0.424506
    31  H   -0.000000  -0.000000  -0.000000   0.000003  -0.000048  -0.027679
    32  H   -0.000000  -0.000000  -0.000003   0.000011  -0.000175  -0.000069
    33  H   -0.000069  -0.000175   0.000011  -0.000003  -0.000000  -0.000000
              31         32         33
     1  N   -0.000000  -0.000000  -0.007180
     2  C   -0.000000  -0.000000  -0.033634
     3  C    0.000000  -0.000000   0.005710
     4  C   -0.000000   0.000001   0.000162
     5  C    0.000000  -0.000003   0.003927
     6  O   -0.000000  -0.000050  -0.000050
     7  C   -0.000004   0.003927  -0.000003
     8  C   -0.000186   0.000162   0.000001
     9  C    0.005448   0.005710  -0.000000
    10  C   -0.023919  -0.033634  -0.000000
    11  N    0.344166  -0.007180  -0.000000
    12  C   -0.009247   0.363295   0.000000
    13  C   -0.000058  -0.039953  -0.000000
    14  C   -0.000002  -0.007109   0.000000
    15  F    0.000000   0.000164  -0.000000
    16  F   -0.000000   0.000175  -0.000000
    17  F   -0.000002   0.009428  -0.000000
    18  C    0.000000  -0.000000  -0.039953
    19  C   -0.000000   0.000000  -0.007109
    20  F   -0.000000  -0.000000   0.009428
    21  F   -0.000000  -0.000000   0.000164
    22  F    0.000000  -0.000000   0.000175
    23  C    0.000000   0.000000   0.363295
    24  H   -0.000000  -0.000000   0.004110
    25  H   -0.000000  -0.000000  -0.000069
    26  H   -0.000000  -0.000000  -0.000175
    27  H   -0.000000  -0.000003   0.000011
    28  H    0.000003   0.000011  -0.000003
    29  H   -0.000048  -0.000175  -0.000000
    30  H   -0.027679  -0.000069  -0.000000
    31  H    0.424748   0.004110  -0.000000
    32  H    0.004110   0.582551  -0.000000
    33  H   -0.000000  -0.000000   0.582551
 Mulliken charges:
               1
     1  N   -0.670041
     2  C    0.270918
     3  C   -0.127034
     4  C   -0.110460
     5  C    0.282127
     6  O   -0.595430
     7  C    0.282127
     8  C   -0.110461
     9  C   -0.127034
    10  C    0.270917
    11  N   -0.670041
    12  C   -0.161050
    13  C   -0.090529
    14  C    0.819846
    15  F   -0.276068
    16  F   -0.276847
    17  F   -0.284306
    18  C   -0.090529
    19  C    0.819846
    20  F   -0.284305
    21  F   -0.276070
    22  F   -0.276847
    23  C   -0.161050
    24  H    0.282670
    25  H    0.282906
    26  H    0.115596
    27  H    0.121346
    28  H    0.121346
    29  H    0.115596
    30  H    0.282906
    31  H    0.282670
    32  H    0.118643
    33  H    0.118643
 Sum of Mulliken charges =  -0.00000
 Mulliken charges with hydrogens summed into heavy atoms:
               1
     1  N   -0.104464
     2  C    0.270918
     3  C   -0.011438
     4  C    0.010886
     5  C    0.282127
     6  O   -0.595430
     7  C    0.282127
     8  C    0.010885
     9  C   -0.011438
    10  C    0.270917
    11  N   -0.104464
    12  C   -0.042408
    13  C   -0.090529
    14  C    0.819846
    15  F   -0.276068
    16  F   -0.276847
    17  F   -0.284306
    18  C   -0.090529
    19  C    0.819846
    20  F   -0.284305
    21  F   -0.276070
    22  F   -0.276847
    23  C   -0.042408
 APT charges:
               1
     1  N   -1.524160
     2  C    0.259951
     3  C   -0.376651
     4  C   -0.593887
     5  C   -0.339920
     6  O   -0.456162
     7  C   -0.339920
     8  C   -0.593887
     9  C   -0.376650
    10  C    0.259953
    11  N   -1.524163
    12  C   -0.444140
    13  C   -0.463933
    14  C    0.011257
    15  F   -0.145004
    16  F   -0.069760
    17  F    0.381300
    18  C   -0.463931
    19  C    0.011256
    20  F    0.381302
    21  F   -0.145003
    22  F   -0.069759
    23  C   -0.444143
    24  H    0.953579
    25  H    0.863078
    26  H    0.656400
    27  H    0.308205
    28  H    0.308207
    29  H    0.656400
    30  H    0.863081
    31  H    0.953578
    32  H    0.751762
    33  H    0.751763
 Sum of APT charges =  -0.00000
 APT charges with hydrogens summed into heavy atoms:
               1
     1  N    0.292498
     2  C    0.259951
     3  C    0.279749
     4  C   -0.285682
     5  C   -0.339920
     6  O   -0.456162
     7  C   -0.339920
     8  C   -0.285681
     9  C    0.279751
    10  C    0.259953
    11  N    0.292496
    12  C    0.307621
    13  C   -0.463933
    14  C    0.011257
    15  F   -0.145004
    16  F   -0.069760
    17  F    0.381300
    18  C   -0.463931
    19  C    0.011256
    20  F    0.381302
    21  F   -0.145003
    22  F   -0.069759
    23  C    0.307620
 Electronic spatial extent (au):  <R**2>=           7502.9983
 Charge=             -0.0000 electrons
 Dipole moment (field-independent basis, Debye):
    X=              0.0000    Y=             -6.2930    Z=             -0.0000  Tot=              6.2930
 Quadrupole moment (field-independent basis, Debye-Ang):
   XX=            -87.2945   YY=           -128.8670   ZZ=           -117.6523
   XY=              0.0001   XZ=            -25.3685   YZ=             -0.0000
 Traceless Quadrupole moment (field-independent basis, Debye-Ang):
   XX=             23.9768   YY=            -17.5957   ZZ=             -6.3810
   XY=              0.0001   XZ=            -25.3685   YZ=             -0.0000
 Octapole moment (field-independent basis, Debye-Ang**2):
  XXX=              0.0005  YYY=             50.6496  ZZZ=              0.0003  XYY=             -0.0001
  XXY=            -54.4047  XXZ=             -0.0003  XZZ=              0.0001  YZZ=            -29.6841
  YYZ=              0.0004  XYZ=             43.0144
 Hexadecapole moment (field-independent basis, Debye-Ang**3):
 XXXX=          -4368.3690 YYYY=          -1700.2759 ZZZZ=          -1373.8090 XXXY=              0.0012
 XXXZ=           -409.4795 YYYX=             -0.0005 YYYZ=             -0.0011 ZZZX=            -15.5941
 ZZZY=              0.0005 XXYY=          -1240.5625 XXZZ=          -1014.0338 YYZZ=           -400.1960
 XXYZ=             -0.0002 YYXZ=           -104.6671 ZZXY=             -0.0006
 N-N= 2.049131794137D+03 E-N=-7.210697441175D+03  KE= 1.312536985806D+03
  Exact polarizability:   0.000   0.000   0.000   0.000   0.000   0.000
 Approx polarizability: 345.104   0.000 227.782   4.243   0.000 211.824
 D2PCM: PCM CHGder 2nd derivatives, FixD1E=F FixD2E=F DoIter=F DoCFld=F I1PDM=0
 Calling FoFJK, ICntrl=    100147 FMM=F ISym2X=0 I1Cent= 0 IOpClX= 0 NMat=1 NMatS=1 NMatT=0.
 ***** Axes restored to original set *****
 -------------------------------------------------------------------
 Center     Atomic                   Forces (Hartrees/Bohr)
 Number     Number              X              Y              Z
 -------------------------------------------------------------------
      1        7           0.001271944   -0.004099006    0.001791395
      2        6           0.006845900    0.015520086   -0.005236707
      3        6          -0.013069855   -0.005811806    0.004262057
      4        6           0.006313030    0.003234130    0.001566954
      5        6           0.001797055   -0.000240100    0.003152251
      6        8          -0.000199763   -0.007613196   -0.002730692
      7        6          -0.001753985    0.001900398   -0.002556614
      8        6          -0.006128471    0.003782326    0.000949738
      9        6           0.012855003   -0.002380367   -0.007200442
     10        6          -0.006203271    0.008956730    0.014016108
     11        7          -0.001431247   -0.001963509   -0.003965739
     12        6           0.000563381   -0.014689673    0.000344676
     13        6          -0.008931227    0.008075323   -0.000566429
     14        6          -0.003997551   -0.013199588    0.007607770
     15        9          -0.000103790    0.003405774   -0.005512396
     16        9           0.000531718    0.007487390    0.001370701
     17        9           0.004957407    0.007503014   -0.004676358
     18        6           0.009286442    0.005450342    0.005417137
     19        6           0.003505370   -0.005529859   -0.014326105
     20        9          -0.004680549    0.003044400    0.008459517
     21        9           0.000170545   -0.000880657    0.006419133
     22        9          -0.000160181    0.006668366    0.003706144
     23        6          -0.001239088   -0.011080308   -0.009587711
     24        1          -0.001624384    0.001328639    0.003185098
     25        1           0.001946078   -0.000965346   -0.003254281
     26        1           0.001100793   -0.001177214   -0.000162599
     27        1           0.000042082   -0.001146275   -0.003473204
     28        1          -0.000153715   -0.003088314    0.001954531
     29        1          -0.001156993   -0.000960196   -0.000603958
     30        1          -0.002042841   -0.002720845    0.001932025
     31        1           0.001737341    0.002972218   -0.001642601
     32        1           0.002850329   -0.000373644   -0.001973971
     33        1          -0.002897509   -0.001409232    0.001334572
 -------------------------------------------------------------------
 Cartesian Forces:  Max     0.015520086 RMS     0.005557566
 FormGI is forming the generalized inverse of G from B-inverse, IUseBI=4.

 GradGradGradGradGradGradGradGradGradGradGradGradGradGradGradGradGradGrad
 Berny optimization.
 Internal  Forces:  Max     0.010246606 RMS     0.003407012
 Search for a local minimum.
 Step number   1 out of a maximum of  171
 All quantities printed in internal units (Hartrees-Bohrs-Radians)
 Mixed Optimization -- RFO/linear search
 Second derivative matrix not updated -- analytic derivatives used.
 ITU=  0
     Eigenvalues ---    0.00282   0.00370   0.00400   0.00523   0.00529
     Eigenvalues ---    0.00609   0.01355   0.01396   0.01594   0.01595
     Eigenvalues ---    0.01753   0.01778   0.01802   0.01805   0.01994
     Eigenvalues ---    0.01996   0.02237   0.02277   0.02406   0.02415
     Eigenvalues ---    0.02660   0.02661   0.02716   0.02786   0.02872
     Eigenvalues ---    0.02893   0.11187   0.11255   0.11818   0.11823
     Eigenvalues ---    0.12045   0.12046   0.12259   0.12306   0.12545
     Eigenvalues ---    0.12578   0.13537   0.13543   0.15540   0.15561
     Eigenvalues ---    0.17755   0.17929   0.18190   0.19157   0.19413
     Eigenvalues ---    0.19595   0.20480   0.20547   0.20935   0.20941
     Eigenvalues ---    0.22624   0.22967   0.23199   0.23390   0.23801
     Eigenvalues ---    0.24333   0.24598   0.25757   0.25786   0.31981
     Eigenvalues ---    0.32678   0.33089   0.33145   0.33171   0.33464
     Eigenvalues ---    0.34676   0.35386   0.35395   0.35825   0.35847
     Eigenvalues ---    0.36040   0.36388   0.37477   0.38435   0.38603
     Eigenvalues ---    0.41361   0.42315   0.42610   0.44403   0.45392
     Eigenvalues ---    0.45450   0.45824   0.45850   0.45947   0.46477
     Eigenvalues ---    0.47272   0.47746   0.47794   0.49318   0.50378
     Eigenvalues ---    0.50380   0.51793   0.52333
 RFO step:  Lambda=-7.82105265D-03 EMin= 2.82414019D-03
 Linear search not attempted -- first point.
 Iteration  1 RMS(Cart)=  0.11913295 RMS(Int)=  0.00245448
 Iteration  2 RMS(Cart)=  0.00465079 RMS(Int)=  0.00029655
 Iteration  3 RMS(Cart)=  0.00000702 RMS(Int)=  0.00029653
 Iteration  4 RMS(Cart)=  0.00000000 RMS(Int)=  0.00029653
 Variable       Old X    -DE/DX   Delta X   Delta X   Delta X     New X
                                 (Linear)    (Quad)   (Total)
    R1        2.64110   0.00018   0.00000  -0.00932  -0.00932   2.63177
    R2        1.91901  -0.00310   0.00000  -0.00676  -0.00676   1.91225
    R3        1.91937  -0.00323   0.00000  -0.00708  -0.00708   1.91229
    R4        2.63712   0.01025   0.00000   0.02158   0.02166   2.65877
    R5        2.64128   0.00450   0.00000   0.01281   0.01288   2.65416
    R6        2.63838  -0.00359   0.00000  -0.01047  -0.01045   2.62792
    R7        2.05440  -0.00068   0.00000  -0.00167  -0.00167   2.05273
    R8        2.64114  -0.00282   0.00000  -0.00654  -0.00661   2.63453
    R9        2.05392  -0.00205   0.00000  -0.00464  -0.00464   2.04927
   R10        2.60412   0.00958   0.00000   0.02081   0.02081   2.62493
   R11        2.64417   0.00062   0.00000   0.00125   0.00116   2.64533
   R12        2.60412   0.00958   0.00000   0.02081   0.02081   2.62493
   R13        2.64114  -0.00283   0.00000  -0.00654  -0.00661   2.63453
   R14        2.64417   0.00062   0.00000   0.00124   0.00116   2.64533
   R15        2.63838  -0.00359   0.00000  -0.01047  -0.01046   2.62792
   R16        2.05392  -0.00205   0.00000  -0.00465  -0.00465   2.04927
   R17        2.63712   0.01025   0.00000   0.02158   0.02166   2.65877
   R18        2.05440  -0.00068   0.00000  -0.00167  -0.00167   2.05273
   R19        2.64110   0.00018   0.00000  -0.00932  -0.00932   2.63177
   R20        2.64128   0.00450   0.00000   0.01281   0.01288   2.65416
   R21        1.91937  -0.00323   0.00000  -0.00708  -0.00708   1.91229
   R22        1.91901  -0.00310   0.00000  -0.00676  -0.00676   1.91225
   R23        2.65914  -0.00865   0.00000  -0.02214  -0.02215   2.63699
   R24        2.05816  -0.00311   0.00000  -0.00950  -0.00950   2.04866
   R25        2.84081  -0.00523   0.00000  -0.00015  -0.00015   2.84066
   R26        2.57549  -0.00462   0.00000  -0.00935  -0.00935   2.56614
   R27        2.57274  -0.00623   0.00000  -0.01600  -0.01600   2.55674
   R28        2.58003  -0.00802   0.00000  -0.02485  -0.02485   2.55518
   R29        2.84081  -0.00523   0.00000  -0.00015  -0.00015   2.84066
   R30        2.65914  -0.00865   0.00000  -0.02214  -0.02215   2.63699
   R31        2.58003  -0.00802   0.00000  -0.02485  -0.02485   2.55518
   R32        2.57549  -0.00462   0.00000  -0.00935  -0.00935   2.56614
   R33        2.57274  -0.00623   0.00000  -0.01600  -0.01600   2.55674
   R34        2.05816  -0.00311   0.00000  -0.00950  -0.00950   2.04866
    A1        1.99610   0.00151   0.00000   0.01161   0.01157   2.00767
    A2        1.99165   0.00141   0.00000   0.01289   0.01285   2.00450
    A3        1.95683  -0.00255   0.00000  -0.01517  -0.01523   1.94160
    A4        2.09914   0.00254   0.00000   0.01241   0.01097   2.11012
    A5        2.09732   0.00160   0.00000   0.01085   0.00944   2.10676
    A6        2.07230  -0.00361   0.00000  -0.00791  -0.00918   2.06312
    A7        2.10706   0.00068   0.00000   0.00351   0.00359   2.11065
    A8        2.09927  -0.00125   0.00000  -0.01209  -0.01213   2.08713
    A9        2.07682   0.00058   0.00000   0.00856   0.00852   2.08534
   A10        2.09309   0.00139   0.00000   0.00680   0.00667   2.09976
   A11        2.08128   0.00239   0.00000   0.02036   0.02034   2.10162
   A12        2.10881  -0.00378   0.00000  -0.02709  -0.02710   2.08171
   A13        2.11466   0.00200   0.00000   0.00384   0.00391   2.11858
   A14        2.10146  -0.00306   0.00000  -0.01382  -0.01400   2.08746
   A15        2.06601   0.00103   0.00000   0.00964   0.00971   2.07572
   A16        2.04195   0.00617   0.00000   0.00445   0.00445   2.04641
   A17        2.11466   0.00200   0.00000   0.00384   0.00391   2.11858
   A18        2.06601   0.00103   0.00000   0.00964   0.00972   2.07572
   A19        2.10146  -0.00306   0.00000  -0.01382  -0.01400   2.08746
   A20        2.09309   0.00139   0.00000   0.00680   0.00667   2.09976
   A21        2.10881  -0.00378   0.00000  -0.02709  -0.02710   2.08171
   A22        2.08128   0.00239   0.00000   0.02036   0.02034   2.10162
   A23        2.10706   0.00068   0.00000   0.00351   0.00359   2.11065
   A24        2.07682   0.00058   0.00000   0.00856   0.00852   2.08534
   A25        2.09927  -0.00125   0.00000  -0.01209  -0.01213   2.08713
   A26        2.09914   0.00254   0.00000   0.01241   0.01097   2.11012
   A27        2.07230  -0.00361   0.00000  -0.00791  -0.00918   2.06312
   A28        2.09732   0.00160   0.00000   0.01085   0.00944   2.10676
   A29        1.99165   0.00141   0.00000   0.01289   0.01285   2.00450
   A30        1.99610   0.00151   0.00000   0.01161   0.01157   2.00766
   A31        1.95683  -0.00255   0.00000  -0.01517  -0.01523   1.94160
   A32        2.11799  -0.00206   0.00000  -0.00716  -0.00713   2.11085
   A33        2.08111   0.00219   0.00000   0.00910   0.00907   2.09018
   A34        2.08408  -0.00013   0.00000  -0.00191  -0.00195   2.08213
   A35        2.07165   0.00680   0.00000   0.02278   0.02266   2.09431
   A36        2.10520  -0.00366   0.00000  -0.01413  -0.01408   2.09112
   A37        2.10605  -0.00313   0.00000  -0.00855  -0.00850   2.09756
   A38        1.96744  -0.00414   0.00000  -0.01621  -0.01636   1.95108
   A39        1.97621  -0.00432   0.00000  -0.01251  -0.01263   1.96358
   A40        1.97584  -0.00776   0.00000  -0.01836  -0.01844   1.95740
   A41        1.85509   0.00347   0.00000   0.00606   0.00588   1.86097
   A42        1.83835   0.00737   0.00000   0.02296   0.02287   1.86121
   A43        1.83904   0.00735   0.00000   0.02385   0.02380   1.86284
   A44        2.10520  -0.00366   0.00000  -0.01413  -0.01408   2.09112
   A45        2.07165   0.00680   0.00000   0.02278   0.02266   2.09431
   A46        2.10605  -0.00313   0.00000  -0.00855  -0.00850   2.09756
   A47        1.97584  -0.00776   0.00000  -0.01836  -0.01844   1.95740
   A48        1.96744  -0.00414   0.00000  -0.01621  -0.01636   1.95108
   A49        1.97621  -0.00432   0.00000  -0.01251  -0.01263   1.96358
   A50        1.83834   0.00737   0.00000   0.02296   0.02287   1.86121
   A51        1.83904   0.00735   0.00000   0.02385   0.02380   1.86284
   A52        1.85509   0.00347   0.00000   0.00606   0.00588   1.86097
   A53        2.11799  -0.00206   0.00000  -0.00716  -0.00713   2.11085
   A54        2.08111   0.00219   0.00000   0.00910   0.00907   2.09018
   A55        2.08408  -0.00013   0.00000  -0.00191  -0.00195   2.08213
    D1        2.79904  -0.00191   0.00000  -0.04561  -0.04595   2.75309
    D2       -0.52653   0.00108   0.00000   0.05044   0.05082  -0.47571
    D3        0.51328  -0.00104   0.00000  -0.04742  -0.04779   0.46548
    D4       -2.81229   0.00195   0.00000   0.04864   0.04897  -2.76332
    D5        3.03833   0.00165   0.00000   0.04103   0.04070   3.07903
    D6       -0.11237   0.00148   0.00000   0.03877   0.03855  -0.07382
    D7        0.07811  -0.00183   0.00000  -0.05559  -0.05559   0.02252
[...]
   132    C    9  dxz    Ryd( 3d)     0.00046
   133    C    9  dyz    Ryd( 3d)     0.00049
   134    C    9  dx2y2  Ryd( 3d)     0.00049
   135    C    9  dz2    Ryd( 3d)     0.00045

   136    C   10  S      Cor( 1S)     1.99899
   137    C   10  S      Val( 2S)     0.84667
   138    C   10  S      Ryd( 3S)     0.00114
   139    C   10  S      Ryd( 4S)     0.00010
   140    C   10  px     Val( 2p)     0.96463
   141    C   10  px     Ryd( 3p)     0.00512
   142    C   10  py     Val( 2p)     1.01818
   143    C   10  py     Ryd( 3p)     0.00298
   144    C   10  pz     Val( 2p)     0.96885
   145    C   10  pz     Ryd( 3p)     0.00347
   146    C   10  dxy    Ryd( 3d)     0.00108
   147    C   10  dxz    Ryd( 3d)     0.00131
   148    C   10  dyz    Ryd( 3d)     0.00050
   149    C   10  dx2y2  Ryd( 3d)     0.00098
   150    C   10  dz2    Ryd( 3d)     0.00108

   151    N   11  S      Cor( 1S)     1.99949
   152    N   11  S      Val( 2S)     1.36453
   153    N   11  S      Ryd( 3S)     0.00011
   154    N   11  S      Ryd( 4S)     0.00001
   155    N   11  px     Val( 2p)     1.34040
   156    N   11  px     Ryd( 3p)     0.00208
   157    N   11  py     Val( 2p)     1.48898
   158    N   11  py     Ryd( 3p)     0.00234
   159    N   11  pz     Val( 2p)     1.56214
   160    N   11  pz     Ryd( 3p)     0.00316
   161    N   11  dxy    Ryd( 3d)     0.00017
   162    N   11  dxz    Ryd( 3d)     0.00094
   163    N   11  dyz    Ryd( 3d)     0.00058
   164    N   11  dx2y2  Ryd( 3d)     0.00080
   165    N   11  dz2    Ryd( 3d)     0.00072

   166    C   12  S      Cor( 1S)     1.99902
   167    C   12  S      Val( 2S)     0.94593
   168    C   12  S      Ryd( 3S)     0.00066
   169    C   12  S      Ryd( 4S)     0.00005
   170    C   12  px     Val( 2p)     1.16718
   171    C   12  px     Ryd( 3p)     0.00423
   172    C   12  py     Val( 2p)     1.08440
   173    C   12  py     Ryd( 3p)     0.00415
   174    C   12  pz     Val( 2p)     1.05517
   175    C   12  pz     Ryd( 3p)     0.00367
   176    C   12  dxy    Ryd( 3d)     0.00058
   177    C   12  dxz    Ryd( 3d)     0.00046
   178    C   12  dyz    Ryd( 3d)     0.00043
   179    C   12  dx2y2  Ryd( 3d)     0.00051
   180    C   12  dz2    Ryd( 3d)     0.00059

   181    C   13  S      Cor( 1S)     1.99877
   182    C   13  S      Val( 2S)     0.89611
   183    C   13  S      Ryd( 3S)     0.00089
   184    C   13  S      Ryd( 4S)     0.00008
   185    C   13  px     Val( 2p)     1.10657
   186    C   13  px     Ryd( 3p)     0.00457
   187    C   13  py     Val( 2p)     1.11159
   188    C   13  py     Ryd( 3p)     0.00465
   189    C   13  pz     Val( 2p)     1.12833
   190    C   13  pz     Ryd( 3p)     0.00436
   191    C   13  dxy    Ryd( 3d)     0.00065
   192    C   13  dxz    Ryd( 3d)     0.00051
   193    C   13  dyz    Ryd( 3d)     0.00071
   194    C   13  dx2y2  Ryd( 3d)     0.00059
   195    C   13  dz2    Ryd( 3d)     0.00057

   196    C   14  S      Cor( 1S)     1.99907
   197    C   14  S      Val( 2S)     0.79461
   198    C   14  S      Ryd( 3S)     0.00524
   199    C   14  S      Ryd( 4S)     0.00032
   200    C   14  px     Val( 2p)     0.56185
   201    C   14  px     Ryd( 3p)     0.01830
   202    C   14  py     Val( 2p)     0.75231
   203    C   14  py     Ryd( 3p)     0.01477
   204    C   14  pz     Val( 2p)     0.70734
   205    C   14  pz     Ryd( 3p)     0.01539
   206    C   14  dxy    Ryd( 3d)     0.00358
   207    C   14  dxz    Ryd( 3d)     0.00327
   208    C   14  dyz    Ryd( 3d)     0.00298
   209    C   14  dx2y2  Ryd( 3d)     0.00333
   210    C   14  dz2    Ryd( 3d)     0.00391

   211    F   15  S      Cor( 1S)     1.99993
   212    F   15  S      Val( 2S)     1.84688
   213    F   15  S      Ryd( 3S)     0.00090
   214    F   15  S      Ryd( 4S)     0.00004
   215    F   15  px     Val( 2p)     1.82915
   216    F   15  px     Ryd( 3p)     0.00027
   217    F   15  py     Val( 2p)     1.77216
   218    F   15  py     Ryd( 3p)     0.00033
   219    F   15  pz     Val( 2p)     1.92178
   220    F   15  pz     Ryd( 3p)     0.00028
   221    F   15  dxy    Ryd( 3d)     0.00104
   222    F   15  dxz    Ryd( 3d)     0.00055
   223    F   15  dyz    Ryd( 3d)     0.00083
   224    F   15  dx2y2  Ryd( 3d)     0.00130
   225    F   15  dz2    Ryd( 3d)     0.00052

   226    F   16  S      Cor( 1S)     1.99993
   227    F   16  S      Val( 2S)     1.84497
   228    F   16  S      Ryd( 3S)     0.00090
   229    F   16  S      Ryd( 4S)     0.00004
   230    F   16  px     Val( 2p)     1.90845
   231    F   16  px     Ryd( 3p)     0.00021
   232    F   16  py     Val( 2p)     1.92539
   233    F   16  py     Ryd( 3p)     0.00034
   234    F   16  pz     Val( 2p)     1.68613
   235    F   16  pz     Ryd( 3p)     0.00029
   236    F   16  dxy    Ryd( 3d)     0.00025
   237    F   16  dxz    Ryd( 3d)     0.00116
   238    F   16  dyz    Ryd( 3d)     0.00123
   239    F   16  dx2y2  Ryd( 3d)     0.00025
   240    F   16  dz2    Ryd( 3d)     0.00142

   241    F   17  S      Cor( 1S)     1.99993
   242    F   17  S      Val( 2S)     1.84144
   243    F   17  S      Ryd( 3S)     0.00072
   244    F   17  S      Ryd( 4S)     0.00005
   245    F   17  px     Val( 2p)     1.68833
   246    F   17  px     Ryd( 3p)     0.00014
   247    F   17  py     Val( 2p)     1.89556
   248    F   17  py     Ryd( 3p)     0.00031
   249    F   17  pz     Val( 2p)     1.93841
   250    F   17  pz     Ryd( 3p)     0.00029
   251    F   17  dxy    Ryd( 3d)     0.00123
   252    F   17  dxz    Ryd( 3d)     0.00116
   253    F   17  dyz    Ryd( 3d)     0.00027
   254    F   17  dx2y2  Ryd( 3d)     0.00125
   255    F   17  dz2    Ryd( 3d)     0.00043

   256    C   18  S      Cor( 1S)     1.99877
   257    C   18  S      Val( 2S)     0.89611
   258    C   18  S      Ryd( 3S)     0.00089
   259    C   18  S      Ryd( 4S)     0.00008
   260    C   18  px     Val( 2p)     1.10657
   261    C   18  px     Ryd( 3p)     0.00457
   262    C   18  py     Val( 2p)     1.11159
   263    C   18  py     Ryd( 3p)     0.00465
   264    C   18  pz     Val( 2p)     1.12833
   265    C   18  pz     Ryd( 3p)     0.00436
   266    C   18  dxy    Ryd( 3d)     0.00065
   267    C   18  dxz    Ryd( 3d)     0.00051
   268    C   18  dyz    Ryd( 3d)     0.00071
   269    C   18  dx2y2  Ryd( 3d)     0.00059
   270    C   18  dz2    Ryd( 3d)     0.00057

   271    C   19  S      Cor( 1S)     1.99907
   272    C   19  S      Val( 2S)     0.79461
   273    C   19  S      Ryd( 3S)     0.00524
   274    C   19  S      Ryd( 4S)     0.00032
   275    C   19  px     Val( 2p)     0.56185
   276    C   19  px     Ryd( 3p)     0.01830
   277    C   19  py     Val( 2p)     0.75231
   278    C   19  py     Ryd( 3p)     0.01477
   279    C   19  pz     Val( 2p)     0.70734
   280    C   19  pz     Ryd( 3p)     0.01539
   281    C   19  dxy    Ryd( 3d)     0.00358
   282    C   19  dxz    Ryd( 3d)     0.00327
   283    C   19  dyz    Ryd( 3d)     0.00298
   284    C   19  dx2y2  Ryd( 3d)     0.00333
   285    C   19  dz2    Ryd( 3d)     0.00391

   286    F   20  S      Cor( 1S)     1.99993
   287    F   20  S      Val( 2S)     1.84144
   288    F   20  S      Ryd( 3S)     0.00072
   289    F   20  S      Ryd( 4S)     0.00005
   290    F   20  px     Val( 2p)     1.68833
   291    F   20  px     Ryd( 3p)     0.00014
   292    F   20  py     Val( 2p)     1.89556
   293    F   20  py     Ryd( 3p)     0.00031
   294    F   20  pz     Val( 2p)     1.93841
   295    F   20  pz     Ryd( 3p)     0.00029
   296    F   20  dxy    Ryd( 3d)     0.00123
   297    F   20  dxz    Ryd( 3d)     0.00116
   298    F   20  dyz    Ryd( 3d)     0.00027
   299    F   20  dx2y2  Ryd( 3d)     0.00125
   300    F   20  dz2    Ryd( 3d)     0.00043

   301    F   21  S      Cor( 1S)     1.99993
   302    F   21  S      Val( 2S)     1.84688
   303    F   21  S      Ryd( 3S)     0.00090
   304    F   21  S      Ryd( 4S)     0.00004
   305    F   21  px     Val( 2p)     1.82915
   306    F   21  px     Ryd( 3p)     0.00027
   307    F   21  py     Val( 2p)     1.77216
   308    F   21  py     Ryd( 3p)     0.00033
   309    F   21  pz     Val( 2p)     1.92178
   310    F   21  pz     Ryd( 3p)     0.00028
   311    F   21  dxy    Ryd( 3d)     0.00104
   312    F   21  dxz    Ryd( 3d)     0.00055
   313    F   21  dyz    Ryd( 3d)     0.00083
   314    F   21  dx2y2  Ryd( 3d)     0.00130
   315    F   21  dz2    Ryd( 3d)     0.00052

   316    F   22  S      Cor( 1S)     1.99993
   317    F   22  S      Val( 2S)     1.84497
   318    F   22  S      Ryd( 3S)     0.00090
   319    F   22  S      Ryd( 4S)     0.00004
   320    F   22  px     Val( 2p)     1.90845
   321    F   22  px     Ryd( 3p)     0.00021
   322    F   22  py     Val( 2p)     1.92539
   323    F   22  py     Ryd( 3p)     0.00034
   324    F   22  pz     Val( 2p)     1.68613
   325    F   22  pz     Ryd( 3p)     0.00029
   326    F   22  dxy    Ryd( 3d)     0.00025
   327    F   22  dxz    Ryd( 3d)     0.00116
   328    F   22  dyz    Ryd( 3d)     0.00123
   329    F   22  dx2y2  Ryd( 3d)     0.00025
   330    F   22  dz2    Ryd( 3d)     0.00142

   331    C   23  S      Cor( 1S)     1.99902
   332    C   23  S      Val( 2S)     0.94593
   333    C   23  S      Ryd( 3S)     0.00066
   334    C   23  S      Ryd( 4S)     0.00005
   335    C   23  px     Val( 2p)     1.16718
   336    C   23  px     Ryd( 3p)     0.00423
   337    C   23  py     Val( 2p)     1.08440
   338    C   23  py     Ryd( 3p)     0.00415
   339    C   23  pz     Val( 2p)     1.05517
   340    C   23  pz     Ryd( 3p)     0.00367
   341    C   23  dxy    Ryd( 3d)     0.00058
   342    C   23  dxz    Ryd( 3d)     0.00046
   343    C   23  dyz    Ryd( 3d)     0.00043
   344    C   23  dx2y2  Ryd( 3d)     0.00051
   345    C   23  dz2    Ryd( 3d)     0.00059

   346    H   24  S      Val( 1S)     0.56935
   347    H   24  S      Ryd( 2S)     0.00109
   348    H   24  px     Ryd( 2p)     0.00051
   349    H   24  py     Ryd( 2p)     0.00029
   350    H   24  pz     Ryd( 2p)     0.00043

   351    H   25  S      Val( 1S)     0.56970
   352    H   25  S      Ryd( 2S)     0.00134
   353    H   25  px     Ryd( 2p)     0.00019
   354    H   25  py     Ryd( 2p)     0.00064
   355    H   25  pz     Ryd( 2p)     0.00041

   356    H   26  S      Val( 1S)     0.74884
   357    H   26  S      Ryd( 2S)     0.00086
   358    H   26  px     Ryd( 2p)     0.00006
   359    H   26  py     Ryd( 2p)     0.00030
   360    H   26  pz     Ryd( 2p)     0.00027

   361    H   27  S      Val( 1S)     0.73508
   362    H   27  S      Ryd( 2S)     0.00160
   363    H   27  px     Ryd( 2p)     0.00033
   364    H   27  py     Ryd( 2p)     0.00017
   365    H   27  pz     Ryd( 2p)     0.00010

   366    H   28  S      Val( 1S)     0.73508
   367    H   28  S      Ryd( 2S)     0.00160
   368    H   28  px     Ryd( 2p)     0.00033
   369    H   28  py     Ryd( 2p)     0.00017
   370    H   28  pz     Ryd( 2p)     0.00010

   371    H   29  S      Val( 1S)     0.74884
   372    H   29  S      Ryd( 2S)     0.00086
   373    H   29  px     Ryd( 2p)     0.00006
   374    H   29  py     Ryd( 2p)     0.00030
   375    H   29  pz     Ryd( 2p)     0.00027

   376    H   30  S      Val( 1S)     0.56970
   377    H   30  S      Ryd( 2S)     0.00134
   378    H   30  px     Ryd( 2p)     0.00019
   379    H   30  py     Ryd( 2p)     0.00064
   380    H   30  pz     Ryd( 2p)     0.00041

   381    H   31  S      Val( 1S)     0.56935
   382    H   31  S      Ryd( 2S)     0.00109
   383    H   31  px     Ryd( 2p)     0.00051
   384    H   31  py     Ryd( 2p)     0.00029
   385    H   31  pz     Ryd( 2p)     0.00043

   386    H   32  S      Val( 1S)     0.74078
   387    H   32  S      Ryd( 2S)     0.00159
   388    H   32  px     Ryd( 2p)     0.00032
   389    H   32  py     Ryd( 2p)     0.00019
   390    H   32  pz     Ryd( 2p)     0.00013

   391    H   33  S      Val( 1S)     0.74078
   392    H   33  S      Ryd( 2S)     0.00159
   393    H   33  px     Ryd( 2p)     0.00032
   394    H   33  py     Ryd( 2p)     0.00019
   395    H   33  pz     Ryd( 2p)     0.00013

 WARNING:  1 low occupancy (<1.9990e) core orbital  found on  C    2
           1 low occupancy (<1.9990e) core orbital  found on  C    5
           1 low occupancy (<1.9990e) core orbital  found on  C    7
           1 low occupancy (<1.9990e) core orbital  found on  C   10
           1 low occupancy (<1.9990e) core orbital  found on  C   13
           1 low occupancy (<1.9990e) core orbital  found on  C   18


 Summary of Natural Population Analysis:                  
                                                          
                                       Natural Population 
                Natural  -----------------------------------------------
    Atom  No    Charge         Core      Valence    Rydberg      Total
 -----------------------------------------------------------------------
      N    1   -0.76645      1.99949     5.75606    0.01091     7.76645
      C    2    0.18492      1.99899     3.79833    0.01776     5.81508
      C    3   -0.32538      1.99906     4.31052    0.01580     6.32538
      C    4   -0.27062      1.99902     4.25657    0.01503     6.27062
      C    5    0.32338      1.99865     3.65394    0.02402     5.67662
      O    6   -0.48518      1.99971     6.47334    0.01213     8.48518
      C    7    0.32338      1.99865     3.65394    0.02402     5.67662
      C    8   -0.27062      1.99902     4.25657    0.01503     6.27062
      C    9   -0.32538      1.99906     4.31052    0.01580     6.32538
      C   10    0.18492      1.99899     3.79833    0.01776     5.81508
      N   11   -0.76645      1.99949     5.75606    0.01091     7.76645
      C   12   -0.26702      1.99902     4.25268    0.01533     6.26702
      C   13   -0.25894      1.99877     4.24260    0.01757     6.25894
      C   14    1.11373      1.99907     2.81611    0.07110     4.88627
      F   15   -0.37595      1.99993     7.36998    0.00605     9.37595
      F   16   -0.37096      1.99993     7.36493    0.00610     9.37096
      F   17   -0.36956      1.99993     7.36375    0.00588     9.36956
      C   18   -0.25894      1.99877     4.24260    0.01757     6.25894
      C   19    1.11373      1.99907     2.81611    0.07110     4.88627
      F   20   -0.36956      1.99993     7.36375    0.00588     9.36956
      F   21   -0.37595      1.99993     7.36998    0.00605     9.37595
      F   22   -0.37096      1.99993     7.36493    0.00610     9.37096
      C   23   -0.26702      1.99902     4.25268    0.01533     6.26702
      H   24    0.42833      0.00000     0.56935    0.00232     0.57167
      H   25    0.42772      0.00000     0.56970    0.00257     0.57228
      H   26    0.24968      0.00000     0.74884    0.00148     0.75032
      H   27    0.26271      0.00000     0.73508    0.00221     0.73729
      H   28    0.26271      0.00000     0.73508    0.00221     0.73729
      H   29    0.24968      0.00000     0.74884    0.00148     0.75032
      H   30    0.42772      0.00000     0.56970    0.00257     0.57228
      H   31    0.42833      0.00000     0.56935    0.00232     0.57167
      H   32    0.25700      0.00000     0.74078    0.00222     0.74300
      H   33    0.25700      0.00000     0.74078    0.00222     0.74300
 =======================================================================
   * Total *   -0.00000     45.98338   123.57178    0.44484   170.00000

                                 Natural Population      
 --------------------------------------------------------
   Core                      45.98338 ( 99.9639% of  46)
   Valence                  123.57178 ( 99.6547% of 124)
   Natural Minimal Basis    169.55516 ( 99.7383% of 170)
   Natural Rydberg Basis      0.44484 (  0.2617% of 170)
 --------------------------------------------------------

    Atom  No          Natural Electron Configuration
 ----------------------------------------------------------------------------
      N    1      [core]2S( 1.36)2p( 4.39)3p( 0.01)
      C    2      [core]2S( 0.85)2p( 2.95)3p( 0.01)
      C    3      [core]2S( 0.95)2p( 3.36)3p( 0.01)
      C    4      [core]2S( 0.96)2p( 3.29)3p( 0.01)
      C    5      [core]2S( 0.83)2p( 2.82)3p( 0.02)3d( 0.01)
      O    6      [core]2S( 1.58)2p( 4.90)3p( 0.01)3d( 0.01)
      C    7      [core]2S( 0.83)2p( 2.82)3p( 0.02)3d( 0.01)
      C    8      [core]2S( 0.96)2p( 3.29)3p( 0.01)
      C    9      [core]2S( 0.95)2p( 3.36)3p( 0.01)
      C   10      [core]2S( 0.85)2p( 2.95)3p( 0.01)
      N   11      [core]2S( 1.36)2p( 4.39)3p( 0.01)
      C   12      [core]2S( 0.95)2p( 3.31)3p( 0.01)
      C   13      [core]2S( 0.90)2p( 3.35)3p( 0.01)
      C   14      [core]2S( 0.79)2p( 2.02)3S( 0.01)3p( 0.05)3d( 0.02)
      F   15      [core]2S( 1.85)2p( 5.52)
      F   16      [core]2S( 1.84)2p( 5.52)
      F   17      [core]2S( 1.84)2p( 5.52)
      C   18      [core]2S( 0.90)2p( 3.35)3p( 0.01)
      C   19      [core]2S( 0.79)2p( 2.02)3S( 0.01)3p( 0.05)3d( 0.02)
      F   20      [core]2S( 1.84)2p( 5.52)
      F   21      [core]2S( 1.85)2p( 5.52)
      F   22      [core]2S( 1.84)2p( 5.52)
      C   23      [core]2S( 0.95)2p( 3.31)3p( 0.01)
      H   24            1S( 0.57)
      H   25            1S( 0.57)
      H   26            1S( 0.75)
      H   27            1S( 0.74)
      H   28            1S( 0.74)
      H   29            1S( 0.75)
      H   30            1S( 0.57)
      H   31            1S( 0.57)
      H   32            1S( 0.74)
      H   33            1S( 0.74)


 NBO analysis skipped by request.
 1\1\GINC-DRG2-W002\SP\RB3LYP TD-FC\6-31G(d,p)\C14H10F6N2O1\QDUEZ\18-Ju
 l-2024\0\\# TD(NStates=10, Root=1) B3LYP/6-31G** SCRF=(Solvent=water) 
 volume pop=NPA density=current Geom=AllCheck Guess=Read\\NKYXYJFTTIPZD
 E-UHFFFAOYSA-N_conf_0\\0,1\N,0,4.7624470826,0.9758928537,1.5568183375\
 C,0,3.5754695597,0.436920671,1.0682401977\C,0,2.3994767494,0.455165589
 9,1.8417287464\C,0,1.2006163127,-0.0302673151,1.3314837484\C,0,1.14093
 93271,-0.5368385049,0.0337039553\O,0,-0.0286300836,-1.0911012551,-0.47
 3613827\C,0,-1.1625615013,-0.2871961336,-0.4937926752\C,0,-1.176994567
 4,0.9304630278,-1.1731349849\C,0,-2.3433309923,1.6845240737,-1.2388061
 603\C,0,-3.531630269,1.2337892337,-0.6335298507\N,0,-4.6839714922,2.01
 48116802,-0.6486605723\C,0,-3.506352479,0.0026848522,0.042438169\C,0,-
 2.3333125789,-0.7499362059,0.1194359113\C,0,-2.3231185249,-2.054299584
 2,0.8676336665\F,0,-1.4193211883,-2.0500681327,1.8811723372\F,0,-2.007
 5925232,-3.1038727959,0.0737807047\F,0,-3.5243885163,-2.3331903198,1.4
 229038128\C,0,2.298979958,-0.5584721125,-0.7532583094\C,0,2.2406551912
 ,-1.0883483036,-2.1593511459\F,0,3.4367548298,-1.0064757556,-2.7852881
 17\F,0,1.3550482807,-0.3992926755,-2.9242242899\F,0,1.8635105893,-2.38
 71089276,-2.2077854627\C,0,3.5042800207,-0.081655454,-0.2352936901\H,0
 ,5.6057309638,0.618607429,1.1268252768\H,0,4.8415310904,0.9915120684,2
 .5653962919\H,0,2.4311594671,0.8448366451,2.8551826721\H,0,0.305728804
 3,-0.0374814906,1.9434577945\H,0,-0.2733330554,1.2720396532,-1.6651809
 211\H,0,-2.3399752497,2.6301554507,-1.7733211021\H,0,-4.7454222025,2.6
 711724743,-1.4162164679\H,0,-5.5499968791,1.5054188303,-0.5295238087\H
 ,0,-4.4062542829,-0.3672719664,0.5203604346\H,0,4.393858167,-0.1051176
 ,-0.8543261982\\Version=ES64L-G16RevA.03\State=1-A\HF=-1323.3249394\RM
 SD=9.816e-09\Dipole=0.0655786,2.4995396,0.8965173\Quadrupole=29.140649
 3,-16.255471,-12.8851783,-8.1306434,19.27793,-2.0556735\PG=C01 [X(C14H
 10F6N2O1)]\\@


 K N O W I N G  IS A BARRIER WHICH PREVENTS LEARNING

                     -- TEACHING OF THE BENE GESSERIT
 Job cpu time:       0 days  1 hours 18 minutes 26.8 seconds.
 Elapsed time:       0 days  0 hours 26 minutes 14.3 seconds.
 File lengths (MBytes):  RWF=   1395 Int=      0 D2E=      0 Chk=     80 Scr=      1
 Normal termination of Gaussian 16 at Thu Jul 18 16:50:49 2024.
