 Entering Gaussian System, Link 0=g16
 Initial command:
 /opt/sw/arch/manual/gaussian/G16_A03/g16/l1.exe "/scratch/1030821.jesse.materianova.be/Gau-76066.inp" -scrdir="/scratch/1030821.jesse.materianova.be/"
 Entering Link 1 = /opt/sw/arch/manual/gaussian/G16_A03/g16/l1.exe PID=     76077.
  
 Copyright (c) 1988,1990,1992,1993,1995,1998,2003,2009,2016,
            Gaussian, Inc.  All Rights Reserved.
  
 This is part of the Gaussian(R) 16 program.  It is based on
 the Gaussian(R) 09 system (copyright 2009, Gaussian, Inc.),
 the Gaussian(R) 03 system (copyright 2003, Gaussian, Inc.),
 the Gaussian(R) 98 system (copyright 1998, Gaussian, Inc.),
 the Gaussian(R) 94 system (copyright 1995, Gaussian, Inc.),
 the Gaussian 92(TM) system (copyright 1992, Gaussian, Inc.),
 the Gaussian 90(TM) system (copyright 1990, Gaussian, Inc.),
 the Gaussian 88(TM) system (copyright 1988, Gaussian, Inc.),
 the Gaussian 86(TM) system (copyright 1986, Carnegie Mellon
 University), and the Gaussian 82(TM) system (copyright 1983,
 Carnegie Mellon University). Gaussian is a federally registered
 trademark of Gaussian, Inc.
  
 This software contains proprietary and confidential information,
 including trade secrets, belonging to Gaussian, Inc.
  
 This software is provided under written license and may be
 used, copied, transmitted, or stored only in accord with that
 written license.
  
 The following legend is applicable only to US Government
 contracts under FAR:
  
                    RESTRICTED RIGHTS LEGEND
  
 Use, reproduction and disclosure by the US Government is
 subject to restrictions as set forth in subparagraphs (a)
 and (c) of the Commercial Computer Software - Restricted
 Rights clause in FAR 52.227-19.
  
 Gaussian, Inc.
 340 Quinnipiac St., Bldg. 40, Wallingford CT 06492
  
  
 ---------------------------------------------------------------
 Warning -- This program may not be used in any manner that
 competes with the business of Gaussian, Inc. or will provide
 assistance to any competitor of Gaussian, Inc.  The licensee
 of this program is prohibited from giving any competitor of
 Gaussian, Inc. access to this program.  By using this program,
 the user acknowledges that Gaussian, Inc. is engaged in the
 business of creating and licensing software in the field of
 computational chemistry and represents and warrants to the
 licensee that it is not a competitor of Gaussian, Inc. and that
 it will not use this program in any manner prohibited above.
 ---------------------------------------------------------------
  

 Cite this work as:
 Gaussian 16, Revision A.03,
 M. J. Frisch, G. W. Trucks, H. B. Schlegel, G. E. Scuseria, 
 M. A. Robb, J. R. Cheeseman, G. Scalmani, V. Barone, 
 G. A. Petersson, H. Nakatsuji, X. Li, M. Caricato, A. V. Marenich, 
 J. Bloino, B. G. Janesko, R. Gomperts, B. Mennucci, H. P. Hratchian, 
 J. V. Ortiz, A. F. Izmaylov, J. L. Sonnenberg, D. Williams-Young, 
 F. Ding, F. Lipparini, F. Egidi, J. Goings, B. Peng, A. Petrone, 
 T. Henderson, D. Ranasinghe, V. G. Zakrzewski, J. Gao, N. Rega, 
 G. Zheng, W. Liang, M. Hada, M. Ehara, K. Toyota, R. Fukuda, 
 J. Hasegawa, M. Ishida, T. Nakajima, Y. Honda, O. Kitao, H. Nakai, 
 T. Vreven, K. Throssell, J. A. Montgomery, Jr., J. E. Peralta, 
 F. Ogliaro, M. J. Bearpark, J. J. Heyd, E. N. Brothers, K. N. Kudin, 
 V. N. Staroverov, T. A. Keith, R. Kobayashi, J. Normand, 
 K. Raghavachari, A. P. Rendell, J. C. Burant, S. S. Iyengar, 
 J. Tomasi, M. Cossi, J. M. Millam, M. Klene, C. Adamo, R. Cammi, 
 J. W. Ochterski, R. L. Martin, K. Morokuma, O. Farkas, 
 J. B. Foresman, and D. J. Fox, Gaussian, Inc., Wallingford CT, 2016.
 
 ******************************************
 Gaussian 16:  EM64L-G16RevA.03 25-Dec-2016
                 9-Jul-2024 
 ******************************************
 %nprocshared=4
 Will use up to    4 processors via shared memory.
 %mem=8GB
 %Chk=PWSKHLMYTZNYKO-UHFFFAOYSA-N_conf_2_0.chk
 -------------------------------------------------------
 # opt=CalcFc B3LYP/6-31G** SCRF=(Solvent=water) scf=xqc
 -------------------------------------------------------
 1/10=4,18=20,19=15,26=3,38=1/1,3;
 2/9=110,12=2,17=6,18=5,40=1/2;
 3/5=1,6=6,7=101,11=2,25=1,30=1,70=2201,71=2,72=1,74=-5,140=1/1,2,3;
 4//1;
 5/5=2,8=3,13=1,38=5,53=1/2,8;
 8/6=4,10=90,11=11/1;
 11/6=1,8=1,9=11,15=111,16=1/1,2,10;
 10/6=1,13=1/2;
 6/7=2,8=2,9=2,10=2,28=1/1;
 7/10=1,18=20,25=1/1,2,3,16;
 1/10=4,18=20,19=15,26=3/3(2);
 2/9=110/2;
 99//99;
 2/9=110/2;
 3/5=1,6=6,7=101,11=2,25=1,30=1,70=2205,71=1,72=1,74=-5/1,2,3;
 4/5=5,16=3,69=1/1;
 5/5=2,8=3,13=1,38=5,53=1/2,8;
 7//1,2,3,16;
 1/18=20,19=15,26=3/3(-5);
 2/9=110/2;
 6/7=2,8=2,9=2,10=2,19=2,28=1/1;
 99/9=1/99;
 ----------------------------------
 PWSKHLMYTZNYKO-UHFFFAOYSA-N_conf_2
 ----------------------------------
 Symbolic Z-matrix:
 Charge =  0 Multiplicity = 1
 N                     4.61663  -0.43752  -0.47699 
 C                     3.3354   -0.04615   0.10197 
 C                     2.26168  -1.07382  -0.25438 
 C                     0.90754  -0.79245   0.4069 
 C                     0.2271    0.47373  -0.12028 
 C                    -1.1231    0.76247   0.54605 
 C                    -2.20743  -0.26291   0.19705 
 C                    -3.56581   0.06781   0.8204 
 N                    -4.12088   1.30896   0.29409 
 H                     5.31155   0.27953  -0.27279 
 H                     4.536    -0.47569  -1.49233 
 H                     3.06717   0.9451   -0.27582 
 H                     3.44272   0.02574   1.18939 
 H                     2.59536  -2.06862   0.06877 
 H                     2.13364  -1.12325  -1.34313 
 H                     0.26359  -1.65906   0.22067 
 H                     1.03673  -0.7205    1.49352 
 H                     0.09294   0.39923  -1.20612 
 H                     0.87483   1.33884   0.06034 
 H                    -0.99367   0.80855   1.6342 
 H                    -1.44644   1.75967   0.22428 
 H                    -1.90841  -1.25369   0.55678 
 H                    -2.3085   -0.33916  -0.89282 
 H                    -3.46847   0.14843   1.90841 
 H                    -4.26503  -0.74996   0.61368 
 H                    -4.24492   1.22832  -0.7143 
 H                    -5.05023   1.45637   0.68562 
 

 GradGradGradGradGradGradGradGradGradGradGradGradGradGradGradGradGradGrad
 Berny optimization.
 Initialization pass.
                           ----------------------------
                           !    Initial Parameters    !
                           ! (Angstroms and Degrees)  !
 --------------------------                            --------------------------
 ! Name  Definition              Value          Derivative Info.                !
 --------------------------------------------------------------------------------
 ! R1    R(1,2)                  1.4594         calculate D2E/DX2 analytically  !
 ! R2    R(1,10)                 1.0192         calculate D2E/DX2 analytically  !
 ! R3    R(1,11)                 1.0193         calculate D2E/DX2 analytically  !
 ! R4    R(2,3)                  1.5284         calculate D2E/DX2 analytically  !
 ! R5    R(2,12)                 1.0942         calculate D2E/DX2 analytically  !
 ! R6    R(2,13)                 1.0951         calculate D2E/DX2 analytically  !
 ! R7    R(3,4)                  1.533          calculate D2E/DX2 analytically  !
 ! R8    R(3,14)                 1.0979         calculate D2E/DX2 analytically  !
 ! R9    R(3,15)                 1.0974         calculate D2E/DX2 analytically  !
 ! R10   R(4,5)                  1.5311         calculate D2E/DX2 analytically  !
 ! R11   R(4,16)                 1.0956         calculate D2E/DX2 analytically  !
 ! R12   R(4,17)                 1.0966         calculate D2E/DX2 analytically  !
 ! R13   R(5,6)                  1.5331         calculate D2E/DX2 analytically  !
 ! R14   R(5,18)                 1.0966         calculate D2E/DX2 analytically  !
 ! R15   R(5,19)                 1.0957         calculate D2E/DX2 analytically  !
 ! R16   R(6,7)                  1.5326         calculate D2E/DX2 analytically  !
 ! R17   R(6,20)                 1.0968         calculate D2E/DX2 analytically  !
 ! R18   R(6,21)                 1.0966         calculate D2E/DX2 analytically  !
 ! R19   R(7,8)                  1.5307         calculate D2E/DX2 analytically  !
 ! R20   R(7,22)                 1.0957         calculate D2E/DX2 analytically  !
 ! R21   R(7,23)                 1.0972         calculate D2E/DX2 analytically  !
 ! R22   R(8,9)                  1.4579         calculate D2E/DX2 analytically  !
 ! R23   R(8,24)                 1.0953         calculate D2E/DX2 analytically  !
 ! R24   R(8,25)                 1.0956         calculate D2E/DX2 analytically  !
 ! R25   R(9,26)                 1.0192         calculate D2E/DX2 analytically  !
 ! R26   R(9,27)                 1.0192         calculate D2E/DX2 analytically  !
 ! A1    A(2,1,10)             109.2946         calculate D2E/DX2 analytically  !
 ! A2    A(2,1,11)             109.6196         calculate D2E/DX2 analytically  !
 ! A3    A(10,1,11)            106.2526         calculate D2E/DX2 analytically  !
 ! A4    A(1,2,3)              110.1168         calculate D2E/DX2 analytically  !
 ! A5    A(1,2,12)             108.7346         calculate D2E/DX2 analytically  !
 ! A6    A(1,2,13)             108.996          calculate D2E/DX2 analytically  !
 ! A7    A(3,2,12)             110.88           calculate D2E/DX2 analytically  !
 ! A8    A(3,2,13)             110.1524         calculate D2E/DX2 analytically  !
 ! A9    A(12,2,13)            107.9031         calculate D2E/DX2 analytically  !
 ! A10   A(2,3,4)              113.3632         calculate D2E/DX2 analytically  !
 ! A11   A(2,3,14)             109.0931         calculate D2E/DX2 analytically  !
 ! A12   A(2,3,15)             110.0953         calculate D2E/DX2 analytically  !
 ! A13   A(4,3,14)             107.9265         calculate D2E/DX2 analytically  !
 ! A14   A(4,3,15)             109.4616         calculate D2E/DX2 analytically  !
 ! A15   A(14,3,15)            106.659          calculate D2E/DX2 analytically  !
 ! A16   A(3,4,5)              113.3176         calculate D2E/DX2 analytically  !
 ! A17   A(3,4,16)             107.4979         calculate D2E/DX2 analytically  !
 ! A18   A(3,4,17)             109.5972         calculate D2E/DX2 analytically  !
 ! A19   A(5,4,16)             109.536          calculate D2E/DX2 analytically  !
 ! A20   A(5,4,17)             109.8326         calculate D2E/DX2 analytically  !
 ! A21   A(16,4,17)            106.8319         calculate D2E/DX2 analytically  !
 ! A22   A(4,5,6)              113.4223         calculate D2E/DX2 analytically  !
 ! A23   A(4,5,18)             109.8231         calculate D2E/DX2 analytically  !
 ! A24   A(4,5,19)             109.4793         calculate D2E/DX2 analytically  !
 ! A25   A(6,5,18)             109.5973         calculate D2E/DX2 analytically  !
 ! A26   A(6,5,19)             107.4747         calculate D2E/DX2 analytically  !
 ! A27   A(18,5,19)            106.8086         calculate D2E/DX2 analytically  !
 ! A28   A(5,6,7)              113.4604         calculate D2E/DX2 analytically  !
 ! A29   A(5,6,20)             109.5842         calculate D2E/DX2 analytically  !
 ! A30   A(5,6,21)             107.6628         calculate D2E/DX2 analytically  !
 ! A31   A(7,6,20)             109.7258         calculate D2E/DX2 analytically  !
 ! A32   A(7,6,21)             109.4489         calculate D2E/DX2 analytically  !
 ! A33   A(20,6,21)            106.7207         calculate D2E/DX2 analytically  !
 ! A34   A(6,7,8)              112.9892         calculate D2E/DX2 analytically  !
 ! A35   A(6,7,22)             109.7029         calculate D2E/DX2 analytically  !
 ! A36   A(6,7,23)             109.7469         calculate D2E/DX2 analytically  !
 ! A37   A(8,7,22)             107.689          calculate D2E/DX2 analytically  !
 ! A38   A(8,7,23)             109.7409         calculate D2E/DX2 analytically  !
 ! A39   A(22,7,23)            106.7639         calculate D2E/DX2 analytically  !
 ! A40   A(7,8,9)              112.0106         calculate D2E/DX2 analytically  !
 ! A41   A(7,8,24)             109.9705         calculate D2E/DX2 analytically  !
 ! A42   A(7,8,25)             109.1622         calculate D2E/DX2 analytically  !
 ! A43   A(9,8,24)             109.2544         calculate D2E/DX2 analytically  !
 ! A44   A(9,8,25)             108.9248         calculate D2E/DX2 analytically  !
 ! A45   A(24,8,25)            107.4022         calculate D2E/DX2 analytically  !
 ! A46   A(8,9,26)             109.6427         calculate D2E/DX2 analytically  !
 ! A47   A(8,9,27)             109.3674         calculate D2E/DX2 analytically  !
 ! A48   A(26,9,27)            106.2939         calculate D2E/DX2 analytically  !
 ! D1    D(10,1,2,3)           177.1009         calculate D2E/DX2 analytically  !
 ! D2    D(10,1,2,12)           55.4306         calculate D2E/DX2 analytically  !
 ! D3    D(10,1,2,13)          -61.9601         calculate D2E/DX2 analytically  !
 ! D4    D(11,1,2,3)            61.0225         calculate D2E/DX2 analytically  !
 ! D5    D(11,1,2,12)          -60.6478         calculate D2E/DX2 analytically  !
 ! D6    D(11,1,2,13)         -178.0385         calculate D2E/DX2 analytically  !
 ! D7    D(1,2,3,4)            175.5562         calculate D2E/DX2 analytically  !
 ! D8    D(1,2,3,14)            55.2691         calculate D2E/DX2 analytically  !
 ! D9    D(1,2,3,15)           -61.4533         calculate D2E/DX2 analytically  !
 ! D10   D(12,2,3,4)           -64.0582         calculate D2E/DX2 analytically  !
 ! D11   D(12,2,3,14)          175.6547         calculate D2E/DX2 analytically  !
 ! D12   D(12,2,3,15)           58.9323         calculate D2E/DX2 analytically  !
 ! D13   D(13,2,3,4)            55.3127         calculate D2E/DX2 analytically  !
 ! D14   D(13,2,3,14)          -64.9744         calculate D2E/DX2 analytically  !
 ! D15   D(13,2,3,15)          178.3032         calculate D2E/DX2 analytically  !
 ! D16   D(2,3,4,5)             67.6528         calculate D2E/DX2 analytically  !
 ! D17   D(2,3,4,16)          -171.1695         calculate D2E/DX2 analytically  !
 ! D18   D(2,3,4,17)           -55.4145         calculate D2E/DX2 analytically  !
 ! D19   D(14,3,4,5)          -171.4001         calculate D2E/DX2 analytically  !
 ! D20   D(14,3,4,16)          -50.2225         calculate D2E/DX2 analytically  !
 ! D21   D(14,3,4,17)           65.5325         calculate D2E/DX2 analytically  !
 ! D22   D(15,3,4,5)           -55.6864         calculate D2E/DX2 analytically  !
 ! D23   D(15,3,4,16)           65.4913         calculate D2E/DX2 analytically  !
 ! D24   D(15,3,4,17)         -178.7537         calculate D2E/DX2 analytically  !
 ! D25   D(3,4,5,6)           -179.6196         calculate D2E/DX2 analytically  !
 ! D26   D(3,4,5,18)            57.3756         calculate D2E/DX2 analytically  !
 ! D27   D(3,4,5,19)           -59.5966         calculate D2E/DX2 analytically  !
 ! D28   D(16,4,5,6)            60.3571         calculate D2E/DX2 analytically  !
 ! D29   D(16,4,5,18)          -62.6477         calculate D2E/DX2 analytically  !
 ! D30   D(16,4,5,19)         -179.62           calculate D2E/DX2 analytically  !
 ! D31   D(17,4,5,6)           -56.6821         calculate D2E/DX2 analytically  !
 ! D32   D(17,4,5,18)         -179.6869         calculate D2E/DX2 analytically  !
 ! D33   D(17,4,5,19)           63.3409         calculate D2E/DX2 analytically  !
 ! D34   D(4,5,6,7)            -67.752          calculate D2E/DX2 analytically  !
 ! D35   D(4,5,6,20)            55.2679         calculate D2E/DX2 analytically  !
 ! D36   D(4,5,6,21)           170.9747         calculate D2E/DX2 analytically  !
 ! D37   D(18,5,6,7)            55.3771         calculate D2E/DX2 analytically  !
 ! D38   D(18,5,6,20)          178.3969         calculate D2E/DX2 analytically  !
 ! D39   D(18,5,6,21)          -65.8962         calculate D2E/DX2 analytically  !
 ! D40   D(19,5,6,7)           171.0919         calculate D2E/DX2 analytically  !
 ! D41   D(19,5,6,20)          -65.8883         calculate D2E/DX2 analytically  !
 ! D42   D(19,5,6,21)           49.8186         calculate D2E/DX2 analytically  !
 ! D43   D(5,6,7,8)           -177.5877         calculate D2E/DX2 analytically  !
 ! D44   D(5,6,7,22)            62.2455         calculate D2E/DX2 analytically  !
 ! D45   D(5,6,7,23)           -54.759          calculate D2E/DX2 analytically  !
 ! D46   D(20,6,7,8)            59.4704         calculate D2E/DX2 analytically  !
 ! D47   D(20,6,7,22)          -60.6964         calculate D2E/DX2 analytically  !
 ! D48   D(20,6,7,23)         -177.7009         calculate D2E/DX2 analytically  !
 ! D49   D(21,6,7,8)           -57.3214         calculate D2E/DX2 analytically  !
 ! D50   D(21,6,7,22)         -177.4882         calculate D2E/DX2 analytically  !
 ! D51   D(21,6,7,23)           65.5073         calculate D2E/DX2 analytically  !
 ! D52   D(6,7,8,9)             64.7286         calculate D2E/DX2 analytically  !
 ! D53   D(6,7,8,24)           -56.9625         calculate D2E/DX2 analytically  !
 ! D54   D(6,7,8,25)          -174.5532         calculate D2E/DX2 analytically  !
 ! D55   D(22,7,8,9)          -173.9586         calculate D2E/DX2 analytically  !
 ! D56   D(22,7,8,24)           64.3504         calculate D2E/DX2 analytically  !
 ! D57   D(22,7,8,25)          -53.2404         calculate D2E/DX2 analytically  !
 ! D58   D(23,7,8,9)           -58.1035         calculate D2E/DX2 analytically  !
 ! D59   D(23,7,8,24)         -179.7945         calculate D2E/DX2 analytically  !
 ! D60   D(23,7,8,25)           62.6147         calculate D2E/DX2 analytically  !
 ! D61   D(7,8,9,26)            59.8932         calculate D2E/DX2 analytically  !
 ! D62   D(7,8,9,27)           176.0758         calculate D2E/DX2 analytically  !
 ! D63   D(24,8,9,26)         -178.0057         calculate D2E/DX2 analytically  !
 ! D64   D(24,8,9,27)          -61.8231         calculate D2E/DX2 analytically  !
 ! D65   D(25,8,9,26)          -60.9626         calculate D2E/DX2 analytically  !
 ! D66   D(25,8,9,27)           55.22           calculate D2E/DX2 analytically  !
 --------------------------------------------------------------------------------
 Trust Radius=3.00D-01 FncErr=1.00D-07 GrdErr=1.00D-06 EigMax=2.50D+02 EigMin=1.00D-04
 Number of steps in this run=    150 maximum allowed number of steps=    162.
 GradGradGradGradGradGradGradGradGradGradGradGradGradGradGradGradGradGrad

                          Input orientation:                          
 ---------------------------------------------------------------------
 Center     Atomic      Atomic             Coordinates (Angstroms)
 Number     Number       Type             X           Y           Z
 ---------------------------------------------------------------------
      1          7           0        4.616632   -0.437518   -0.476991
      2          6           0        3.335404   -0.046147    0.101969
      3          6           0        2.261682   -1.073820   -0.254383
      4          6           0        0.907544   -0.792449    0.406903
      5          6           0        0.227099    0.473735   -0.120275
      6          6           0       -1.123098    0.762467    0.546054
      7          6           0       -2.207427   -0.262909    0.197045
      8          6           0       -3.565814    0.067808    0.820397
      9          7           0       -4.120884    1.308959    0.294089
     10          1           0        5.311548    0.279531   -0.272789
     11          1           0        4.535998   -0.475686   -1.492334
     12          1           0        3.067169    0.945098   -0.275815
     13          1           0        3.442725    0.025743    1.189386
     14          1           0        2.595362   -2.068616    0.068773
     15          1           0        2.133639   -1.123251   -1.343132
     16          1           0        0.263591   -1.659062    0.220669
     17          1           0        1.036733   -0.720499    1.493522
     18          1           0        0.092942    0.399229   -1.206119
     19          1           0        0.874827    1.338839    0.060339
     20          1           0       -0.993674    0.808547    1.634201
     21          1           0       -1.446438    1.759673    0.224285
     22          1           0       -1.908415   -1.253687    0.556775
     23          1           0       -2.308502   -0.339157   -0.892818
     24          1           0       -3.468466    0.148429    1.908413
     25          1           0       -4.265030   -0.749956    0.613678
     26          1           0       -4.244917    1.228324   -0.714301
     27          1           0       -5.050232    1.456375    0.685616
 ---------------------------------------------------------------------
                    Distance matrix (angstroms):
                    1          2          3          4          5
     1  N    0.000000
     2  C    1.459421   0.000000
     3  C    2.449535   1.528390   0.000000
     4  C    3.829436   2.558214   1.533023   0.000000
     5  C    4.497291   3.159308   2.559773   1.531060   0.000000
     6  C    5.952402   4.552946   3.933115   2.561374   1.533100
     7  C    6.859490   5.547883   4.564461   3.166623   2.563251
     8  C    8.300060   6.939448   6.034748   4.574052   3.928847
     9  N    8.943653   7.580861   6.834882   5.451030   4.446825
    10  H    1.019199   2.037561   3.336702   4.583271   5.090441
    11  H    1.019255   2.041502   2.657593   4.107690   4.620666
    12  H    2.086368   1.094184   2.173776   2.854673   2.883119
    13  H    2.090330   1.095063   2.165264   2.776483   3.500879
    14  H    2.654029   2.153867   1.097902   2.142816   3.479648
    15  H    2.717661   2.166266   1.097366   2.162258   2.771396
    16  H    4.574698   3.471544   2.135544   1.095616   2.160184
    17  H    4.096178   2.770390   2.163449   1.096634   2.164726
    18  H    4.657847   3.524630   2.789105   2.164605   1.096634
    19  H    4.176754   2.823891   2.800596   2.159529   1.095709
    20  H    6.122527   4.671098   4.208016   2.772017   2.163463
    21  H    6.486929   5.112921   4.691264   3.476767   2.138477
    22  H    6.656654   5.400244   4.252063   2.857416   2.828923
    23  H    6.938305   5.738391   4.672677   3.498243   2.772524
    24  H    8.449988   7.042283   6.245493   4.721149   4.228310
    25  H    8.953831   7.650084   6.592146   5.176879   4.713314
    26  H    9.019889   7.729932   6.917169   5.646988   4.573970
    27  H    9.919009   8.539152   7.794201   6.374165   5.428192
                    6          7          8          9         10
     6  C    0.000000
     7  C    1.532636   0.000000
     8  C    2.554345   1.530737   0.000000
     9  N    3.057590   2.478205   1.457929   0.000000
    10  H    6.504491   7.553143   8.946924   9.505359   0.000000
    11  H    6.141126   6.955075   8.442954   9.017642   1.630681
    12  H    4.274011   5.431781   6.779955   7.219785   2.340988
    13  H    4.669409   5.743890   7.018372   7.723754   2.386392
    14  H    4.697848   5.132623   6.564247   7.521086   3.606678
    15  H    4.210855   4.685850   6.211542   6.907619   3.634905
    16  H    2.809375   2.838262   4.243360   5.295107   5.429872
    17  H    2.785993   3.523466   4.717835   5.670833   4.732226
    18  H    2.163518   2.774707   4.195606   4.564490   5.302761
    19  H    2.135375   3.476287   4.681079   5.001266   4.573576
    20  H    1.096785   2.164863   2.797656   3.438860   6.608501
    21  H    1.096587   2.161176   2.776601   2.713057   6.936013
    22  H    2.163727   1.095653   2.136076   3.395759   7.427435
    23  H    2.165436   1.097192   2.163691   2.722088   7.670227
    24  H    2.780973   2.165225   1.095333   2.092491   9.047844
    25  H    3.487654   2.155116   1.095615   2.088551   9.672461
    26  H    3.398716   2.684342   2.040411   1.019184   9.613593
    27  H    3.990409   3.358002   2.037101   1.019172  10.472344
                   11         12         13         14         15
    11  H    0.000000
    12  H    2.378235   0.000000
    13  H    2.939099   1.770048   0.000000
    14  H    2.956441   3.069823   2.521931   0.000000
    15  H    2.492575   2.507730   3.073684   1.760788   0.000000
    16  H    4.752707   3.858523   3.726106   2.372333   2.495926
    17  H    4.606531   3.166613   2.537355   2.505325   3.067901
    18  H    4.537416   3.163774   4.135091   3.738678   2.549738
    19  H    4.371209   2.252642   3.097268   3.817205   3.101004
    20  H    6.480875   4.489683   4.526839   4.858992   4.730374
    21  H    6.613104   4.613706   5.276537   5.569212   4.856439
    22  H    6.806951   5.503117   5.538215   4.602853   4.468205
    23  H    6.872063   5.561281   6.127425   5.288059   4.533234
    24  H    8.719291   6.936863   6.949576   6.713388   6.601007
    25  H    9.053651   7.577965   7.768051   7.007193   6.701598
    26  H    8.978500   7.330695   8.010621   7.633638   6.827248
    27  H   10.018589   8.190113   8.627329   8.441633   7.897993
                   16         17         18         19         20
    16  H    0.000000
    17  H    1.760342   0.000000
    18  H    2.510261   3.071253   0.000000
    19  H    3.063776   2.514179   1.760149   0.000000
    20  H    3.109321   2.545647   3.068500   2.499909   0.000000
    21  H    3.822559   3.732070   2.503308   2.364793   1.759972
    22  H    2.234928   3.136188   3.137732   3.835893   2.500082
    23  H    3.098010   4.126819   2.531859   3.722602   3.071127
    24  H    4.477025   4.606950   4.737810   4.867920   2.575955
    25  H    4.635659   5.374354   4.860474   5.575605   3.764594
    26  H    5.434870   6.047166   4.443682   5.179195   4.032649
    27  H    6.177284   6.514801   5.581081   5.959120   4.216060
                   21         22         23         24         25
    21  H    0.000000
    22  H    3.066645   0.000000
    23  H    2.529064   1.760044   0.000000
    24  H    3.085611   2.495319   3.070855   0.000000
    25  H    3.793985   2.410522   2.503254   1.765772   0.000000
    26  H    2.999127   3.638029   2.497712   2.940693   2.382755
    27  H    3.645840   4.151151   3.637646   2.389129   2.342992
                   26         27
    26  H    0.000000
    27  H    1.631045   0.000000
 Stoichiometry    C7H18N2
 Framework group  C1[X(C7H18N2)]
 Deg. of freedom    75
 Full point group                 C1      NOp   1
 Largest Abelian subgroup         C1      NOp   1
 Largest concise Abelian subgroup C1      NOp   1
                         Standard orientation:                         
 ---------------------------------------------------------------------
 Center     Atomic      Atomic             Coordinates (Angstroms)
 Number     Number       Type             X           Y           Z
 ---------------------------------------------------------------------
      1          7           0       -4.644322   -0.234823   -0.142513
      2          6           0       -3.269139   -0.382043    0.323438
      3          6           0       -2.394447    0.726509   -0.261371
      4          6           0       -0.955048    0.707045    0.265801
      5          6           0       -0.156032   -0.513649   -0.198552
      6          6           0        1.281042   -0.540261    0.334837
      7          6           0        2.167237    0.568310   -0.243696
      8          6           0        3.614120    0.496251    0.250768
      9          7           0        4.286181   -0.716118   -0.200956
     10          1           0       -5.205612   -1.006588    0.215397
     11          1           0       -4.671250   -0.309760   -1.158652
     12          1           0       -2.900563   -1.368062    0.024846
     13          1           0       -3.256499   -0.335046    1.417419
     14          1           0       -2.833402    1.700834   -0.009576
     15          1           0       -2.383597    0.659965   -1.356663
     16          1           0       -0.463578    1.621481   -0.084399
     17          1           0       -0.964012    0.751023    1.361517
     18          1           0       -0.142465   -0.554369   -1.294346
     19          1           0       -0.651994   -1.427775    0.146372
     20          1           0        1.268292   -0.470673    1.429338
     21          1           0        1.710298   -1.518143    0.085859
     22          1           0        1.766627    1.547652    0.040657
     23          1           0        2.147580    0.524488   -1.339837
     24          1           0        3.637889    0.536034    1.345121
     25          1           0        4.164968    1.367372   -0.120831
     26          1           0        4.296595   -0.742745   -1.219739
     27          1           0        5.261309   -0.692071    0.094439
 ---------------------------------------------------------------------
 Rotational constants (GHZ):           6.3849866           0.4221577           0.4108801
 Standard basis: 6-31G(d,p) (6D, 7F)
 There are   225 symmetry adapted cartesian basis functions of A   symmetry.
 There are   225 symmetry adapted basis functions of A   symmetry.
   225 basis functions,   378 primitive gaussians,   225 cartesian basis functions
    37 alpha electrons       37 beta electrons
       nuclear repulsion energy       461.4045338597 Hartrees.
 NAtoms=   27 NActive=   27 NUniq=   27 SFac= 1.00D+00 NAtFMM=   60 NAOKFM=F Big=F
 Integral buffers will be    131072 words long.
 Raffenetti 2 integral format.
 Two-electron integral symmetry is turned on.
 Force inversion solution in PCM.
 ------------------------------------------------------------------------------
 Polarizable Continuum Model (PCM)
 =================================
 Model                : PCM.
 Atomic radii         : UFF (Universal Force Field).
 Polarization charges : Total charges.
 Charge compensation  : None.
 Solution method      : Matrix inversion.
 Cavity type          : Scaled VdW (van der Waals Surface) (Alpha=1.100).
 Cavity algorithm     : GePol (No added spheres)
                        Default sphere list used, NSphG=   27.
                        Lebedev-Laikov grids with approx.  5.0 points / Ang**2.
                        Smoothing algorithm: York/Karplus (Gamma=1.0000).
                        Polarization charges: spherical gaussians, with
                                              point-specific exponents (IZeta= 3).
                        Self-potential: point-specific (ISelfS= 7).
                        Self-field    : sphere-specific E.n sum rule (ISelfD= 2).
 1st derivatives      : Analytical E(r).r(x)/FMM algorithm (CHGder, D1EAlg=3).
                        Cavity 1st derivative terms included.
 2nd derivatives      : Analytical E(r).r(xy)/FMM algorithm (CHGder, D2EAlg=3).
                        Cavity 2nd derivative terms included.
 Solvent              : Water, Eps=  78.355300 Eps(inf)=   1.777849
 ------------------------------------------------------------------------------
 One-electron integrals computed using PRISM.
 NBasis=   225 RedAO= T EigKep=  2.75D-03  NBF=   225
 NBsUse=   225 1.00D-06 EigRej= -1.00D+00 NBFU=   225
 ExpMin= 1.61D-01 ExpMax= 4.17D+03 ExpMxC= 6.27D+02 IAcc=3 IRadAn=         5 AccDes= 0.00D+00
 Harris functional with IExCor=  402 and IRadAn=       5 diagonalized for initial guess.
 HarFok:  IExCor=  402 AccDes= 0.00D+00 IRadAn=         5 IDoV= 1 UseB2=F ITyADJ=14
 ICtDFT=  3500011 ScaDFX=  1.000000  1.000000  1.000000  1.000000
 FoFCou: FMM=F IPFlag=           0 FMFlag=      100000 FMFlg1=           0
         NFxFlg=           0 DoJE=T BraDBF=F KetDBF=T FulRan=T
         wScrn=  0.000000 ICntrl=       500 IOpCl=  0 I1Cent=   200000004 NGrid=           0
         NMat0=    1 NMatS0=      1 NMatT0=    0 NMatD0=    1 NMtDS0=    0 NMtDT0=    0
 Petite list used in FoFCou.
 Keep R1 ints in memory in canonical form, NReq=329001147.
 Requested convergence on RMS density matrix=1.00D-08 within  32 cycles.
 Requested convergence on MAX density matrix=1.00D-06.
 Requested convergence on             energy=1.00D-06.
 No special actions if energy rises.
 Inv3:  Mode=1 IEnd=    10278603.
 Iteration    1 A*A^-1 deviation from unit magnitude is 7.11D-15 for     26.
 Iteration    1 A*A^-1 deviation from orthogonality  is 3.64D-15 for   1499    373.
 Iteration    1 A^-1*A deviation from unit magnitude is 7.11D-15 for     26.
 Iteration    1 A^-1*A deviation from orthogonality  is 4.31D-15 for   1588    993.
 Error on total polarization charges =  0.00960
 SCF Done:  E(RB3LYP) =  -387.111940040     A.U. after   11 cycles
            NFock= 11  Conv=0.17D-08     -V/T= 2.0096
 QCSCF skips out because SCF is already converged.
 DoSCS=F DFT=T ScalE2(SS,OS)=  1.000000  1.000000
 Range of M.O.s used for correlation:     1   225
 NBasis=   225 NAE=    37 NBE=    37 NFC=     0 NFV=     0
 NROrb=    225 NOA=    37 NOB=    37 NVA=   188 NVB=   188
 Symmetrizing basis deriv contribution to polar:
 IMax=3 JMax=2 DiffMx= 0.00D+00
 G2DrvN: will do    28 centers at a time, making    1 passes.
 Calling FoFCou, ICntrl=  3107 FMM=F I1Cent=   0 AccDes= 0.00D+00.
 NEqPCM:  Using equilibrium solvation (IEInf=0, Eps=  78.3553, EpsInf=   1.7778)
 G2PCM: DoFxE=T DoFxN=T DoGrad=T DoDP/DQ/DG/TGxP=FFFF NFrqRd=   0 IEInf=0 SqF1=F DoCFld=F IF1Alg=4.
 End of G2Drv F.D. properties file   721 does not exist.
 End of G2Drv F.D. properties file   722 does not exist.
 End of G2Drv F.D. properties file   788 does not exist.
          IDoAtm=111111111111111111111111111
 NEqPCM:  Using equilibrium solvation (IEInf=0, Eps=  78.3553, EpsInf=   1.7778)
          Differentiating once with respect to nuclear coordinates.
 Keep R1 ints in memory in canonical form, NReq=332284718.
          There are    84 degrees of freedom in the 1st order CPHF.  IDoFFX=6 NUNeed=     0.
     78 vectors produced by pass  0 Test12= 8.28D-15 1.19D-09 XBig12= 8.43D-02 7.46D-02.
 AX will form    78 AO Fock derivatives at one time.
     78 vectors produced by pass  1 Test12= 8.28D-15 1.19D-09 XBig12= 4.27D-03 1.44D-02.
     78 vectors produced by pass  2 Test12= 8.28D-15 1.19D-09 XBig12= 4.90D-05 9.85D-04.
     78 vectors produced by pass  3 Test12= 8.28D-15 1.19D-09 XBig12= 1.07D-07 4.50D-05.
     78 vectors produced by pass  4 Test12= 8.28D-15 1.19D-09 XBig12= 9.22D-11 1.01D-06.
     28 vectors produced by pass  5 Test12= 8.28D-15 1.19D-09 XBig12= 5.95D-14 2.48D-08.
 InvSVY:  IOpt=1 It=  1 EMax= 3.89D-16
 Solved reduced A of dimension   418 with    84 vectors.
 End of Minotr F.D. properties file   721 does not exist.
 End of Minotr F.D. properties file   722 does not exist.
 End of Minotr F.D. properties file   788 does not exist.

 **********************************************************************

            Population analysis using the SCF density.

 **********************************************************************

 Orbital symmetries:
       Occupied  (A) (A) (A) (A) (A) (A) (A) (A) (A) (A) (A) (A)
                 (A) (A) (A) (A) (A) (A) (A) (A) (A) (A) (A) (A)
                 (A) (A) (A) (A) (A) (A) (A) (A) (A) (A) (A) (A)
                 (A)
       Virtual   (A) (A) (A) (A) (A) (A) (A) (A) (A) (A) (A) (A)
                 (A) (A) (A) (A) (A) (A) (A) (A) (A) (A) (A) (A)
                 (A) (A) (A) (A) (A) (A) (A) (A) (A) (A) (A) (A)
                 (A) (A) (A) (A) (A) (A) (A) (A) (A) (A) (A) (A)
                 (A) (A) (A) (A) (A) (A) (A) (A) (A) (A) (A) (A)
                 (A) (A) (A) (A) (A) (A) (A) (A) (A) (A) (A) (A)
                 (A) (A) (A) (A) (A) (A) (A) (A) (A) (A) (A) (A)
                 (A) (A) (A) (A) (A) (A) (A) (A) (A) (A) (A) (A)
                 (A) (A) (A) (A) (A) (A) (A) (A) (A) (A) (A) (A)
                 (A) (A) (A) (A) (A) (A) (A) (A) (A) (A) (A) (A)
                 (A) (A) (A) (A) (A) (A) (A) (A) (A) (A) (A) (A)
                 (A) (A) (A) (A) (A) (A) (A) (A) (A) (A) (A) (A)
                 (A) (A) (A) (A) (A) (A) (A) (A) (A) (A) (A) (A)
                 (A) (A) (A) (A) (A) (A) (A) (A) (A) (A) (A) (A)
                 (A) (A) (A) (A) (A) (A) (A) (A) (A) (A) (A) (A)
                 (A) (A) (A) (A) (A) (A) (A) (A)
 The electronic state is 1-A.
 Alpha  occ. eigenvalues --  -14.30425 -14.30383 -10.19754 -10.19680 -10.17250
 Alpha  occ. eigenvalues --  -10.17250 -10.17170 -10.16999 -10.16880  -0.87404
 Alpha  occ. eigenvalues --   -0.87353  -0.79697  -0.75437  -0.70090  -0.64660
 Alpha  occ. eigenvalues --   -0.60505  -0.57565  -0.55568  -0.48342  -0.47350
 Alpha  occ. eigenvalues --   -0.45885  -0.45586  -0.44235  -0.43168  -0.40869
 Alpha  occ. eigenvalues --   -0.40159  -0.38735  -0.37283  -0.34958  -0.34471
 Alpha  occ. eigenvalues --   -0.33588  -0.32576  -0.31793  -0.30608  -0.30048
 Alpha  occ. eigenvalues --   -0.22830  -0.22639
 Alpha virt. eigenvalues --    0.08601   0.09269   0.10176   0.11828   0.11907
 Alpha virt. eigenvalues --    0.13221   0.14021   0.15544   0.16057   0.16880
 Alpha virt. eigenvalues --    0.17584   0.18437   0.19005   0.19780   0.20005
 Alpha virt. eigenvalues --    0.20292   0.21405   0.23128   0.24482   0.25134
 Alpha virt. eigenvalues --    0.25648   0.26348   0.27842   0.28355   0.29017
 Alpha virt. eigenvalues --    0.31196   0.50761   0.51674   0.52136   0.52939
 Alpha virt. eigenvalues --    0.53808   0.55280   0.57220   0.58735   0.60222
 Alpha virt. eigenvalues --    0.63869   0.65167   0.66936   0.67650   0.69452
 Alpha virt. eigenvalues --    0.70405   0.71652   0.72717   0.73085   0.74391
 Alpha virt. eigenvalues --    0.77055   0.78868   0.80185   0.81529   0.83919
 Alpha virt. eigenvalues --    0.86198   0.86507   0.86803   0.87407   0.87880
 Alpha virt. eigenvalues --    0.88395   0.89487   0.91220   0.92176   0.92944
 Alpha virt. eigenvalues --    0.93455   0.94582   0.95468   0.96460   0.96682
 Alpha virt. eigenvalues --    0.98883   0.99939   1.01341   1.02473   1.03109
 Alpha virt. eigenvalues --    1.10805   1.14767   1.16431   1.26347   1.28411
 Alpha virt. eigenvalues --    1.30187   1.34110   1.36945   1.38877   1.40873
 Alpha virt. eigenvalues --    1.45430   1.52746   1.54997   1.60710   1.63361
 Alpha virt. eigenvalues --    1.63993   1.65280   1.68467   1.69793   1.72637
 Alpha virt. eigenvalues --    1.76197   1.77424   1.79236   1.80827   1.83955
 Alpha virt. eigenvalues --    1.84625   1.86277   1.88688   1.89427   1.91507
 Alpha virt. eigenvalues --    1.92571   1.95191   2.00383   2.01590   2.04185
 Alpha virt. eigenvalues --    2.06879   2.07422   2.09736   2.10037   2.11505
 Alpha virt. eigenvalues --    2.13423   2.13963   2.17044   2.17213   2.18660
 Alpha virt. eigenvalues --    2.23004   2.23925   2.24802   2.25967   2.26578
 Alpha virt. eigenvalues --    2.29117   2.29237   2.30310   2.31869   2.33012
 Alpha virt. eigenvalues --    2.35279   2.37289   2.39247   2.40636   2.43459
 Alpha virt. eigenvalues --    2.46597   2.48871   2.50018   2.54524   2.57500
 Alpha virt. eigenvalues --    2.60353   2.61177   2.61625   2.62645   2.62718
 Alpha virt. eigenvalues --    2.67337   2.68832   2.72400   2.75022   2.75613
 Alpha virt. eigenvalues --    2.77909   2.79798   2.82088   2.84911   2.85667
 Alpha virt. eigenvalues --    2.86125   2.86749   2.89761   2.91241   2.92273
 Alpha virt. eigenvalues --    2.93200   2.94313   2.95845   2.97607   2.98527
 Alpha virt. eigenvalues --    3.00102   3.22632   3.24776   3.28503   3.30501
 Alpha virt. eigenvalues --    3.31064   3.31924   3.33027   3.35184   3.37068
 Alpha virt. eigenvalues --    3.39266   3.44636   3.47244   3.49789   3.52352
 Alpha virt. eigenvalues --    3.54630   3.57349   3.58929   3.60384   3.99641
 Alpha virt. eigenvalues --    4.01295   4.28281   4.37344   4.47108   4.56676
 Alpha virt. eigenvalues --    4.64045   4.69201   4.77280
          Condensed to atoms (all electrons):
               1          2          3          4          5          6
     1  N    6.822999   0.291897  -0.053761   0.003332   0.000135  -0.000001
     2  C    0.291897   4.791514   0.381666  -0.038787  -0.005684   0.000168
     3  C   -0.053761   0.381666   4.938951   0.355389  -0.039677   0.003798
     4  C    0.003332  -0.038787   0.355389   4.917742   0.379693  -0.040655
     5  C    0.000135  -0.005684  -0.039677   0.379693   4.919834   0.364404
     6  C   -0.000001   0.000168   0.003798  -0.040655   0.364404   4.916152
     7  C    0.000000  -0.000000   0.000157  -0.005237  -0.040856   0.374129
     8  C   -0.000000   0.000000  -0.000000   0.000141   0.003863  -0.039546
     9  N    0.000000  -0.000000   0.000000  -0.000006   0.000121  -0.004644
    10  H    0.337564  -0.033820   0.005836  -0.000242   0.000004  -0.000000
    11  H    0.341074  -0.039047  -0.005734  -0.000067  -0.000014  -0.000000
    12  H   -0.053161   0.390754  -0.046700  -0.000428   0.000962  -0.000034
    13  H   -0.041579   0.385370  -0.033605  -0.004239  -0.000454  -0.000039
    14  H    0.005202  -0.040111   0.368410  -0.029616   0.004794  -0.000151
    15  H   -0.002969  -0.040002   0.382117  -0.036230  -0.007710   0.000076
    16  H   -0.000114   0.004766  -0.031543   0.380155  -0.040345  -0.005125
    17  H    0.000038  -0.008465  -0.038155   0.382450  -0.041371  -0.003610
    18  H   -0.000018  -0.000696  -0.003661  -0.041699   0.381294  -0.037951
    19  H   -0.000136   0.002285  -0.005388  -0.041318   0.378991  -0.032804
    20  H   -0.000000  -0.000021   0.000096  -0.008218  -0.038042   0.380685
    21  H   -0.000000  -0.000004  -0.000167   0.004637  -0.033585   0.377068
    22  H   -0.000000  -0.000001  -0.000145   0.001961  -0.004477  -0.037699
    23  H   -0.000000   0.000000  -0.000023  -0.000689  -0.003891  -0.043128
    24  H   -0.000000   0.000000  -0.000000  -0.000009   0.000039  -0.008846
    25  H    0.000000   0.000000  -0.000000  -0.000007  -0.000132   0.005796
    26  H   -0.000000   0.000000  -0.000000   0.000001  -0.000043  -0.000423
    27  H   -0.000000   0.000000  -0.000000   0.000000   0.000002   0.000171
               7          8          9         10         11         12
     1  N    0.000000  -0.000000   0.000000   0.337564   0.341074  -0.053161
     2  C   -0.000000   0.000000  -0.000000  -0.033820  -0.039047   0.390754
     3  C    0.000157  -0.000000   0.000000   0.005836  -0.005734  -0.046700
     4  C   -0.005237   0.000141  -0.000006  -0.000242  -0.000067  -0.000428
     5  C   -0.040856   0.003863   0.000121   0.000004  -0.000014   0.000962
     6  C    0.374129  -0.039546  -0.004644  -0.000000  -0.000000  -0.000034
     7  C    4.936869   0.372500  -0.055782   0.000000   0.000000  -0.000003
     8  C    0.372500   4.795395   0.297794   0.000000  -0.000000  -0.000000
     9  N   -0.055782   0.297794   6.806781  -0.000000  -0.000000   0.000000
    10  H    0.000000   0.000000  -0.000000   0.482456  -0.032176  -0.003740
    11  H    0.000000  -0.000000  -0.000000  -0.032176   0.482278  -0.005001
    12  H   -0.000003  -0.000000   0.000000  -0.003740  -0.005001   0.675038
    13  H    0.000001  -0.000000  -0.000000  -0.003308   0.006653  -0.049152
    14  H   -0.000003  -0.000000   0.000000  -0.000043  -0.000728   0.006967
    15  H   -0.000019  -0.000000   0.000000  -0.000036   0.005470  -0.007594
    16  H    0.002269  -0.000146  -0.000001   0.000004   0.000003  -0.000097
    17  H   -0.000731  -0.000023   0.000000  -0.000001   0.000017  -0.000222
    18  H   -0.008324   0.000087   0.000005  -0.000000  -0.000000   0.000506
    19  H    0.004741  -0.000161   0.000001   0.000004  -0.000000   0.003820
    20  H   -0.041877  -0.003274  -0.000184  -0.000000  -0.000000   0.000015
    21  H   -0.041341  -0.007247   0.013676   0.000000   0.000000   0.000009
    22  H    0.377073  -0.031786   0.003983   0.000000   0.000000  -0.000000
    23  H    0.382003  -0.036864  -0.005630   0.000000  -0.000000   0.000000
    24  H   -0.031172   0.384902  -0.043922   0.000000   0.000000  -0.000000
    25  H   -0.044455   0.385582  -0.054687   0.000000   0.000000   0.000000
    26  H   -0.005386  -0.039013   0.340424   0.000000   0.000000  -0.000000
    27  H    0.005880  -0.033299   0.339141   0.000000   0.000000  -0.000000
              13         14         15         16         17         18
     1  N   -0.041579   0.005202  -0.002969  -0.000114   0.000038  -0.000018
     2  C    0.385370  -0.040111  -0.040002   0.004766  -0.008465  -0.000696
     3  C   -0.033605   0.368410   0.382117  -0.031543  -0.038155  -0.003661
     4  C   -0.004239  -0.029616  -0.036230   0.380155   0.382450  -0.041699
     5  C   -0.000454   0.004794  -0.007710  -0.040345  -0.041371   0.381294
     6  C   -0.000039  -0.000151   0.000076  -0.005125  -0.003610  -0.037951
     7  C    0.000001  -0.000003  -0.000019   0.002269  -0.000731  -0.008324
     8  C   -0.000000  -0.000000  -0.000000  -0.000146  -0.000023   0.000087
     9  N   -0.000000   0.000000   0.000000  -0.000001   0.000000   0.000005
    10  H   -0.003308  -0.000043  -0.000036   0.000004  -0.000001  -0.000000
    11  H    0.006653  -0.000728   0.005470   0.000003   0.000017  -0.000000
    12  H   -0.049152   0.006967  -0.007594  -0.000097  -0.000222   0.000506
    13  H    0.636643  -0.007044   0.005946   0.000026   0.005785   0.000059
    14  H   -0.007044   0.651311  -0.039923  -0.005464  -0.002914   0.000047
    15  H    0.005946  -0.039923   0.641239  -0.003196   0.006030   0.005607
    16  H    0.000026  -0.005464  -0.003196   0.641346  -0.038865  -0.005823
    17  H    0.005785  -0.002914   0.006030  -0.038865   0.643263   0.006143
    18  H    0.000059   0.000047   0.005607  -0.005823   0.006143   0.646228
    19  H    0.000217   0.000026  -0.000267   0.006099  -0.005636  -0.038805
    20  H   -0.000001   0.000001   0.000010  -0.000165   0.005742   0.006093
    21  H   -0.000000   0.000003   0.000001  -0.000013   0.000054  -0.002665
    22  H    0.000000   0.000010   0.000014   0.002531   0.000498  -0.000127
    23  H   -0.000000  -0.000000   0.000000   0.000569   0.000068   0.005795
    24  H   -0.000000   0.000000  -0.000000   0.000015  -0.000001   0.000009
    25  H    0.000000   0.000000   0.000000   0.000008   0.000000   0.000003
    26  H    0.000000   0.000000  -0.000000   0.000000  -0.000000  -0.000002
    27  H   -0.000000   0.000000  -0.000000  -0.000000  -0.000000  -0.000000
              19         20         21         22         23         24
     1  N   -0.000136  -0.000000  -0.000000  -0.000000  -0.000000  -0.000000
     2  C    0.002285  -0.000021  -0.000004  -0.000001   0.000000   0.000000
     3  C   -0.005388   0.000096  -0.000167  -0.000145  -0.000023  -0.000000
     4  C   -0.041318  -0.008218   0.004637   0.001961  -0.000689  -0.000009
     5  C    0.378991  -0.038042  -0.033585  -0.004477  -0.003891   0.000039
     6  C   -0.032804   0.380685   0.377068  -0.037699  -0.043128  -0.008846
     7  C    0.004741  -0.041877  -0.041341   0.377073   0.382003  -0.031172
     8  C   -0.000161  -0.003274  -0.007247  -0.031786  -0.036864   0.384902
     9  N    0.000001  -0.000184   0.013676   0.003983  -0.005630  -0.043922
    10  H    0.000004  -0.000000   0.000000   0.000000   0.000000   0.000000
    11  H   -0.000000  -0.000000   0.000000   0.000000  -0.000000   0.000000
    12  H    0.003820   0.000015   0.000009  -0.000000   0.000000  -0.000000
    13  H    0.000217  -0.000001  -0.000000   0.000000  -0.000000  -0.000000
    14  H    0.000026   0.000001   0.000003   0.000010  -0.000000   0.000000
    15  H   -0.000267   0.000010   0.000001   0.000014   0.000000  -0.000000
    16  H    0.006099  -0.000165  -0.000013   0.002531   0.000569   0.000015
    17  H   -0.005636   0.005742   0.000054   0.000498   0.000068  -0.000001
    18  H   -0.038805   0.006093  -0.002665  -0.000127   0.005795   0.000009
    19  H    0.645619  -0.002835  -0.004714  -0.000012   0.000059   0.000001
    20  H   -0.002835   0.648570  -0.037325  -0.005788   0.006066   0.005192
    21  H   -0.004714  -0.037325   0.640509   0.006060  -0.005320  -0.000717
    22  H   -0.000012  -0.005788   0.006060   0.632372  -0.037264  -0.003090
    23  H    0.000059   0.006066  -0.005320  -0.037264   0.640703   0.005935
    24  H    0.000001   0.005192  -0.000717  -0.003090   0.005935   0.638527
    25  H    0.000003  -0.000003   0.000391  -0.000990  -0.005254  -0.048679
    26  H    0.000000   0.000064  -0.000262  -0.000118   0.005892   0.006714
    27  H   -0.000000  -0.000026  -0.000284  -0.000253   0.000016  -0.003299
              25         26         27
     1  N    0.000000  -0.000000  -0.000000
     2  C    0.000000   0.000000   0.000000
     3  C   -0.000000  -0.000000  -0.000000
     4  C   -0.000007   0.000001   0.000000
     5  C   -0.000132  -0.000043   0.000002
     6  C    0.005796  -0.000423   0.000171
     7  C   -0.044455  -0.005386   0.005880
     8  C    0.385582  -0.039013  -0.033299
     9  N   -0.054687   0.340424   0.339141
    10  H    0.000000   0.000000   0.000000
    11  H    0.000000   0.000000   0.000000
    12  H    0.000000  -0.000000  -0.000000
    13  H    0.000000   0.000000  -0.000000
    14  H    0.000000   0.000000   0.000000
    15  H    0.000000  -0.000000  -0.000000
    16  H    0.000008   0.000000  -0.000000
    17  H    0.000000  -0.000000  -0.000000
    18  H    0.000003  -0.000002  -0.000000
    19  H    0.000003   0.000000  -0.000000
    20  H   -0.000003   0.000064  -0.000026
    21  H    0.000391  -0.000262  -0.000284
    22  H   -0.000990  -0.000118  -0.000253
    23  H   -0.005254   0.005892   0.000016
    24  H   -0.048679   0.006714  -0.003299
    25  H    0.694879  -0.004985  -0.004514
    26  H   -0.004985   0.482142  -0.032207
    27  H   -0.004514  -0.032207   0.479077
 Mulliken charges:
               1
     1  N   -0.650501
     2  C   -0.041781
     3  C   -0.177862
     4  C   -0.178054
     5  C   -0.177856
     6  C   -0.167790
     7  C   -0.180434
     8  C   -0.048907
     9  N   -0.637070
    10  H    0.247500
    11  H    0.247272
    12  H    0.088062
    13  H    0.098720
    14  H    0.089228
    15  H    0.091437
    16  H    0.093106
    17  H    0.089909
    18  H    0.087896
    19  H    0.090211
    20  H    0.085225
    21  H    0.091237
    22  H    0.097250
    23  H    0.090958
    24  H    0.098399
    25  H    0.077047
    26  H    0.247203
    27  H    0.249595
 Sum of Mulliken charges =  -0.00000
 Mulliken charges with hydrogens summed into heavy atoms:
               1
     1  N   -0.155729
     2  C    0.145000
     3  C    0.002803
     4  C    0.004961
     5  C    0.000251
     6  C    0.008672
     7  C    0.007774
     8  C    0.126539
     9  N   -0.140272
 APT charges:
               1
     1  N   -1.543533
     2  C   -0.330449
     3  C   -0.767838
     4  C   -0.600710
     5  C   -0.633123
     6  C   -0.693825
     7  C   -0.529312
     8  C   -0.743824
     9  N   -1.685402
    10  H    0.846440
    11  H    0.469539
    12  H    0.237604
    13  H    0.337384
    14  H    0.441405
    15  H    0.293059
    16  H    0.302061
    17  H    0.315548
    18  H    0.300705
    19  H    0.336139
    20  H    0.305047
    21  H    0.367766
    22  H    0.244373
    23  H    0.295729
    24  H    0.347288
    25  H    0.541175
    26  H    0.472200
    27  H    1.074551
 Sum of APT charges =  -0.00000
 APT charges with hydrogens summed into heavy atoms:
               1
     1  N   -0.227554
     2  C    0.244539
     3  C   -0.033374
     4  C    0.016899
     5  C    0.003722
     6  C   -0.021011
     7  C    0.010790
     8  C    0.144639
     9  N   -0.138651
 Electronic spatial extent (au):  <R**2>=           2735.5023
 Charge=              0.0000 electrons
 Dipole moment (field-independent basis, Debye):
    X=              1.4420    Y=             -0.2680    Z=             -1.2484  Tot=              1.9261
 Quadrupole moment (field-independent basis, Debye-Ang):
   XX=            -55.8708   YY=            -61.3665   ZZ=            -55.9509
   XY=             11.6057   XZ=             -0.3217   YZ=              0.7968
 Traceless Quadrupole moment (field-independent basis, Debye-Ang):
   XX=              1.8586   YY=             -3.6371   ZZ=              1.7785
   XY=             11.6057   XZ=             -0.3217   YZ=              0.7968
 Octapole moment (field-independent basis, Debye-Ang**2):
  XXX=             87.1799  YYY=              0.0497  ZZZ=             -4.8844  XYY=            -12.0873
  XXY=            -31.5727  XXZ=            -24.5471  XZZ=             -0.4412  YZZ=             -2.3235
  YYZ=             -0.8824  XYZ=              3.8757
 Hexadecapole moment (field-independent basis, Debye-Ang**3):
 XXXX=          -2909.1735 YYYY=           -245.7168 ZZZZ=           -137.2731 XXXY=            230.1221
 XXXZ=             13.2852 YYYX=             19.4735 YYYZ=              1.3730 ZZZX=             -1.1821
 ZZZY=              3.4845 XXYY=           -587.1095 XXZZ=           -494.2119 YYZZ=            -66.3152
 XXYZ=             11.2750 YYXZ=             -5.8972 ZZXY=             -1.1968
 N-N= 4.614045338597D+02 E-N=-1.819875373719D+03  KE= 3.834259623039D+02
  Exact polarizability:   0.000   0.000   0.000   0.000   0.000   0.000
 Approx polarizability: 121.578   0.201 113.658   0.907   0.624 121.284
 D2PCM: PCM CHGder 2nd derivatives, FixD1E=F FixD2E=F DoIter=F DoCFld=F I1PDM=0
 Calling FoFJK, ICntrl=    100147 FMM=F ISym2X=0 I1Cent= 0 IOpClX= 0 NMat=1 NMatS=1 NMatT=0.
 ***** Axes restored to original set *****
 -------------------------------------------------------------------
 Center     Atomic                   Forces (Hartrees/Bohr)
 Number     Number              X              Y              Z
 -------------------------------------------------------------------
      1        7           0.012873318   -0.008093854    0.002190959
      2        6           0.001417551    0.000100418   -0.009921938
      3        6          -0.001839506   -0.001174803    0.007954554
      4        6           0.000643004   -0.000989027   -0.007740216
      5        6          -0.000961054    0.001637216    0.007933572
      6        6           0.000437455    0.001924742   -0.007766111
      7        6          -0.000837010    0.002955159    0.007876316
      8        6          -0.004982862   -0.006364328   -0.007920658
      9        7           0.000734985    0.014936271    0.001037965
     10        1          -0.000496870   -0.000859903   -0.002093005
     11        1          -0.000157566    0.002034646    0.001113600
     12        1          -0.008682902    0.004518540    0.003627841
     13        1           0.000012397   -0.000220525    0.001184033
     14        1           0.003359946    0.000965742   -0.001242250
     15        1           0.000784125    0.000604203   -0.001129279
     16        1          -0.001324903   -0.000104652    0.001495436
     17        1          -0.000218572    0.000137072    0.001326944
     18        1           0.000272312   -0.000197005   -0.001464897
     19        1           0.001571656   -0.000014911   -0.001545657
     20        1          -0.000146674   -0.000052829    0.001369794
     21        1          -0.002887513   -0.000896294    0.001847566
     22        1          -0.000288976   -0.000931218   -0.000949983
     23        1          -0.000689606   -0.000145378   -0.001253943
     24        1           0.000204531    0.001040348    0.000968331
     25        1           0.001191678   -0.009343051    0.003558452
     26        1          -0.001109176   -0.001367259    0.001347010
     27        1           0.001120233   -0.000099319   -0.001804437
 -------------------------------------------------------------------
 Cartesian Forces:  Max     0.014936271 RMS     0.004009641
 FormGI is forming the generalized inverse of G from B-inverse, IUseBI=4.

 GradGradGradGradGradGradGradGradGradGradGradGradGradGradGradGradGradGrad
 Berny optimization.
 Internal  Forces:  Max     0.012103651 RMS     0.002640190
 Search for a local minimum.
 Step number   1 out of a maximum of  150
 All quantities printed in internal units (Hartrees-Bohrs-Radians)
 Mixed Optimization -- RFO/linear search
 Second derivative matrix not updated -- analytic derivatives used.
 ITU=  0
     Eigenvalues ---    0.00086   0.00138   0.00196   0.00235   0.00261
     Eigenvalues ---    0.00330   0.00353   0.00385   0.03188   0.03262
     Eigenvalues ---    0.03330   0.03480   0.03682   0.03889   0.03946
     Eigenvalues ---    0.03959   0.04020   0.04057   0.04244   0.04316
     Eigenvalues ---    0.04627   0.04649   0.05218   0.05299   0.06817
     Eigenvalues ---    0.06922   0.06939   0.07321   0.07458   0.08290
     Eigenvalues ---    0.08401   0.09577   0.10216   0.10781   0.12051
     Eigenvalues ---    0.12513   0.13040   0.13457   0.14969   0.15139
     Eigenvalues ---    0.16910   0.17076   0.17928   0.19428   0.21401
     Eigenvalues ---    0.22653   0.22911   0.23999   0.24332   0.27471
     Eigenvalues ---    0.27845   0.28883   0.30194   0.31542   0.31971
     Eigenvalues ---    0.32341   0.32650   0.32814   0.32874   0.32988
     Eigenvalues ---    0.33113   0.33153   0.33276   0.33471   0.33557
     Eigenvalues ---    0.33785   0.34039   0.34430   0.34505   0.37918
     Eigenvalues ---    0.38142   0.43934   0.43956   0.44230   0.44240
 RFO step:  Lambda=-5.42156718D-03 EMin= 8.64518817D-04
 Linear search not attempted -- first point.
 Iteration  1 RMS(Cart)=  0.03392028 RMS(Int)=  0.00045100
 Iteration  2 RMS(Cart)=  0.00047710 RMS(Int)=  0.00020721
 Iteration  3 RMS(Cart)=  0.00000034 RMS(Int)=  0.00020721
 Variable       Old X    -DE/DX   Delta X   Delta X   Delta X     New X
                                 (Linear)    (Quad)   (Total)
    R1        2.75791   0.01210   0.00000   0.02452   0.02452   2.78243
    R2        1.92601  -0.00136   0.00000  -0.00120  -0.00120   1.92481
    R3        1.92611  -0.00117   0.00000   0.00045   0.00045   1.92656
    R4        2.88824   0.00088   0.00000   0.00465   0.00465   2.89289
    R5        2.06771   0.00497   0.00000   0.01436   0.01436   2.08206
    R6        2.06937   0.00116   0.00000   0.00514   0.00514   2.07451
    R7        2.89699   0.00609   0.00000   0.00860   0.00860   2.90559
    R8        2.07473  -0.00022   0.00000  -0.00116  -0.00116   2.07358
    R9        2.07372   0.00100   0.00000   0.00493   0.00493   2.07865
   R10        2.89328   0.00428   0.00000   0.01071   0.01071   2.90400
   R11        2.07042   0.00061   0.00000   0.00199   0.00199   2.07240
   R12        2.07234   0.00130   0.00000   0.00562   0.00562   2.07796
   R13        2.89714   0.00597   0.00000   0.00882   0.00882   2.90596
   R14        2.07234   0.00143   0.00000   0.00599   0.00599   2.07833
   R15        2.07059   0.00066   0.00000   0.00227   0.00227   2.07286
   R16        2.89626   0.00218   0.00000   0.00395   0.00395   2.90021
   R17        2.07262   0.00134   0.00000   0.00577   0.00577   2.07839
   R18        2.07225  -0.00051   0.00000  -0.00231  -0.00231   2.06994
   R19        2.89267   0.00112   0.00000   0.00380   0.00380   2.89647
   R20        2.07048   0.00045   0.00000   0.00213   0.00213   2.07262
   R21        2.07339   0.00132   0.00000   0.00596   0.00596   2.07935
   R22        2.75509   0.01098   0.00000   0.02542   0.02542   2.78051
   R23        2.06988   0.00106   0.00000   0.00457   0.00457   2.07445
   R24        2.07041   0.00554   0.00000   0.01397   0.01397   2.08439
   R25        1.92598  -0.00109   0.00000   0.00040   0.00040   1.92638
   R26        1.92596  -0.00173   0.00000  -0.00176  -0.00176   1.92420
    A1        1.90755   0.00170   0.00000  -0.00508  -0.00524   1.90232
    A2        1.91322  -0.00199   0.00000  -0.01888  -0.01903   1.89419
    A3        1.85446  -0.00106   0.00000  -0.02164  -0.02199   1.83247
    A4        1.92190   0.00146   0.00000   0.00686   0.00652   1.92842
    A5        1.89778   0.00665   0.00000   0.06755   0.06762   1.96540
    A6        1.90234  -0.00228   0.00000  -0.01841  -0.01827   1.88407
    A7        1.93522  -0.00443   0.00000  -0.01807  -0.01910   1.91612
    A8        1.92252  -0.00060   0.00000  -0.01597  -0.01627   1.90625
    A9        1.88326  -0.00074   0.00000  -0.02158  -0.02186   1.86141
   A10        1.97856   0.00571   0.00000   0.02402   0.02402   2.00258
   A11        1.90403  -0.00393   0.00000  -0.02156  -0.02205   1.88198
   A12        1.92153  -0.00218   0.00000  -0.01760  -0.01772   1.90380
   A13        1.88367   0.00115   0.00000   0.02307   0.02320   1.90688
   A14        1.91046  -0.00174   0.00000  -0.00333  -0.00314   1.90732
   A15        1.86155   0.00077   0.00000  -0.00565  -0.00599   1.85556
   A16        1.97777   0.00580   0.00000   0.02334   0.02327   2.00103
   A17        1.87619  -0.00060   0.00000   0.00901   0.00891   1.88510
   A18        1.91283  -0.00187   0.00000  -0.00596  -0.00585   1.90698
   A19        1.91176  -0.00202   0.00000  -0.00444  -0.00474   1.90703
   A20        1.91694  -0.00199   0.00000  -0.01131  -0.01131   1.90563
   A21        1.86457   0.00041   0.00000  -0.01228  -0.01234   1.85223
   A22        1.97959   0.00524   0.00000   0.01883   0.01874   1.99834
   A23        1.91678  -0.00190   0.00000  -0.01268  -0.01267   1.90410
   A24        1.91077  -0.00199   0.00000  -0.00232  -0.00264   1.90814
   A25        1.91283  -0.00175   0.00000  -0.00591  -0.00580   1.90704
   A26        1.87579  -0.00015   0.00000   0.01290   0.01279   1.88858
   A27        1.86416   0.00031   0.00000  -0.01210  -0.01214   1.85202
   A28        1.98026   0.00501   0.00000   0.02118   0.02115   2.00141
   A29        1.91261  -0.00186   0.00000  -0.00569  -0.00555   1.90706
   A30        1.87907   0.00112   0.00000   0.02250   0.02259   1.90166
   A31        1.91508  -0.00152   0.00000  -0.01160  -0.01168   1.90340
   A32        1.91024  -0.00338   0.00000  -0.01855  -0.01898   1.89127
   A33        1.86263   0.00040   0.00000  -0.00914  -0.00934   1.85328
   A34        1.97203   0.00357   0.00000   0.01758   0.01748   1.98951
   A35        1.91468  -0.00041   0.00000   0.00971   0.00955   1.92423
   A36        1.91544  -0.00094   0.00000  -0.00558  -0.00547   1.90997
   A37        1.87953  -0.00080   0.00000   0.00236   0.00210   1.88163
   A38        1.91534  -0.00182   0.00000  -0.01461  -0.01458   1.90076
   A39        1.86338   0.00023   0.00000  -0.01084  -0.01084   1.85254
   A40        1.95495  -0.00226   0.00000  -0.00648  -0.00687   1.94808
   A41        1.91935   0.00054   0.00000  -0.01060  -0.01104   1.90830
   A42        1.90524  -0.00274   0.00000  -0.00992  -0.01045   1.89479
   A43        1.90685  -0.00163   0.00000  -0.02407  -0.02420   1.88265
   A44        1.90110   0.00741   0.00000   0.06629   0.06638   1.96748
   A45        1.87452  -0.00121   0.00000  -0.01477  -0.01466   1.85986
   A46        1.91363  -0.00206   0.00000  -0.01905  -0.01919   1.89444
   A47        1.90882   0.00116   0.00000  -0.00473  -0.00487   1.90395
   A48        1.85518  -0.00063   0.00000  -0.01819  -0.01850   1.83668
    D1        3.09099  -0.00028   0.00000   0.01325   0.01375   3.10474
    D2        0.96745   0.00002   0.00000  -0.01193  -0.01236   0.95509
    D3       -1.08141  -0.00156   0.00000  -0.01385  -0.01362  -1.09502
    D4        1.06504   0.00115   0.00000   0.05280   0.05310   1.11814
    D5       -1.05850   0.00145   0.00000   0.02762   0.02700  -1.03151
    D6       -3.10736  -0.00013   0.00000   0.02571   0.02574  -3.08162
    D7        3.06403  -0.00215   0.00000  -0.01822  -0.01814   3.04590
    D8        0.96463  -0.00457   0.00000  -0.04807  -0.04771   0.91692
    D9       -1.07256  -0.00196   0.00000  -0.01859  -0.01862  -1.09119
   D10       -1.11803   0.00426   0.00000   0.05910   0.05875  -1.05928
   D11        3.06575   0.00184   0.00000   0.02925   0.02918   3.09494
   D12        1.02856   0.00445   0.00000   0.05872   0.05827   1.08683
   D13        0.96539   0.00014   0.00000   0.01045   0.01055   0.97594
   D14       -1.13402  -0.00229   0.00000  -0.01940  -0.01902  -1.15303
   D15        3.11198   0.00032   0.00000   0.01008   0.01007   3.12204
   D16        1.18076   0.00000   0.00000  -0.00721  -0.00740   1.17336
   D17       -2.98747   0.00070   0.00000   0.00815   0.00810  -2.97937
   D18       -0.96717  -0.00012   0.00000  -0.00456  -0.00470  -0.97187
   D19       -2.99150  -0.00053   0.00000  -0.00302  -0.00293  -2.99442
   D20       -0.87655   0.00018   0.00000   0.01233   0.01258  -0.86397
   D21        1.14376  -0.00064   0.00000  -0.00037  -0.00023   1.14353
   D22       -0.97191   0.00010   0.00000   0.00116   0.00106  -0.97085
   D23        1.14304   0.00080   0.00000   0.01652   0.01657   1.15960
   D24       -3.11984  -0.00002   0.00000   0.00381   0.00376  -3.11608
   D25       -3.13495  -0.00016   0.00000  -0.00689  -0.00689   3.14134
   D26        1.00139  -0.00019   0.00000  -0.00307  -0.00301   0.99839
   D27       -1.04016   0.00170   0.00000   0.02031   0.02029  -1.01987
   D28        1.05343  -0.00181   0.00000  -0.03061  -0.03058   1.02285
   D29       -1.09341  -0.00183   0.00000  -0.02678  -0.02670  -1.12011
   D30       -3.13496   0.00005   0.00000  -0.00341  -0.00340  -3.13836
   D31       -0.98929   0.00004   0.00000  -0.00653  -0.00660  -0.99589
   D32       -3.13613   0.00001   0.00000  -0.00271  -0.00271  -3.13884
   D33        1.10551   0.00190   0.00000   0.02067   0.02058   1.12609
   D34       -1.18249   0.00008   0.00000   0.01450   0.01470  -1.16780
   D35        0.96461   0.00026   0.00000   0.01014   0.01024   0.97485
   D36        2.98407   0.00037   0.00000   0.00867   0.00859   2.99266
   D37        0.96651   0.00002   0.00000   0.00692   0.00706   0.97357
   D38        3.11361   0.00019   0.00000   0.00256   0.00260   3.11621
   D39       -1.15011   0.00031   0.00000   0.00108   0.00095  -1.14915
   D40        2.98612  -0.00061   0.00000  -0.00342  -0.00339   2.98273
   D41       -1.14997  -0.00043   0.00000  -0.00778  -0.00785  -1.15781
   D42        0.86950  -0.00032   0.00000  -0.00925  -0.00949   0.86000
   D43       -3.09949  -0.00015   0.00000   0.01070   0.01081  -3.08868
   D44        1.08639  -0.00120   0.00000  -0.01071  -0.01071   1.07568
   D45       -0.95572  -0.00069   0.00000   0.00002   0.00009  -0.95564
   D46        1.03795  -0.00014   0.00000   0.01177   0.01194   1.04989
   D47       -1.05935  -0.00119   0.00000  -0.00963  -0.00959  -1.06894
   D48       -3.10147  -0.00068   0.00000   0.00109   0.00121  -3.10025
   D49       -1.00045   0.00221   0.00000   0.04027   0.04016  -0.96029
   D50       -3.09775   0.00115   0.00000   0.01887   0.01863  -3.07912
   D51        1.14332   0.00166   0.00000   0.02959   0.02943   1.17275
   D52        1.12973  -0.00349   0.00000  -0.04035  -0.04028   1.08945
   D53       -0.99418  -0.00026   0.00000   0.00210   0.00208  -0.99210
   D54       -3.04653   0.00251   0.00000   0.03205   0.03189  -3.01464
   D55       -3.03615  -0.00230   0.00000  -0.01542  -0.01531  -3.05146
   D56        1.12313   0.00093   0.00000   0.02703   0.02706   1.15018
   D57       -0.92922   0.00370   0.00000   0.05699   0.05686  -0.87236
   D58       -1.01410  -0.00344   0.00000  -0.03469  -0.03455  -1.04865
   D59       -3.13801  -0.00021   0.00000   0.00776   0.00781  -3.13020
   D60        1.09283   0.00256   0.00000   0.03771   0.03762   1.13045
   D61        1.04533   0.00154   0.00000   0.06760   0.06763   1.11296
   D62        3.07310   0.00027   0.00000   0.03221   0.03240   3.10550
   D63       -3.10679  -0.00041   0.00000   0.03309   0.03325  -3.07354
   D64       -1.07902  -0.00168   0.00000  -0.00231  -0.00198  -1.08099
   D65       -1.06400   0.00142   0.00000   0.03941   0.03897  -1.02503
   D66        0.96377   0.00016   0.00000   0.00401   0.00375   0.96752
         Item               Value     Threshold  Converged?
 Maximum Force            0.012104     0.000450     NO 
 RMS     Force            0.002640     0.000300     NO 
 Maximum Displacement     0.117512     0.001800     NO 
 RMS     Displacement     0.033777     0.001200     NO 
 Predicted change in Energy=-2.879687D-03
 GradGradGradGradGradGradGradGradGradGradGradGradGradGradGradGradGradGrad

                          Input orientation:                          
 ---------------------------------------------------------------------
 Center     Atomic      Atomic             Coordinates (Angstroms)
 Number     Number       Type             X           Y           Z
 ---------------------------------------------------------------------
      1          7           0        4.671641   -0.473305   -0.480890
      2          6           0        3.379948   -0.047399    0.083098
      3          6           0        2.286338   -1.063890   -0.254950
      4          6           0        0.923051   -0.783555    0.398492
      5          6           0        0.216061    0.482067   -0.111314
      6          6           0       -1.147141    0.758838    0.544280
      7          6           0       -2.238643   -0.267126    0.210499
      8          6           0       -3.609220    0.063080    0.811995
      9          7           0       -4.138919    1.332451    0.289430
     10          1           0        5.373732    0.234772   -0.273120
     11          1           0        4.595293   -0.478683   -1.497504
     12          1           0        3.077179    0.954484   -0.261115
     13          1           0        3.490926    0.014837    1.173480
     14          1           0        2.640342   -2.054519    0.057107
     15          1           0        2.163130   -1.109654   -1.347043
     16          1           0        0.278236   -1.653321    0.224127
     17          1           0        1.051027   -0.711835    1.488268
     18          1           0        0.086272    0.407574   -1.200888
     19          1           0        0.861563    1.352314    0.059584
     20          1           0       -1.021686    0.807419    1.635858
     21          1           0       -1.497329    1.748883    0.232826
     22          1           0       -1.946440   -1.262082    0.567724
     23          1           0       -2.339754   -0.351798   -0.881914
     24          1           0       -3.514169    0.160743    1.901254
     25          1           0       -4.286654   -0.788272    0.630570
     26          1           0       -4.292735    1.231289   -0.713203
     27          1           0       -5.062050    1.496689    0.686507
 ---------------------------------------------------------------------
                    Distance matrix (angstroms):
                    1          2          3          4          5
     1  N    0.000000
     2  C    1.472396   0.000000
     3  C    2.467693   1.530854   0.000000
     4  C    3.862836   2.584133   1.537572   0.000000
     5  C    4.571818   3.213769   2.587791   1.536729   0.000000
     6  C    6.035510   4.621389   3.968613   2.585715   1.537766
     7  C    6.947845   5.624329   4.618109   3.209104   2.586586
     8  C    8.398329   7.027942   6.096396   4.629174   3.957376
     9  N    9.026634   7.647217   6.879152   5.487524   4.455289
    10  H    1.018564   2.044918   3.349456   4.614826   5.166131
    11  H    1.019491   2.039944   2.686574   4.144045   4.692785
    12  H    2.151556   1.101781   2.167787   2.845370   2.903724
    13  H    2.090290   1.097781   2.157568   2.798575   3.548766
    14  H    2.629801   2.139211   1.097289   2.163558   3.512802
    15  H    2.729065   2.157391   1.099974   2.165878   2.802085
    16  H    4.603422   3.495639   2.146956   1.096668   2.162468
    17  H    4.128357   2.799973   2.165352   1.099606   2.163616
    18  H    4.724400   3.564256   2.810747   2.162638   1.099803
    19  H    4.259307   2.881321   2.822580   2.163464   1.096908
    20  H    6.207645   4.745120   4.244995   2.800763   2.165752
    21  H    6.595734   5.199700   4.739806   3.506982   2.158462
    22  H    6.746907   5.484589   4.316536   2.914035   2.859992
    23  H    7.023906   5.808520   4.722382   3.531537   2.796668
    24  H    8.548925   7.132872   6.308314   4.779007   4.250682
    25  H    9.032475   7.721749   6.638097   5.214873   4.736940
    26  H    9.127960   7.819156   6.982982   5.700866   4.610080
    27  H    9.999422   8.603234   7.838476   6.411232   5.433639
                    6          7          8          9         10
     6  C    0.000000
     7  C    1.534727   0.000000
     8  C    2.572466   1.532747   0.000000
     9  N    3.056913   2.485141   1.471380   0.000000
    10  H    6.592767   7.644216   9.049883   9.592284   0.000000
    11  H    6.218994   7.047319   8.540569   9.097241   1.616818
    12  H    4.304859   5.474733   6.830380   7.246932   2.406717
    13  H    4.739314   5.816769   7.109506   7.793086   2.384530
    14  H    4.743137   5.198346   6.641620   7.581816   3.580688
    15  H    4.245734   4.744617   6.273497   6.953973   3.642631
    16  H    2.820054   2.873395   4.289980   5.332012   5.456760
    17  H    2.808191   3.557020   4.772394   5.705424   4.762807
    18  H    2.165711   2.802224   4.222207   4.574788   5.371020
    19  H    2.149892   3.500948   4.713401   5.005801   4.660393
    20  H    1.099838   2.160388   2.815692   3.435938   6.698769
    21  H    1.095365   2.148100   2.763594   2.674812   7.054077
    22  H    2.173371   1.096781   2.140224   3.408228   7.518810
    23  H    2.165610   1.100345   2.157080   2.728688   7.759676
    24  H    2.793192   2.160715   1.097751   2.088346   9.150310
    25  H    3.501076   2.154624   1.103010   2.153060   9.756349
    26  H    3.420414   2.705136   2.039149   1.019394   9.727657
    27  H    3.986372   3.362923   2.044919   1.018241  10.555514
                   11         12         13         14         15
    11  H    0.000000
    12  H    2.426374   0.000000
    13  H    2.932123   1.764140   0.000000
    14  H    2.953287   3.057154   2.500403   0.000000
    15  H    2.517177   2.505073   3.062770   1.758448   0.000000
    16  H    4.793826   3.856188   3.742379   2.401750   2.513359
    17  H    4.640152   3.153134   2.565200   2.525262   3.071486
    18  H    4.604856   3.182421   4.169357   3.764005   2.576175
    19  H    4.440474   2.273779   3.153278   3.843250   3.119929
    20  H    6.559152   4.518941   4.604960   4.908523   4.766122
    21  H    6.713876   4.669172   5.364181   5.622906   4.905729
    22  H    6.904574   5.553096   5.618043   4.682655   4.536312
    23  H    6.963471   5.606686   6.193214   5.346250   4.589843
    24  H    8.816110   6.982244   7.044310   6.796048   6.663112
    25  H    9.138573   7.619602   7.837761   7.065092   6.753810
    26  H    9.084942   7.388953   8.100908   7.710867   6.896372
    27  H   10.096349   8.212126   8.694045   8.504944   7.945537
                   16         17         18         19         20
    16  H    0.000000
    17  H    1.755465   0.000000
    18  H    2.512927   3.068451   0.000000
    19  H    3.066135   2.517488   1.755676   0.000000
    20  H    3.120580   2.574113   3.071575   2.515588   0.000000
    21  H    3.837668   3.758376   2.522387   2.398260   1.755304
    22  H    2.284799   3.183548   3.169803   3.870161   2.505775
    23  H    3.125885   4.152685   2.562030   3.746845   3.069245
    24  H    4.526137   4.666151   4.758927   4.894755   2.588647
    25  H    4.663874   5.406693   4.889455   5.604665   3.770523
    26  H    5.485738   6.097376   4.482415   5.213313   4.049384
    27  H    6.217315   6.549054   5.590496   5.958445   4.207243
                   21         22         23         24         25
    21  H    0.000000
    22  H    3.062640   0.000000
    23  H    2.522932   1.756349   0.000000
    24  H    3.061615   2.502101   3.063980   0.000000
    25  H    3.791528   2.388524   2.503704   1.764086   0.000000
    26  H    2.996192   3.655512   2.519674   2.930463   2.425775
    27  H    3.602313   4.163166   3.645235   2.378297   2.413589
                   26         27
    26  H    0.000000
    27  H    1.619095   0.000000
 Stoichiometry    C7H18N2
 Framework group  C1[X(C7H18N2)]
 Deg. of freedom    75
 Full point group                 C1      NOp   1
 Largest Abelian subgroup         C1      NOp   1
 Largest concise Abelian subgroup C1      NOp   1
                         Standard orientation:                         
 ---------------------------------------------------------------------
 Center     Atomic      Atomic             Coordinates (Angstroms)
 Number     Number       Type             X           Y           Z
 ---------------------------------------------------------------------
      1          7           0       -4.702287   -0.212363   -0.142216
      2          6           0       -3.313170   -0.391801    0.311772
      3          6           0       -2.416648    0.710694   -0.257672
      4          6           0       -0.969180    0.694867    0.260702
      5          6           0       -0.141023   -0.519468   -0.187722
      6          6           0        1.306061   -0.531536    0.332402
      7          6           0        2.199563    0.580523   -0.233607
      8          6           0        3.656255    0.510223    0.238009
      9          7           0        4.309136   -0.732733   -0.202179
     10          1           0       -5.270758   -0.975883    0.220209
     11          1           0       -4.728685   -0.321841   -1.155468
     12          1           0       -2.904630   -1.379654    0.045010
     13          1           0       -3.305348   -0.333758    1.407990
     14          1           0       -2.877196    1.676776   -0.015545
     15          1           0       -2.410221    0.637850   -1.355212
     16          1           0       -0.477120    1.613982   -0.079571
     17          1           0       -0.976786    0.741266    1.359303
     18          1           0       -0.132012   -0.562875   -1.286631
     19          1           0       -0.634033   -1.439573    0.149257
     20          1           0        1.297778   -0.461822    1.429996
     21          1           0        1.762826   -1.497473    0.091247
     22          1           0        1.803716    1.564553    0.045533
     23          1           0        2.178588    0.543000   -1.333112
     24          1           0        3.684758    0.535380    1.335102
     25          1           0        4.182387    1.414659   -0.111008
     26          1           0        4.346573   -0.736065   -1.220880
     27          1           0        5.281076   -0.723855    0.101249
 ---------------------------------------------------------------------
 Rotational constants (GHZ):           6.4089154           0.4136149           0.4025949
 Standard basis: 6-31G(d,p) (6D, 7F)
 There are   225 symmetry adapted cartesian basis functions of A   symmetry.
 There are   225 symmetry adapted basis functions of A   symmetry.
   225 basis functions,   378 primitive gaussians,   225 cartesian basis functions
    37 alpha electrons       37 beta electrons
       nuclear repulsion energy       458.6011734413 Hartrees.
 NAtoms=   27 NActive=   27 NUniq=   27 SFac= 1.00D+00 NAtFMM=   60 NAOKFM=F Big=F
 Integral buffers will be    131072 words long.
 Raffenetti 2 integral format.
 Two-electron integral symmetry is turned on.
 ------------------------------------------------------------------------------
 Polarizable Continuum Model (PCM)
 =================================
 Model                : PCM.
 Atomic radii         : UFF (Universal Force Field).
 Polarization charges : Total charges.
 Charge compensation  : None.
 Solution method      : Matrix inversion.
 Cavity type          : Scaled VdW (van der Waals Surface) (Alpha=1.100).
 Cavity algorithm     : GePol (No added spheres)
                        Default sphere list used, NSphG=   27.
                        Lebedev-Laikov grids with approx.  5.0 points / Ang**2.
[...]
 Sum of Mulliken charges =   0.00000
 Mulliken charges with hydrogens summed into heavy atoms:
               1
     1  N   -0.148543
     2  C    0.134946
     3  C    0.004476
     4  C    0.002968
     5  C    0.004865
     6  C   -0.002774
     7  C   -0.022121
     8  C    0.106838
     9  N   -0.080654
 Electronic spatial extent (au):  <R**2>=           2804.3457
 Charge=              0.0000 electrons
 Dipole moment (field-independent basis, Debye):
    X=              0.1822    Y=             -1.2938    Z=              0.2198  Tot=              1.3250
 Quadrupole moment (field-independent basis, Debye-Ang):
   XX=            -69.9099   YY=            -60.4641   ZZ=            -61.0599
   XY=             10.1656   XZ=              3.8378   YZ=              0.3544
 Traceless Quadrupole moment (field-independent basis, Debye-Ang):
   XX=             -6.0986   YY=              3.3472   ZZ=              2.7514
   XY=             10.1656   XZ=              3.8378   YZ=              0.3544
 Octapole moment (field-independent basis, Debye-Ang**2):
  XXX=            -41.5285  YYY=             -2.4980  ZZZ=              1.9112  XYY=             -7.7073
  XXY=            -34.1882  XXZ=             -1.1175  XZZ=            -20.8149  YZZ=             -0.7962
  YYZ=              0.7278  XYZ=              0.5377
 Hexadecapole moment (field-independent basis, Debye-Ang**3):
 XXXX=          -3869.0801 YYYY=           -245.6404 ZZZZ=           -162.8788 XXXY=            287.4902
 XXXZ=             65.8367 YYYX=             13.4818 YYYZ=             -0.0733 ZZZX=             26.3623
 ZZZY=              0.6318 XXYY=           -597.7200 XXZZ=           -599.5995 YYZZ=            -71.2202
 XXYZ=              7.2472 YYXZ=              1.6482 ZZXY=              8.9179
 N-N= 4.583181417534D+02 E-N=-1.812022115776D+03  KE= 3.834892554337D+02
 Evaluate density.
 Using the total density.
 Monte-Carlo method of calculating molar volume:
 based on  0.001 e/bohr**3 density envelope.
 Number of points per bohr**3 =   20 CutOff= 1.00D-04
 Using the CI density.
 There are       365 points.  Will hold       365 in memory.
 LenV=  1073607389 MDV=  1073741824.
 Box volume = 6120.698 fraction occupied=0.214
 Integrated density= 4.0550363640082942D+01 error=-3.3449636359917058D+01
 Molar volume = 1307.985 bohr**3/mol (116.723 cm**3/mol)
 Recommended a0 for SCRF calculation =  4.45 angstrom (  8.41 bohr)
 ******************************Gaussian NBO Version 3.1******************************
             N A T U R A L   A T O M I C   O R B I T A L   A N D
          N A T U R A L   B O N D   O R B I T A L   A N A L Y S I S
 ******************************Gaussian NBO Version 3.1******************************
       /RESON  / : Allow strongly delocalized NBO set

 Analyzing the CI density

 Job title: PWSKHLMYTZNYKO-UHFFFAOYSA-N_conf_2                              

 Storage needed:    154314 in NPA (1073737909 available)
 GSVD:  LWork=       26871 too small for GESVD, short by       19674 words or       19674 for optimal perf.


 NATURAL POPULATIONS:  Natural atomic orbital occupancies 
                                                          
   NAO  Atom  No  lang   Type(AO)    Occupancy
 --------------------------------------------
     1    N    1  S      Cor( 1S)     1.99969
     2    N    1  S      Val( 2S)     1.45018
     3    N    1  S      Ryd( 3S)     0.00050
     4    N    1  S      Ryd( 4S)     0.00000
     5    N    1  px     Val( 2p)     1.32997
     6    N    1  px     Ryd( 3p)     0.00251
     7    N    1  py     Val( 2p)     1.75376
     8    N    1  py     Ryd( 3p)     0.00512
     9    N    1  pz     Val( 2p)     1.38049
    10    N    1  pz     Ryd( 3p)     0.00214
    11    N    1  dxy    Ryd( 3d)     0.00127
    12    N    1  dxz    Ryd( 3d)     0.00021
    13    N    1  dyz    Ryd( 3d)     0.00102
    14    N    1  dx2y2  Ryd( 3d)     0.00119
    15    N    1  dz2    Ryd( 3d)     0.00095

    16    C    2  S      Cor( 1S)     1.99936
    17    C    2  S      Val( 2S)     1.02154
    18    C    2  S      Ryd( 3S)     0.00204
    19    C    2  S      Ryd( 4S)     0.00004
    20    C    2  px     Val( 2p)     0.89974
    21    C    2  px     Ryd( 3p)     0.00302
    22    C    2  py     Val( 2p)     1.15823
    23    C    2  py     Ryd( 3p)     0.00161
    24    C    2  pz     Val( 2p)     1.16898
    25    C    2  pz     Ryd( 3p)     0.00146
    26    C    2  dxy    Ryd( 3d)     0.00137
    27    C    2  dxz    Ryd( 3d)     0.00073
    28    C    2  dyz    Ryd( 3d)     0.00030
    29    C    2  dx2y2  Ryd( 3d)     0.00113
    30    C    2  dz2    Ryd( 3d)     0.00135

    31    C    3  S      Cor( 1S)     1.99933
    32    C    3  S      Val( 2S)     1.03893
    33    C    3  S      Ryd( 3S)     0.00092
    34    C    3  S      Ryd( 4S)     0.00002
    35    C    3  px     Val( 2p)     1.06042
    36    C    3  px     Ryd( 3p)     0.00298
    37    C    3  py     Val( 2p)     1.16766
    38    C    3  py     Ryd( 3p)     0.00274
    39    C    3  pz     Val( 2p)     1.19527
    40    C    3  pz     Ryd( 3p)     0.00226
    41    C    3  dxy    Ryd( 3d)     0.00077
    42    C    3  dxz    Ryd( 3d)     0.00038
    43    C    3  dyz    Ryd( 3d)     0.00022
    44    C    3  dx2y2  Ryd( 3d)     0.00063
    45    C    3  dz2    Ryd( 3d)     0.00112

    46    C    4  S      Cor( 1S)     1.99933
    47    C    4  S      Val( 2S)     1.03233
    48    C    4  S      Ryd( 3S)     0.00082
    49    C    4  S      Ryd( 4S)     0.00002
    50    C    4  px     Val( 2p)     1.06397
    51    C    4  px     Ryd( 3p)     0.00285
    52    C    4  py     Val( 2p)     1.14762
    53    C    4  py     Ryd( 3p)     0.00233
    54    C    4  pz     Val( 2p)     1.21008
    55    C    4  pz     Ryd( 3p)     0.00268
    56    C    4  dxy    Ryd( 3d)     0.00079
    57    C    4  dxz    Ryd( 3d)     0.00038
    58    C    4  dyz    Ryd( 3d)     0.00033
    59    C    4  dx2y2  Ryd( 3d)     0.00062
    60    C    4  dz2    Ryd( 3d)     0.00107

    61    C    5  S      Cor( 1S)     1.99933
    62    C    5  S      Val( 2S)     1.03112
    63    C    5  S      Ryd( 3S)     0.00085
    64    C    5  S      Ryd( 4S)     0.00002
    65    C    5  px     Val( 2p)     1.06346
    66    C    5  px     Ryd( 3p)     0.00255
    67    C    5  py     Val( 2p)     1.14718
    68    C    5  py     Ryd( 3p)     0.00232
    69    C    5  pz     Val( 2p)     1.21077
    70    C    5  pz     Ryd( 3p)     0.00263
    71    C    5  dxy    Ryd( 3d)     0.00078
    72    C    5  dxz    Ryd( 3d)     0.00036
    73    C    5  dyz    Ryd( 3d)     0.00033
    74    C    5  dx2y2  Ryd( 3d)     0.00062
    75    C    5  dz2    Ryd( 3d)     0.00107

    76    C    6  S      Cor( 1S)     1.99933
    77    C    6  S      Val( 2S)     1.03702
    78    C    6  S      Ryd( 3S)     0.00086
    79    C    6  S      Ryd( 4S)     0.00002
    80    C    6  px     Val( 2p)     1.06112
    81    C    6  px     Ryd( 3p)     0.00301
    82    C    6  py     Val( 2p)     1.15106
    83    C    6  py     Ryd( 3p)     0.00357
    84    C    6  pz     Val( 2p)     1.20048
    85    C    6  pz     Ryd( 3p)     0.00238
    86    C    6  dxy    Ryd( 3d)     0.00079
    87    C    6  dxz    Ryd( 3d)     0.00039
    88    C    6  dyz    Ryd( 3d)     0.00024
    89    C    6  dx2y2  Ryd( 3d)     0.00064
    90    C    6  dz2    Ryd( 3d)     0.00113

    91    C    7  S      Cor( 1S)     1.99932
    92    C    7  S      Val( 2S)     1.04483
    93    C    7  S      Ryd( 3S)     0.00111
    94    C    7  S      Ryd( 4S)     0.00003
    95    C    7  px     Val( 2p)     1.02754
    96    C    7  px     Ryd( 3p)     0.00404
    97    C    7  py     Val( 2p)     1.17925
    98    C    7  py     Ryd( 3p)     0.00268
    99    C    7  pz     Val( 2p)     1.21546
   100    C    7  pz     Ryd( 3p)     0.00220
   101    C    7  dxy    Ryd( 3d)     0.00059
   102    C    7  dxz    Ryd( 3d)     0.00036
   103    C    7  dyz    Ryd( 3d)     0.00032
   104    C    7  dx2y2  Ryd( 3d)     0.00079
   105    C    7  dz2    Ryd( 3d)     0.00105

   106    C    8  S      Cor( 1S)     1.99931
   107    C    8  S      Val( 2S)     1.06068
   108    C    8  S      Ryd( 3S)     0.00220
   109    C    8  S      Ryd( 4S)     0.00003
   110    C    8  px     Val( 2p)     1.05145
   111    C    8  px     Ryd( 3p)     0.00316
   112    C    8  py     Val( 2p)     1.00889
   113    C    8  py     Ryd( 3p)     0.00551
   114    C    8  pz     Val( 2p)     1.21489
   115    C    8  pz     Ryd( 3p)     0.00330
   116    C    8  dxy    Ryd( 3d)     0.00126
   117    C    8  dxz    Ryd( 3d)     0.00060
   118    C    8  dyz    Ryd( 3d)     0.00063
   119    C    8  dx2y2  Ryd( 3d)     0.00073
   120    C    8  dz2    Ryd( 3d)     0.00118

   121    N    9  S      Cor( 1S)     1.99934
   122    N    9  S      Val( 2S)     1.52073
   123    N    9  S      Ryd( 3S)     0.01771
   124    N    9  S      Ryd( 4S)     0.00003
   125    N    9  px     Val( 2p)     1.32505
   126    N    9  px     Ryd( 3p)     0.00361
   127    N    9  py     Val( 2p)     1.12244
   128    N    9  py     Ryd( 3p)     0.00000
   129    N    9  pz     Val( 2p)     1.39023
   130    N    9  pz     Ryd( 3p)     0.00222
   131    N    9  dxy    Ryd( 3d)     0.00000
   132    N    9  dxz    Ryd( 3d)     0.00006
   133    N    9  dyz    Ryd( 3d)     0.00032
   134    N    9  dx2y2  Ryd( 3d)     0.00089
   135    N    9  dz2    Ryd( 3d)     0.00076

   136    H   10  S      Val( 1S)     0.60871
   137    H   10  S      Ryd( 2S)     0.00148
   138    H   10  px     Ryd( 2p)     0.00039
   139    H   10  py     Ryd( 2p)     0.00066
   140    H   10  pz     Ryd( 2p)     0.00036

   141    H   11  S      Val( 1S)     0.61500
   142    H   11  S      Ryd( 2S)     0.00169
   143    H   11  px     Ryd( 2p)     0.00030
   144    H   11  py     Ryd( 2p)     0.00055
   145    H   11  pz     Ryd( 2p)     0.00057

   146    H   12  S      Val( 1S)     0.79526
   147    H   12  S      Ryd( 2S)     0.00186
   148    H   12  px     Ryd( 2p)     0.00012
   149    H   12  py     Ryd( 2p)     0.00035
   150    H   12  pz     Ryd( 2p)     0.00010

   151    H   13  S      Val( 1S)     0.77600
   152    H   13  S      Ryd( 2S)     0.00166
   153    H   13  px     Ryd( 2p)     0.00006
   154    H   13  py     Ryd( 2p)     0.00010
   155    H   13  pz     Ryd( 2p)     0.00039

   156    H   14  S      Val( 1S)     0.75892
   157    H   14  S      Ryd( 2S)     0.00216
   158    H   14  px     Ryd( 2p)     0.00014
   159    H   14  py     Ryd( 2p)     0.00030
   160    H   14  pz     Ryd( 2p)     0.00010

   161    H   15  S      Val( 1S)     0.77078
   162    H   15  S      Ryd( 2S)     0.00172
   163    H   15  px     Ryd( 2p)     0.00010
   164    H   15  py     Ryd( 2p)     0.00010
   165    H   15  pz     Ryd( 2p)     0.00036

   166    H   16  S      Val( 1S)     0.76316
   167    H   16  S      Ryd( 2S)     0.00328
   168    H   16  px     Ryd( 2p)     0.00016
   169    H   16  py     Ryd( 2p)     0.00028
   170    H   16  pz     Ryd( 2p)     0.00012

   171    H   17  S      Val( 1S)     0.76902
   172    H   17  S      Ryd( 2S)     0.00198
   173    H   17  px     Ryd( 2p)     0.00010
   174    H   17  py     Ryd( 2p)     0.00010
   175    H   17  pz     Ryd( 2p)     0.00036

   176    H   18  S      Val( 1S)     0.76937
   177    H   18  S      Ryd( 2S)     0.00231
   178    H   18  px     Ryd( 2p)     0.00010
   179    H   18  py     Ryd( 2p)     0.00010
   180    H   18  pz     Ryd( 2p)     0.00036

   181    H   19  S      Val( 1S)     0.76078
   182    H   19  S      Ryd( 2S)     0.00138
   183    H   19  px     Ryd( 2p)     0.00016
   184    H   19  py     Ryd( 2p)     0.00028
   185    H   19  pz     Ryd( 2p)     0.00012

   186    H   20  S      Val( 1S)     0.76634
   187    H   20  S      Ryd( 2S)     0.00497
   188    H   20  px     Ryd( 2p)     0.00009
   189    H   20  py     Ryd( 2p)     0.00010
   190    H   20  pz     Ryd( 2p)     0.00036

   191    H   21  S      Val( 1S)     0.76759
   192    H   21  S      Ryd( 2S)     0.00711
   193    H   21  px     Ryd( 2p)     0.00014
   194    H   21  py     Ryd( 2p)     0.00031
   195    H   21  pz     Ryd( 2p)     0.00011

   196    H   22  S      Val( 1S)     0.78001
   197    H   22  S      Ryd( 2S)     0.01243
   198    H   22  px     Ryd( 2p)     0.00015
   199    H   22  py     Ryd( 2p)     0.00030
   200    H   22  pz     Ryd( 2p)     0.00010

   201    H   23  S      Val( 1S)     0.76943
   202    H   23  S      Ryd( 2S)     0.02052
   203    H   23  px     Ryd( 2p)     0.00012
   204    H   23  py     Ryd( 2p)     0.00009
   205    H   23  pz     Ryd( 2p)     0.00035

   206    H   24  S      Val( 1S)     0.75884
   207    H   24  S      Ryd( 2S)     0.02436
   208    H   24  px     Ryd( 2p)     0.00006
   209    H   24  py     Ryd( 2p)     0.00007
   210    H   24  pz     Ryd( 2p)     0.00038

   211    H   25  S      Val( 1S)     0.71820
   212    H   25  S      Ryd( 2S)     0.03445
   213    H   25  px     Ryd( 2p)     0.00013
   214    H   25  py     Ryd( 2p)     0.00031
   215    H   25  pz     Ryd( 2p)     0.00011

   216    H   26  S      Val( 1S)     0.72774
   217    H   26  S      Ryd( 2S)     0.08611
   218    H   26  px     Ryd( 2p)     0.00019
   219    H   26  py     Ryd( 2p)     0.00024
   220    H   26  pz     Ryd( 2p)     0.00077

   221    H   27  S      Val( 1S)     0.74690
   222    H   27  S      Ryd( 2S)     0.08638
   223    H   27  px     Ryd( 2p)     0.00070
   224    H   27  py     Ryd( 2p)     0.00020
   225    H   27  pz     Ryd( 2p)     0.00025


 Summary of Natural Population Analysis:                  
                                                          
                                       Natural Population 
                Natural  -----------------------------------------------
    Atom  No    Charge         Core      Valence    Rydberg      Total
 -----------------------------------------------------------------------
      N    1   -0.92900      1.99969     5.91440    0.01492     7.92900
      C    2   -0.26088      1.99936     4.24849    0.01303     6.26088
      C    3   -0.47366      1.99933     4.46229    0.01204     6.47366
      C    4   -0.46521      1.99933     4.45400    0.01188     6.46521
      C    5   -0.46340      1.99933     4.45253    0.01153     6.46340
      C    6   -0.46202      1.99933     4.44967    0.01302     6.46202
      C    7   -0.47956      1.99932     4.46708    0.01316     6.47956
      C    8   -0.35383      1.99931     4.33591    0.01861     6.35383
      N    9   -0.38339      1.99934     5.35845    0.02560     7.38339
      H   10    0.38840      0.00000     0.60871    0.00289     0.61160
      H   11    0.38189      0.00000     0.61500    0.00311     0.61811
      H   12    0.20231      0.00000     0.79526    0.00243     0.79769
      H   13    0.22179      0.00000     0.77600    0.00222     0.77821
      H   14    0.23838      0.00000     0.75892    0.00270     0.76162
      H   15    0.22694      0.00000     0.77078    0.00228     0.77306
      H   16    0.23300      0.00000     0.76316    0.00384     0.76700
      H   17    0.22845      0.00000     0.76902    0.00254     0.77155
      H   18    0.22777      0.00000     0.76937    0.00287     0.77223
      H   19    0.23728      0.00000     0.76078    0.00194     0.76272
      H   20    0.22814      0.00000     0.76634    0.00552     0.77186
      H   21    0.22474      0.00000     0.76759    0.00767     0.77526
      H   22    0.20701      0.00000     0.78001    0.01297     0.79299
      H   23    0.20949      0.00000     0.76943    0.02108     0.79051
      H   24    0.21629      0.00000     0.75884    0.02487     0.78371
      H   25    0.24679      0.00000     0.71820    0.03501     0.75321
      H   26    0.18495      0.00000     0.72774    0.08731     0.81505
      H   27    0.16556      0.00000     0.74690    0.08754     0.83444
 =======================================================================
   * Total *   -0.00179     17.99434    55.56488    0.44257    74.00179

                                 Natural Population      
 --------------------------------------------------------
   Core                      17.99434 ( 99.9685% of  18)
   Valence                   55.56488 ( 99.2230% of  56)
   Natural Minimal Basis     73.55921 ( 99.4043% of  74)
   Natural Rydberg Basis      0.44257 (  0.5981% of  74)
 --------------------------------------------------------

    Atom  No          Natural Electron Configuration
 ----------------------------------------------------------------------------
      N    1      [core]2S( 1.45)2p( 4.46)3p( 0.01)
      C    2      [core]2S( 1.02)2p( 3.23)3p( 0.01)
      C    3      [core]2S( 1.04)2p( 3.42)3p( 0.01)
      C    4      [core]2S( 1.03)2p( 3.42)3p( 0.01)
      C    5      [core]2S( 1.03)2p( 3.42)3p( 0.01)
      C    6      [core]2S( 1.04)2p( 3.41)3p( 0.01)
      C    7      [core]2S( 1.04)2p( 3.42)3p( 0.01)
      C    8      [core]2S( 1.06)2p( 3.28)3p( 0.01)
      N    9      [core]2S( 1.52)2p( 3.84)3S( 0.02)
      H   10            1S( 0.61)
      H   11            1S( 0.61)
      H   12            1S( 0.80)
      H   13            1S( 0.78)
      H   14            1S( 0.76)
      H   15            1S( 0.77)
      H   16            1S( 0.76)
      H   17            1S( 0.77)
      H   18            1S( 0.77)
      H   19            1S( 0.76)
      H   20            1S( 0.77)
      H   21            1S( 0.77)2S( 0.01)
      H   22            1S( 0.78)2S( 0.01)
      H   23            1S( 0.77)2S( 0.02)
      H   24            1S( 0.76)2S( 0.02)
      H   25            1S( 0.72)2S( 0.03)
      H   26            1S( 0.73)2S( 0.09)
      H   27            1S( 0.75)2S( 0.09)


 NBO analysis skipped by request.
 1\1\GINC-CN34\SP\RB3LYP TD-FC\6-31G(d,p)\C7H18N2\QDUEZ\09-Jul-2024\0\\
 # TD(NStates=10, Root=1) B3LYP/6-31G** SCRF=(Solvent=water) volume pop
 =NPA density=current Geom=AllCheck Guess=Read\\PWSKHLMYTZNYKO-UHFFFAOY
 SA-N_conf_2\\0,1\N,0,4.670686761,-0.4727854266,-0.5107146285\C,0,3.388
 545753,-0.0640417693,0.0895388083\C,0,2.2840993581,-1.0607695035,-0.27
 26665944\C,0,0.9242451997,-0.7841622107,0.3898270376\C,0,0.215378198,0
 .4875080342,-0.1025332145\C,0,-1.1449932434,0.7590874312,0.5608706548\
 C,0,-2.234563285,-0.273136422,0.2403204548\C,0,-3.6134613068,0.0782243
 517,0.8112118718\N,0,-4.1443642315,1.3185377385,0.2212620393\H,0,5.386
 3299577,0.2054916684,-0.254800217\H,0,4.5920200906,-0.4003004143,-1.52
 46566132\H,0,3.0833960412,0.9548947266,-0.1989064779\H,0,3.5177001207,
 -0.0526673633,1.1797940387\H,0,2.6299973328,-2.0629974197,0.0096661812
 \H,0,2.158634103,-1.0759004489,-1.3655819121\H,0,0.27622325,-1.6511199
 956,0.2134635587\H,0,1.0581118273,-0.7235811326,1.4798604027\H,0,0.080
 0481568,0.4231270444,-1.1922814981\H,0,0.862743532,1.3560133178,0.0705
 674544\H,0,-1.0117342549,0.812109927,1.6515350516\H,0,-1.5037812833,1.
 7462732858,0.2497205777\H,0,-1.9510208885,-1.2599058496,0.6261494966\H
 ,0,-2.3207391473,-0.3870693966,-0.8509804632\H,0,-3.5273517043,0.23481
 57777,1.8944117502\H,0,-4.2831167836,-0.7876081707,0.673927626\H,0,-4.
 3483498345,1.1496966824,-0.7630856752\H,0,-5.0446837186,1.5302655377,0
 .64723986\\Version=EM64L-G16RevA.03\State=1-A\HF=-387.1149391\RMSD=2.5
 00e-09\Dipole=0.0056367,0.5207954,0.02166\Quadrupole=-3.0547324,0.2334
 951,2.8212374,7.8212241,-3.2653071,-0.541842\PG=C01 [X(C7H18N2)]\\@


      LET US REMEMBER, PLEASE, THAT THE SEARCH FOR THE CONSTITUTION
      OF THE WORLD IS ONE OF THE GREATEST AND NOBLEST PROBLEMS PRESENTED 
      BY NATURE.

                                                  -- GALILEO
 Job cpu time:       0 days  1 hours 10 minutes 22.9 seconds.
 Elapsed time:       0 days  0 hours 38 minutes 46.8 seconds.
 File lengths (MBytes):  RWF=    457 Int=      0 D2E=      0 Chk=     30 Scr=      1
 Normal termination of Gaussian 16 at Tue Jul  9 19:45:30 2024.
