 Entering Gaussian System, Link 0=g16
 Initial command:
 /opt/sw/arch/manual/gaussian/G16_A03/g16/l1.exe "/scratch/1030822.jesse.materianova.be/Gau-76067.inp" -scrdir="/scratch/1030822.jesse.materianova.be/"
 Entering Link 1 = /opt/sw/arch/manual/gaussian/G16_A03/g16/l1.exe PID=     76075.
  
 Copyright (c) 1988,1990,1992,1993,1995,1998,2003,2009,2016,
            Gaussian, Inc.  All Rights Reserved.
  
 This is part of the Gaussian(R) 16 program.  It is based on
 the Gaussian(R) 09 system (copyright 2009, Gaussian, Inc.),
 the Gaussian(R) 03 system (copyright 2003, Gaussian, Inc.),
 the Gaussian(R) 98 system (copyright 1998, Gaussian, Inc.),
 the Gaussian(R) 94 system (copyright 1995, Gaussian, Inc.),
 the Gaussian 92(TM) system (copyright 1992, Gaussian, Inc.),
 the Gaussian 90(TM) system (copyright 1990, Gaussian, Inc.),
 the Gaussian 88(TM) system (copyright 1988, Gaussian, Inc.),
 the Gaussian 86(TM) system (copyright 1986, Carnegie Mellon
 University), and the Gaussian 82(TM) system (copyright 1983,
 Carnegie Mellon University). Gaussian is a federally registered
 trademark of Gaussian, Inc.
  
 This software contains proprietary and confidential information,
 including trade secrets, belonging to Gaussian, Inc.
  
 This software is provided under written license and may be
 used, copied, transmitted, or stored only in accord with that
 written license.
  
 The following legend is applicable only to US Government
 contracts under FAR:
  
                    RESTRICTED RIGHTS LEGEND
  
 Use, reproduction and disclosure by the US Government is
 subject to restrictions as set forth in subparagraphs (a)
 and (c) of the Commercial Computer Software - Restricted
 Rights clause in FAR 52.227-19.
  
 Gaussian, Inc.
 340 Quinnipiac St., Bldg. 40, Wallingford CT 06492
  
  
 ---------------------------------------------------------------
 Warning -- This program may not be used in any manner that
 competes with the business of Gaussian, Inc. or will provide
 assistance to any competitor of Gaussian, Inc.  The licensee
 of this program is prohibited from giving any competitor of
 Gaussian, Inc. access to this program.  By using this program,
 the user acknowledges that Gaussian, Inc. is engaged in the
 business of creating and licensing software in the field of
 computational chemistry and represents and warrants to the
 licensee that it is not a competitor of Gaussian, Inc. and that
 it will not use this program in any manner prohibited above.
 ---------------------------------------------------------------
  

 Cite this work as:
 Gaussian 16, Revision A.03,
 M. J. Frisch, G. W. Trucks, H. B. Schlegel, G. E. Scuseria, 
 M. A. Robb, J. R. Cheeseman, G. Scalmani, V. Barone, 
 G. A. Petersson, H. Nakatsuji, X. Li, M. Caricato, A. V. Marenich, 
 J. Bloino, B. G. Janesko, R. Gomperts, B. Mennucci, H. P. Hratchian, 
 J. V. Ortiz, A. F. Izmaylov, J. L. Sonnenberg, D. Williams-Young, 
 F. Ding, F. Lipparini, F. Egidi, J. Goings, B. Peng, A. Petrone, 
 T. Henderson, D. Ranasinghe, V. G. Zakrzewski, J. Gao, N. Rega, 
 G. Zheng, W. Liang, M. Hada, M. Ehara, K. Toyota, R. Fukuda, 
 J. Hasegawa, M. Ishida, T. Nakajima, Y. Honda, O. Kitao, H. Nakai, 
 T. Vreven, K. Throssell, J. A. Montgomery, Jr., J. E. Peralta, 
 F. Ogliaro, M. J. Bearpark, J. J. Heyd, E. N. Brothers, K. N. Kudin, 
 V. N. Staroverov, T. A. Keith, R. Kobayashi, J. Normand, 
 K. Raghavachari, A. P. Rendell, J. C. Burant, S. S. Iyengar, 
 J. Tomasi, M. Cossi, J. M. Millam, M. Klene, C. Adamo, R. Cammi, 
 J. W. Ochterski, R. L. Martin, K. Morokuma, O. Farkas, 
 J. B. Foresman, and D. J. Fox, Gaussian, Inc., Wallingford CT, 2016.
 
 ******************************************
 Gaussian 16:  EM64L-G16RevA.03 25-Dec-2016
                 9-Jul-2024 
 ******************************************
 %nprocshared=4
 Will use up to    4 processors via shared memory.
 %mem=8GB
 %Chk=PWSKHLMYTZNYKO-UHFFFAOYSA-N_conf_3_0.chk
 -------------------------------------------------------
 # opt=CalcFc B3LYP/6-31G** SCRF=(Solvent=water) scf=xqc
 -------------------------------------------------------
 1/10=4,18=20,19=15,26=3,38=1/1,3;
 2/9=110,12=2,17=6,18=5,40=1/2;
 3/5=1,6=6,7=101,11=2,25=1,30=1,70=2201,71=2,72=1,74=-5,140=1/1,2,3;
 4//1;
 5/5=2,8=3,13=1,38=5,53=1/2,8;
 8/6=4,10=90,11=11/1;
 11/6=1,8=1,9=11,15=111,16=1/1,2,10;
 10/6=1,13=1/2;
 6/7=2,8=2,9=2,10=2,28=1/1;
 7/10=1,18=20,25=1/1,2,3,16;
 1/10=4,18=20,19=15,26=3/3(2);
 2/9=110/2;
 99//99;
 2/9=110/2;
 3/5=1,6=6,7=101,11=2,25=1,30=1,70=2205,71=1,72=1,74=-5/1,2,3;
 4/5=5,16=3,69=1/1;
 5/5=2,8=3,13=1,38=5,53=1/2,8;
 7//1,2,3,16;
 1/18=20,19=15,26=3/3(-5);
 2/9=110/2;
 6/7=2,8=2,9=2,10=2,19=2,28=1/1;
 99/9=1/99;
 ----------------------------------
 PWSKHLMYTZNYKO-UHFFFAOYSA-N_conf_3
 ----------------------------------
 Symbolic Z-matrix:
 Charge =  0 Multiplicity = 1
 N                     2.95869   2.0974   -0.40845 
 C                     2.70334   0.67767  -0.62304 
 C                     1.4063    0.26427   0.07182 
 C                     1.11519  -1.2239   -0.14225 
 C                    -0.16011  -1.70066   0.56285 
 C                    -1.40415  -1.7557   -0.33172 
 C                    -1.90939  -0.41974  -0.87971 
 C                    -2.3727    0.54268   0.21328 
 N                    -2.88792   1.76977  -0.38469 
 H                     3.07671   2.27774   0.58784 
 H                     3.84225   2.35096  -0.84922 
 H                     2.63063   0.48694  -1.69911 
 H                     3.54586   0.09425  -0.23593 
 H                     0.58247   0.87352  -0.31185 
 H                     1.48162   0.46779   1.1476 
 H                     1.07256  -1.45588  -1.21294 
 H                     1.96062  -1.79302   0.26584 
 H                    -0.35406  -1.11181   1.46599 
 H                     0.02021  -2.72705   0.90936 
 H                    -2.21441  -2.23109   0.23571 
 H                    -1.19783  -2.42101  -1.17974 
 H                    -1.13823   0.04455  -1.50447 
 H                    -2.75425  -0.62966  -1.54926 
 H                    -1.5506    0.79661   0.88875 
 H                    -3.16374   0.07823   0.81158 
 H                    -3.14151   2.42408   0.3544 
 H                    -2.14755   2.22306  -0.92046 
 

 GradGradGradGradGradGradGradGradGradGradGradGradGradGradGradGradGradGrad
 Berny optimization.
 Initialization pass.
                           ----------------------------
                           !    Initial Parameters    !
                           ! (Angstroms and Degrees)  !
 --------------------------                            --------------------------
 ! Name  Definition              Value          Derivative Info.                !
 --------------------------------------------------------------------------------
 ! R1    R(1,2)                  1.4584         calculate D2E/DX2 analytically  !
 ! R2    R(1,10)                 1.0193         calculate D2E/DX2 analytically  !
 ! R3    R(1,11)                 1.0194         calculate D2E/DX2 analytically  !
 ! R4    R(2,3)                  1.5284         calculate D2E/DX2 analytically  !
 ! R5    R(2,12)                 1.0953         calculate D2E/DX2 analytically  !
 ! R6    R(2,13)                 1.0955         calculate D2E/DX2 analytically  !
 ! R7    R(3,4)                  1.5314         calculate D2E/DX2 analytically  !
 ! R8    R(3,14)                 1.0941         calculate D2E/DX2 analytically  !
 ! R9    R(3,15)                 1.0974         calculate D2E/DX2 analytically  !
 ! R10   R(4,5)                  1.5332         calculate D2E/DX2 analytically  !
 ! R11   R(4,16)                 1.0964         calculate D2E/DX2 analytically  !
 ! R12   R(4,17)                 1.0978         calculate D2E/DX2 analytically  !
 ! R13   R(5,6)                  1.5333         calculate D2E/DX2 analytically  !
 ! R14   R(5,18)                 1.0955         calculate D2E/DX2 analytically  !
 ! R15   R(5,19)                 1.0982         calculate D2E/DX2 analytically  !
 ! R16   R(6,7)                  1.5298         calculate D2E/DX2 analytically  !
 ! R17   R(6,20)                 1.0975         calculate D2E/DX2 analytically  !
 ! R18   R(6,21)                 1.0974         calculate D2E/DX2 analytically  !
 ! R19   R(7,8)                  1.5282         calculate D2E/DX2 analytically  !
 ! R20   R(7,22)                 1.0957         calculate D2E/DX2 analytically  !
 ! R21   R(7,23)                 1.0983         calculate D2E/DX2 analytically  !
 ! R22   R(8,9)                  1.459          calculate D2E/DX2 analytically  !
 ! R23   R(8,24)                 1.0939         calculate D2E/DX2 analytically  !
 ! R24   R(8,25)                 1.0952         calculate D2E/DX2 analytically  !
 ! R25   R(9,26)                 1.0192         calculate D2E/DX2 analytically  !
 ! R26   R(9,27)                 1.0201         calculate D2E/DX2 analytically  !
 ! A1    A(2,1,10)             109.6535         calculate D2E/DX2 analytically  !
 ! A2    A(2,1,11)             109.2853         calculate D2E/DX2 analytically  !
 ! A3    A(10,1,11)            106.1553         calculate D2E/DX2 analytically  !
 ! A4    A(1,2,3)              110.1819         calculate D2E/DX2 analytically  !
 ! A5    A(1,2,12)             109.009          calculate D2E/DX2 analytically  !
 ! A6    A(1,2,13)             109.3774         calculate D2E/DX2 analytically  !
 ! A7    A(3,2,12)             110.0738         calculate D2E/DX2 analytically  !
 ! A8    A(3,2,13)             110.3624         calculate D2E/DX2 analytically  !
 ! A9    A(12,2,13)            107.7882         calculate D2E/DX2 analytically  !
 ! A10   A(2,3,4)              111.1376         calculate D2E/DX2 analytically  !
 ! A11   A(2,3,14)             109.2042         calculate D2E/DX2 analytically  !
 ! A12   A(2,3,15)             109.71           calculate D2E/DX2 analytically  !
 ! A13   A(4,3,14)             110.4239         calculate D2E/DX2 analytically  !
 ! A14   A(4,3,15)             109.2862         calculate D2E/DX2 analytically  !
 ! A15   A(14,3,15)            106.987          calculate D2E/DX2 analytically  !
 ! A16   A(3,4,5)              113.328          calculate D2E/DX2 analytically  !
 ! A17   A(3,4,16)             110.4582         calculate D2E/DX2 analytically  !
 ! A18   A(3,4,17)             107.783          calculate D2E/DX2 analytically  !
 ! A19   A(5,4,16)             110.547          calculate D2E/DX2 analytically  !
 ! A20   A(5,4,17)             107.9624         calculate D2E/DX2 analytically  !
 ! A21   A(16,4,17)            106.4563         calculate D2E/DX2 analytically  !
 ! A22   A(4,5,6)              114.6902         calculate D2E/DX2 analytically  !
 ! A23   A(4,5,18)             111.0547         calculate D2E/DX2 analytically  !
 ! A24   A(4,5,19)             107.4063         calculate D2E/DX2 analytically  !
 ! A25   A(6,5,18)             110.8951         calculate D2E/DX2 analytically  !
 ! A26   A(6,5,19)             106.4845         calculate D2E/DX2 analytically  !
 ! A27   A(18,5,19)            105.7432         calculate D2E/DX2 analytically  !
 ! A28   A(5,6,7)              116.4621         calculate D2E/DX2 analytically  !
 ! A29   A(5,6,20)             108.2348         calculate D2E/DX2 analytically  !
 ! A30   A(5,6,21)             108.6672         calculate D2E/DX2 analytically  !
 ! A31   A(7,6,20)             108.6416         calculate D2E/DX2 analytically  !
 ! A32   A(7,6,21)             108.3431         calculate D2E/DX2 analytically  !
 ! A33   A(20,6,21)            106.0051         calculate D2E/DX2 analytically  !
 ! A34   A(6,7,8)              113.1962         calculate D2E/DX2 analytically  !
 ! A35   A(6,7,22)             109.9892         calculate D2E/DX2 analytically  !
 ! A36   A(6,7,23)             107.7896         calculate D2E/DX2 analytically  !
 ! A37   A(8,7,22)             110.7515         calculate D2E/DX2 analytically  !
 ! A38   A(8,7,23)             108.855          calculate D2E/DX2 analytically  !
 ! A39   A(22,7,23)            105.9503         calculate D2E/DX2 analytically  !
 ! A40   A(7,8,9)              110.095          calculate D2E/DX2 analytically  !
 ! A41   A(7,8,24)             111.0989         calculate D2E/DX2 analytically  !
 ! A42   A(7,8,25)             110.0363         calculate D2E/DX2 analytically  !
 ! A43   A(9,8,24)             108.8578         calculate D2E/DX2 analytically  !
 ! A44   A(9,8,25)             108.9967         calculate D2E/DX2 analytically  !
 ! A45   A(24,8,25)            107.6944         calculate D2E/DX2 analytically  !
 ! A46   A(8,9,26)             109.3058         calculate D2E/DX2 analytically  !
 ! A47   A(8,9,27)             109.4313         calculate D2E/DX2 analytically  !
 ! A48   A(26,9,27)            106.0322         calculate D2E/DX2 analytically  !
 ! D1    D(10,1,2,3)            62.0509         calculate D2E/DX2 analytically  !
 ! D2    D(10,1,2,12)         -177.0583         calculate D2E/DX2 analytically  !
 ! D3    D(10,1,2,13)          -59.4329         calculate D2E/DX2 analytically  !
 ! D4    D(11,1,2,3)           178.0261         calculate D2E/DX2 analytically  !
 ! D5    D(11,1,2,12)          -61.0831         calculate D2E/DX2 analytically  !
 ! D6    D(11,1,2,13)           56.5423         calculate D2E/DX2 analytically  !
 ! D7    D(1,2,3,4)            179.8782         calculate D2E/DX2 analytically  !
 ! D8    D(1,2,3,14)            57.8153         calculate D2E/DX2 analytically  !
 ! D9    D(1,2,3,15)           -59.1472         calculate D2E/DX2 analytically  !
 ! D10   D(12,2,3,4)            59.6272         calculate D2E/DX2 analytically  !
 ! D11   D(12,2,3,14)          -62.4357         calculate D2E/DX2 analytically  !
 ! D12   D(12,2,3,15)         -179.3983         calculate D2E/DX2 analytically  !
 ! D13   D(13,2,3,4)           -59.226          calculate D2E/DX2 analytically  !
 ! D14   D(13,2,3,14)          178.7111         calculate D2E/DX2 analytically  !
 ! D15   D(13,2,3,15)           61.7485         calculate D2E/DX2 analytically  !
 ! D16   D(2,3,4,5)            178.6326         calculate D2E/DX2 analytically  !
 ! D17   D(2,3,4,16)           -56.6988         calculate D2E/DX2 analytically  !
 ! D18   D(2,3,4,17)            59.2251         calculate D2E/DX2 analytically  !
 ! D19   D(14,3,4,5)           -60.0159         calculate D2E/DX2 analytically  !
 ! D20   D(14,3,4,16)           64.6528         calculate D2E/DX2 analytically  !
 ! D21   D(14,3,4,17)         -179.4233         calculate D2E/DX2 analytically  !
 ! D22   D(15,3,4,5)            57.4093         calculate D2E/DX2 analytically  !
 ! D23   D(15,3,4,16)         -177.9221         calculate D2E/DX2 analytically  !
 ! D24   D(15,3,4,17)          -61.9982         calculate D2E/DX2 analytically  !
 ! D25   D(3,4,5,6)             97.2488         calculate D2E/DX2 analytically  !
 ! D26   D(3,4,5,18)           -29.4501         calculate D2E/DX2 analytically  !
 ! D27   D(3,4,5,19)          -144.6244         calculate D2E/DX2 analytically  !
 ! D28   D(16,4,5,6)           -27.3718         calculate D2E/DX2 analytically  !
 ! D29   D(16,4,5,18)         -154.0707         calculate D2E/DX2 analytically  !
 ! D30   D(16,4,5,19)           90.755          calculate D2E/DX2 analytically  !
 ! D31   D(17,4,5,6)          -143.4466         calculate D2E/DX2 analytically  !
 ! D32   D(17,4,5,18)           89.8545         calculate D2E/DX2 analytically  !
 ! D33   D(17,4,5,19)          -25.3198         calculate D2E/DX2 analytically  !
 ! D34   D(4,5,6,7)            -64.6919         calculate D2E/DX2 analytically  !
 ! D35   D(4,5,6,20)           172.6297         calculate D2E/DX2 analytically  !
 ! D36   D(4,5,6,21)            57.9387         calculate D2E/DX2 analytically  !
 ! D37   D(18,5,6,7)            62.0889         calculate D2E/DX2 analytically  !
 ! D38   D(18,5,6,20)          -60.5895         calculate D2E/DX2 analytically  !
 ! D39   D(18,5,6,21)         -175.2805         calculate D2E/DX2 analytically  !
 ! D40   D(19,5,6,7)           176.6616         calculate D2E/DX2 analytically  !
 ! D41   D(19,5,6,20)           53.9832         calculate D2E/DX2 analytically  !
 ! D42   D(19,5,6,21)          -60.7078         calculate D2E/DX2 analytically  !
 ! D43   D(5,6,7,8)            -63.3241         calculate D2E/DX2 analytically  !
 ! D44   D(5,6,7,22)            61.1522         calculate D2E/DX2 analytically  !
 ! D45   D(5,6,7,23)           176.2283         calculate D2E/DX2 analytically  !
 ! D46   D(20,6,7,8)            59.142          calculate D2E/DX2 analytically  !
 ! D47   D(20,6,7,22)         -176.3817         calculate D2E/DX2 analytically  !
 ! D48   D(20,6,7,23)          -61.3056         calculate D2E/DX2 analytically  !
 ! D49   D(21,6,7,8)           173.8765         calculate D2E/DX2 analytically  !
 ! D50   D(21,6,7,22)          -61.6472         calculate D2E/DX2 analytically  !
 ! D51   D(21,6,7,23)           53.4289         calculate D2E/DX2 analytically  !
 ! D52   D(6,7,8,9)           -177.7769         calculate D2E/DX2 analytically  !
 ! D53   D(6,7,8,24)            61.5549         calculate D2E/DX2 analytically  !
 ! D54   D(6,7,8,25)           -57.6203         calculate D2E/DX2 analytically  !
 ! D55   D(22,7,8,9)            58.1622         calculate D2E/DX2 analytically  !
 ! D56   D(22,7,8,24)          -62.506          calculate D2E/DX2 analytically  !
 ! D57   D(22,7,8,25)          178.3188         calculate D2E/DX2 analytically  !
 ! D58   D(23,7,8,9)           -57.9369         calculate D2E/DX2 analytically  !
 ! D59   D(23,7,8,24)         -178.6051         calculate D2E/DX2 analytically  !
 ! D60   D(23,7,8,25)           62.2197         calculate D2E/DX2 analytically  !
 ! D61   D(7,8,9,26)          -176.6584         calculate D2E/DX2 analytically  !
 ! D62   D(7,8,9,27)           -60.944          calculate D2E/DX2 analytically  !
 ! D63   D(24,8,9,26)          -54.652          calculate D2E/DX2 analytically  !
 ! D64   D(24,8,9,27)           61.0624         calculate D2E/DX2 analytically  !
 ! D65   D(25,8,9,26)           62.5587         calculate D2E/DX2 analytically  !
 ! D66   D(25,8,9,27)          178.2731         calculate D2E/DX2 analytically  !
 --------------------------------------------------------------------------------
 Trust Radius=3.00D-01 FncErr=1.00D-07 GrdErr=1.00D-06 EigMax=2.50D+02 EigMin=1.00D-04
 Number of steps in this run=    150 maximum allowed number of steps=    162.
 GradGradGradGradGradGradGradGradGradGradGradGradGradGradGradGradGradGrad

                          Input orientation:                          
 ---------------------------------------------------------------------
 Center     Atomic      Atomic             Coordinates (Angstroms)
 Number     Number       Type             X           Y           Z
 ---------------------------------------------------------------------
      1          7           0        2.958695    2.097395   -0.408446
      2          6           0        2.703338    0.677671   -0.623043
      3          6           0        1.406304    0.264267    0.071822
      4          6           0        1.115187   -1.223898   -0.142254
      5          6           0       -0.160107   -1.700657    0.562853
      6          6           0       -1.404150   -1.755700   -0.331718
      7          6           0       -1.909392   -0.419738   -0.879715
      8          6           0       -2.372705    0.542677    0.213283
      9          7           0       -2.887921    1.769767   -0.384685
     10          1           0        3.076709    2.277744    0.587838
     11          1           0        3.842246    2.350957   -0.849216
     12          1           0        2.630628    0.486943   -1.699111
     13          1           0        3.545863    0.094250   -0.235926
     14          1           0        0.582474    0.873519   -0.311854
     15          1           0        1.481617    0.467787    1.147601
     16          1           0        1.072557   -1.455876   -1.212936
     17          1           0        1.960619   -1.793017    0.265840
     18          1           0       -0.354055   -1.111810    1.465989
     19          1           0        0.020212   -2.727054    0.909364
     20          1           0       -2.214406   -2.231091    0.235712
     21          1           0       -1.197831   -2.421009   -1.179744
     22          1           0       -1.138231    0.044550   -1.504467
     23          1           0       -2.754254   -0.629664   -1.549264
     24          1           0       -1.550603    0.796614    0.888753
     25          1           0       -3.163735    0.078227    0.811577
     26          1           0       -3.141509    2.424084    0.354397
     27          1           0       -2.147549    2.223060   -0.920463
 ---------------------------------------------------------------------
                    Distance matrix (angstroms):
                    1          2          3          4          5
     1  N    0.000000
     2  C    1.458381   0.000000
     3  C    2.449680   1.528410   0.000000
     4  C    3.807935   2.523756   1.531409   0.000000
     5  C    5.009546   3.906675   2.560407   1.533249   0.000000
     6  C    5.821224   4.783056   3.484503   2.581815   1.533274
     7  C    5.500575   4.748417   3.516693   3.215370   2.604180
     8  C    5.588159   5.146249   3.791890   3.925887   3.170226
     9  N    5.855836   5.701900   4.573324   5.004566   4.514713
    10  H    1.019331   2.041047   2.666573   4.079473   5.128867
    11  H    1.019428   2.036701   3.337124   4.551509   5.867567
    12  H    2.089736   1.095256   2.164430   2.765383   4.205981
    13  H    2.094545   1.095485   2.168254   2.766672   4.194515
    14  H    2.674627   2.152501   1.094116   2.170647   2.818319
    15  H    2.694191   2.161443   1.097448   2.158656   2.781967
    16  H    4.102494   2.749444   2.172759   1.096354   2.175502
    17  H    4.072607   2.728744   2.139469   1.097812   2.143415
    18  H    4.978636   4.112657   2.633658   2.181211   1.095450
    19  H    5.800571   4.597781   3.401578   2.136434   1.098215
    20  H    6.775818   5.777764   4.400365   3.499070   2.146747
    21  H    6.187696   5.013068   3.944445   2.803482   2.152306
    22  H    4.711712   3.991917   3.001270   2.922752   2.876853
    23  H    6.432425   5.687910   4.553820   4.159972   3.512501
    24  H    4.869140   4.516159   3.113530   3.500270   2.876813
    25  H    6.561223   6.069598   4.633261   4.573238   3.499724
    26  H    6.156390   6.177992   5.042545   5.627957   5.093692
    27  H    5.133389   5.099783   4.177484   4.809634   4.641735
                    6          7          8          9         10
     6  C    0.000000
     7  C    1.529825   0.000000
     8  C    2.552971   1.528249   0.000000
     9  N    3.825349   2.448776   1.459028   0.000000
    10  H    6.098553   5.855880   5.731218   6.064705   0.000000
    11  H    6.682597   6.384279   6.559298   6.771168   1.629887
    12  H    4.814420   4.701624   5.356650   5.816161   2.938722
    13  H    5.285273   5.517106   5.952505   6.650042   2.380407
    14  H    3.295430   2.864328   3.019654   3.584997   3.000417
    15  H    3.931912   4.049278   3.966655   4.809980   2.476610
    16  H    2.645849   3.174373   4.230620   5.174568   4.604273
    17  H    3.417622   4.263236   4.923000   6.051855   4.233253
    18  H    2.179230   2.898338   2.895090   4.260159   4.902078
    19  H    2.124293   3.499698   4.111170   5.509374   5.873122
    20  H    1.097492   2.149002   2.778372   4.104312   6.960566
    21  H    1.097430   2.145093   3.479122   4.588151   6.593505
    22  H    2.164937   1.095705   2.173183   2.700315   5.208705
    23  H    2.138494   1.098251   2.150938   2.670464   6.857139
    24  H    2.832897   2.176171   1.093890   2.087364   4.867886
    25  H    2.786853   2.163750   1.095171   2.090078   6.620505
    26  H    4.578183   3.335935   2.037318   1.019157   6.224319
    27  H    4.090207   2.653820   2.039549   1.020138   5.437907
                   11         12         13         14         15
    11  H    0.000000
    12  H    2.380102   0.000000
    13  H    2.357264   1.769964   0.000000
    14  H    3.619074   2.503769   3.065077   0.000000
    15  H    3.620245   3.069912   2.512924   1.761557   0.000000
    16  H    4.721805   2.537419   3.078097   2.545233   3.072450
    17  H    4.685764   3.083530   2.515262   3.056702   2.473496
    18  H    5.912687   4.634889   4.422720   2.824773   2.442578
    19  H    6.594448   4.893689   4.658504   3.843389   3.521289
    20  H    7.671718   5.882653   6.229795   4.214376   4.666483
    21  H    6.948617   4.835599   5.451600   3.844039   4.576147
    22  H    5.527569   3.799723   4.853081   2.251742   3.751826
    23  H    7.272412   5.501474   6.476139   3.863223   5.140047
    24  H    5.875316   4.927031   5.266136   2.448957   3.060962
    25  H    7.550319   6.328132   6.790893   3.991074   4.673753
    26  H    7.087091   6.425494   7.106162   4.088544   5.082279
    27  H    5.991584   5.143090   6.116810   3.105590   4.530863
                   16         17         18         19         20
    16  H    0.000000
    17  H    1.757583   0.000000
    18  H    3.054545   2.694832   0.000000
    19  H    2.688399   2.247606   1.748977   0.000000
    20  H    3.674734   4.198054   2.495451   2.386064   0.000000
    21  H    2.467234   3.529857   3.070157   2.437553   1.753001
    22  H    2.687722   4.014164   3.282638   3.853617   3.060216
    23  H    3.929405   5.184402   3.883963   4.259291   2.458078
    24  H    4.046206   4.407142   2.325298   3.857995   3.167664
    25  H    4.939464   5.482554   3.120696   4.244606   2.562380
    26  H    5.938769   6.619932   4.637681   6.069488   4.748079
    27  H    4.897876   5.866280   4.475839   5.705356   4.602246
                   21         22         23         24         25
    21  H    0.000000
    22  H    2.487565   0.000000
    23  H    2.401649   1.751600   0.000000
    24  H    3.841384   2.542274   3.070337   0.000000
    25  H    3.751842   3.076990   2.498471   1.767550   0.000000
    26  H    5.441176   3.623628   3.619290   2.337771   2.390095
    27  H    4.747270   2.470969   2.983540   2.379990   2.938181
                   26         27
    26  H    0.000000
    27  H    1.628998   0.000000
 Stoichiometry    C7H18N2
 Framework group  C1[X(C7H18N2)]
 Deg. of freedom    75
 Full point group                 C1      NOp   1
 Largest Abelian subgroup         C1      NOp   1
 Largest concise Abelian subgroup C1      NOp   1
                         Standard orientation:                         
 ---------------------------------------------------------------------
 Center     Atomic      Atomic             Coordinates (Angstroms)
 Number     Number       Type             X           Y           Z
 ---------------------------------------------------------------------
      1          7           0       -3.315160    1.460956    0.001593
      2          6           0       -2.812953    0.135792    0.345985
      3          6           0       -1.447624   -0.095225   -0.300967
      4          6           0       -0.897906   -1.480978    0.049340
      5          6           0        0.457687   -1.778896   -0.602167
      6          6           0        1.671209   -1.527900    0.300770
      7          6           0        1.915204   -0.079273    0.727750
      8          6           0        2.221539    0.850679   -0.445661
      9          7           0        2.493857    2.198907    0.041049
     10          1           0       -3.441699    1.528014   -1.007628
     11          1           0       -4.239460    1.587969    0.412413
     12          1           0       -2.730858    0.057406    1.435343
     13          1           0       -3.527789   -0.622757    0.008791
     14          1           0       -0.755750    0.684926    0.030342
     15          1           0       -1.534590   -0.004758   -1.391217
     16          1           0       -0.837839   -1.605699    1.136919
     17          1           0       -1.617715   -2.227903   -0.310061
     18          1           0        0.562256   -1.246899   -1.554036
     19          1           0        0.472980   -2.847543   -0.854830
     20          1           0        2.566203   -1.896683   -0.216407
     21          1           0        1.569470   -2.141907    1.204649
     22          1           0        1.059389    0.290802    1.303243
     23          1           0        2.769060   -0.072318    1.418429
     24          1           0        1.382265    0.890436   -1.146113
     25          1           0        3.096338    0.486391   -0.994679
     26          1           0        2.641653    2.820366   -0.753070
     27          1           0        1.672267    2.555928    0.529115
 ---------------------------------------------------------------------
 Rotational constants (GHZ):           1.7984664           0.7879994           0.5928533
 Standard basis: 6-31G(d,p) (6D, 7F)
 There are   225 symmetry adapted cartesian basis functions of A   symmetry.
 There are   225 symmetry adapted basis functions of A   symmetry.
   225 basis functions,   378 primitive gaussians,   225 cartesian basis functions
    37 alpha electrons       37 beta electrons
       nuclear repulsion energy       479.0612993159 Hartrees.
 NAtoms=   27 NActive=   27 NUniq=   27 SFac= 1.00D+00 NAtFMM=   60 NAOKFM=F Big=F
 Integral buffers will be    131072 words long.
 Raffenetti 2 integral format.
 Two-electron integral symmetry is turned on.
 Force inversion solution in PCM.
 ------------------------------------------------------------------------------
 Polarizable Continuum Model (PCM)
 =================================
 Model                : PCM.
 Atomic radii         : UFF (Universal Force Field).
 Polarization charges : Total charges.
 Charge compensation  : None.
 Solution method      : Matrix inversion.
 Cavity type          : Scaled VdW (van der Waals Surface) (Alpha=1.100).
 Cavity algorithm     : GePol (No added spheres)
                        Default sphere list used, NSphG=   27.
                        Lebedev-Laikov grids with approx.  5.0 points / Ang**2.
                        Smoothing algorithm: York/Karplus (Gamma=1.0000).
                        Polarization charges: spherical gaussians, with
                                              point-specific exponents (IZeta= 3).
                        Self-potential: point-specific (ISelfS= 7).
                        Self-field    : sphere-specific E.n sum rule (ISelfD= 2).
 1st derivatives      : Analytical E(r).r(x)/FMM algorithm (CHGder, D1EAlg=3).
                        Cavity 1st derivative terms included.
 2nd derivatives      : Analytical E(r).r(xy)/FMM algorithm (CHGder, D2EAlg=3).
                        Cavity 2nd derivative terms included.
 Solvent              : Water, Eps=  78.355300 Eps(inf)=   1.777849
 ------------------------------------------------------------------------------
 One-electron integrals computed using PRISM.
 NBasis=   225 RedAO= T EigKep=  3.18D-03  NBF=   225
 NBsUse=   225 1.00D-06 EigRej= -1.00D+00 NBFU=   225
 ExpMin= 1.61D-01 ExpMax= 4.17D+03 ExpMxC= 6.27D+02 IAcc=3 IRadAn=         5 AccDes= 0.00D+00
 Harris functional with IExCor=  402 and IRadAn=       5 diagonalized for initial guess.
 HarFok:  IExCor=  402 AccDes= 0.00D+00 IRadAn=         5 IDoV= 1 UseB2=F ITyADJ=14
 ICtDFT=  3500011 ScaDFX=  1.000000  1.000000  1.000000  1.000000
 FoFCou: FMM=F IPFlag=           0 FMFlag=      100000 FMFlg1=           0
         NFxFlg=           0 DoJE=T BraDBF=F KetDBF=T FulRan=T
         wScrn=  0.000000 ICntrl=       500 IOpCl=  0 I1Cent=   200000004 NGrid=           0
         NMat0=    1 NMatS0=      1 NMatT0=    0 NMatD0=    1 NMtDS0=    0 NMtDT0=    0
 Petite list used in FoFCou.
 Keep R1 ints in memory in canonical form, NReq=329001147.
 Requested convergence on RMS density matrix=1.00D-08 within  32 cycles.
 Requested convergence on MAX density matrix=1.00D-06.
 Requested convergence on             energy=1.00D-06.
 No special actions if energy rises.
 Inv3:  Mode=1 IEnd=    10101675.
 Iteration    1 A*A^-1 deviation from unit magnitude is 6.44D-15 for   1110.
 Iteration    1 A*A^-1 deviation from orthogonality  is 6.38D-15 for   1787    744.
 Iteration    1 A^-1*A deviation from unit magnitude is 6.44D-15 for    596.
 Iteration    1 A^-1*A deviation from orthogonality  is 4.30D-15 for   1039    805.
 Error on total polarization charges =  0.00940
 SCF Done:  E(RB3LYP) =  -387.108362108     A.U. after   11 cycles
            NFock= 11  Conv=0.20D-08     -V/T= 2.0095
 QCSCF skips out because SCF is already converged.
 DoSCS=F DFT=T ScalE2(SS,OS)=  1.000000  1.000000
 Range of M.O.s used for correlation:     1   225
 NBasis=   225 NAE=    37 NBE=    37 NFC=     0 NFV=     0
 NROrb=    225 NOA=    37 NOB=    37 NVA=   188 NVB=   188
 Symmetrizing basis deriv contribution to polar:
 IMax=3 JMax=2 DiffMx= 0.00D+00
 G2DrvN: will do    28 centers at a time, making    1 passes.
 Calling FoFCou, ICntrl=  3107 FMM=F I1Cent=   0 AccDes= 0.00D+00.
 NEqPCM:  Using equilibrium solvation (IEInf=0, Eps=  78.3553, EpsInf=   1.7778)
 G2PCM: DoFxE=T DoFxN=T DoGrad=T DoDP/DQ/DG/TGxP=FFFF NFrqRd=   0 IEInf=0 SqF1=F DoCFld=F IF1Alg=4.
 End of G2Drv F.D. properties file   721 does not exist.
 End of G2Drv F.D. properties file   722 does not exist.
 End of G2Drv F.D. properties file   788 does not exist.
          IDoAtm=111111111111111111111111111
 NEqPCM:  Using equilibrium solvation (IEInf=0, Eps=  78.3553, EpsInf=   1.7778)
          Differentiating once with respect to nuclear coordinates.
 Keep R1 ints in memory in canonical form, NReq=332170337.
          There are    84 degrees of freedom in the 1st order CPHF.  IDoFFX=6 NUNeed=     0.
     78 vectors produced by pass  0 Test12= 8.28D-15 1.19D-09 XBig12= 6.89D-02 6.78D-02.
 AX will form    78 AO Fock derivatives at one time.
     78 vectors produced by pass  1 Test12= 8.28D-15 1.19D-09 XBig12= 7.69D-03 2.04D-02.
     78 vectors produced by pass  2 Test12= 8.28D-15 1.19D-09 XBig12= 1.17D-04 1.91D-03.
     78 vectors produced by pass  3 Test12= 8.28D-15 1.19D-09 XBig12= 3.79D-07 6.11D-05.
     78 vectors produced by pass  4 Test12= 8.28D-15 1.19D-09 XBig12= 2.71D-10 2.32D-06.
     29 vectors produced by pass  5 Test12= 8.28D-15 1.19D-09 XBig12= 1.40D-13 4.63D-08.
 InvSVY:  IOpt=1 It=  1 EMax= 3.61D-16
 Solved reduced A of dimension   419 with    84 vectors.
 End of Minotr F.D. properties file   721 does not exist.
 End of Minotr F.D. properties file   722 does not exist.
 End of Minotr F.D. properties file   788 does not exist.

 **********************************************************************

            Population analysis using the SCF density.

 **********************************************************************

 Orbital symmetries:
       Occupied  (A) (A) (A) (A) (A) (A) (A) (A) (A) (A) (A) (A)
                 (A) (A) (A) (A) (A) (A) (A) (A) (A) (A) (A) (A)
                 (A) (A) (A) (A) (A) (A) (A) (A) (A) (A) (A) (A)
                 (A)
       Virtual   (A) (A) (A) (A) (A) (A) (A) (A) (A) (A) (A) (A)
                 (A) (A) (A) (A) (A) (A) (A) (A) (A) (A) (A) (A)
                 (A) (A) (A) (A) (A) (A) (A) (A) (A) (A) (A) (A)
                 (A) (A) (A) (A) (A) (A) (A) (A) (A) (A) (A) (A)
                 (A) (A) (A) (A) (A) (A) (A) (A) (A) (A) (A) (A)
                 (A) (A) (A) (A) (A) (A) (A) (A) (A) (A) (A) (A)
                 (A) (A) (A) (A) (A) (A) (A) (A) (A) (A) (A) (A)
                 (A) (A) (A) (A) (A) (A) (A) (A) (A) (A) (A) (A)
                 (A) (A) (A) (A) (A) (A) (A) (A) (A) (A) (A) (A)
                 (A) (A) (A) (A) (A) (A) (A) (A) (A) (A) (A) (A)
                 (A) (A) (A) (A) (A) (A) (A) (A) (A) (A) (A) (A)
                 (A) (A) (A) (A) (A) (A) (A) (A) (A) (A) (A) (A)
                 (A) (A) (A) (A) (A) (A) (A) (A) (A) (A) (A) (A)
                 (A) (A) (A) (A) (A) (A) (A) (A) (A) (A) (A) (A)
                 (A) (A) (A) (A) (A) (A) (A) (A) (A) (A) (A) (A)
                 (A) (A) (A) (A) (A) (A) (A) (A)
 The electronic state is 1-A.
 Alpha  occ. eigenvalues --  -14.30422 -14.30401 -10.19707 -10.19692 -10.17321
 Alpha  occ. eigenvalues --  -10.17254 -10.17253 -10.17194 -10.17134  -0.87436
 Alpha  occ. eigenvalues --   -0.87362  -0.79899  -0.75504  -0.70286  -0.64588
 Alpha  occ. eigenvalues --   -0.60641  -0.58052  -0.55150  -0.48541  -0.47310
 Alpha  occ. eigenvalues --   -0.46503  -0.45932  -0.43924  -0.42906  -0.41482
 Alpha  occ. eigenvalues --   -0.39510  -0.38820  -0.37044  -0.35833  -0.34238
 Alpha  occ. eigenvalues --   -0.33718  -0.33242  -0.31468  -0.30249  -0.30045
 Alpha  occ. eigenvalues --   -0.22929  -0.22858
 Alpha virt. eigenvalues --    0.07886   0.09006   0.09408   0.10919   0.12299
 Alpha virt. eigenvalues --    0.13234   0.14676   0.14764   0.15582   0.17956
 Alpha virt. eigenvalues --    0.18027   0.18919   0.19057   0.19369   0.19926
 Alpha virt. eigenvalues --    0.21084   0.22184   0.23095   0.23676   0.25017
 Alpha virt. eigenvalues --    0.25734   0.26400   0.27866   0.28942   0.30638
 Alpha virt. eigenvalues --    0.32012   0.50894   0.51743   0.52008   0.54033
 Alpha virt. eigenvalues --    0.55161   0.55867   0.56709   0.58796   0.62693
 Alpha virt. eigenvalues --    0.64828   0.65952   0.66302   0.68539   0.68720
 Alpha virt. eigenvalues --    0.70579   0.71155   0.73084   0.73731   0.74793
 Alpha virt. eigenvalues --    0.75725   0.76791   0.80105   0.81514   0.83162
 Alpha virt. eigenvalues --    0.83918   0.85298   0.87123   0.87311   0.88111
 Alpha virt. eigenvalues --    0.89178   0.90319   0.90736   0.91831   0.92500
 Alpha virt. eigenvalues --    0.94048   0.95049   0.96013   0.96221   0.96738
 Alpha virt. eigenvalues --    0.98481   0.99119   1.01347   1.04909   1.05654
 Alpha virt. eigenvalues --    1.05926   1.13319   1.15284   1.28084   1.29242
 Alpha virt. eigenvalues --    1.30253   1.34331   1.37088   1.39051   1.42470
 Alpha virt. eigenvalues --    1.48090   1.49520   1.52957   1.60287   1.62880
 Alpha virt. eigenvalues --    1.65086   1.66693   1.68157   1.71765   1.72987
 Alpha virt. eigenvalues --    1.74371   1.78874   1.80260   1.80628   1.83467
 Alpha virt. eigenvalues --    1.85223   1.88311   1.89032   1.90091   1.90926
 Alpha virt. eigenvalues --    1.92949   1.95435   1.97743   1.99145   2.05204
 Alpha virt. eigenvalues --    2.07933   2.08712   2.09354   2.10356   2.11220
 Alpha virt. eigenvalues --    2.13241   2.16065   2.17014   2.18830   2.21265
 Alpha virt. eigenvalues --    2.23822   2.24349   2.24963   2.25339   2.27191
 Alpha virt. eigenvalues --    2.28142   2.29192   2.31399   2.32457   2.33177
 Alpha virt. eigenvalues --    2.37237   2.37524   2.40710   2.41330   2.43588
 Alpha virt. eigenvalues --    2.44658   2.48955   2.49959   2.52072   2.55405
 Alpha virt. eigenvalues --    2.58558   2.58886   2.61136   2.63451   2.64227
 Alpha virt. eigenvalues --    2.66977   2.70388   2.72574   2.73665   2.76538
 Alpha virt. eigenvalues --    2.78022   2.80330   2.80610   2.82429   2.84682
 Alpha virt. eigenvalues --    2.85788   2.88545   2.89228   2.91004   2.92387
 Alpha virt. eigenvalues --    2.92895   2.95447   2.96432   2.97459   2.98194
 Alpha virt. eigenvalues --    2.98444   3.23755   3.25972   3.29431   3.30139
 Alpha virt. eigenvalues --    3.30842   3.32803   3.33129   3.34190   3.37472
 Alpha virt. eigenvalues --    3.39216   3.40569   3.47497   3.49720   3.53670
 Alpha virt. eigenvalues --    3.54861   3.57718   3.58686   3.60243   3.99714
 Alpha virt. eigenvalues --    4.00669   4.28425   4.34543   4.47362   4.56836
 Alpha virt. eigenvalues --    4.65966   4.73099   4.75668
          Condensed to atoms (all electrons):
               1          2          3          4          5          6
     1  N    6.826484   0.289259  -0.054571   0.003422  -0.000091   0.000000
     2  C    0.289259   4.802963   0.370564  -0.036607   0.003917  -0.000041
     3  C   -0.054571   0.370564   4.941626   0.362040  -0.034949  -0.001417
     4  C    0.003422  -0.036607   0.362040   4.918216   0.361080  -0.039786
     5  C   -0.000091   0.003917  -0.034949   0.361080   4.927650   0.380333
     6  C    0.000000  -0.000041  -0.001417  -0.039786   0.380333   4.907233
     7  C    0.000001  -0.000060  -0.000484  -0.002355  -0.047786   0.361139
     8  C   -0.000000   0.000036  -0.000721  -0.000852  -0.004348  -0.041049
     9  N   -0.000000  -0.000000  -0.000181   0.000019   0.000081   0.003453
    10  H    0.340971  -0.038416  -0.005775  -0.000123  -0.000002   0.000000
    11  H    0.336306  -0.032393   0.005838  -0.000245   0.000003   0.000000
    12  H   -0.041487   0.385366  -0.030575  -0.004827  -0.000037   0.000004
    13  H   -0.053510   0.387584  -0.049560   0.000336  -0.000003  -0.000004
    14  H    0.006439  -0.037584   0.374167  -0.037608  -0.001318   0.000038
    15  H   -0.003148  -0.038842   0.385429  -0.036056  -0.005984   0.000042
    16  H    0.000038  -0.004121  -0.039454   0.386387  -0.043548  -0.007703
    17  H    0.000012  -0.005475  -0.040378   0.380518  -0.033942   0.004129
    18  H   -0.000003   0.000276  -0.009415  -0.042528   0.385805  -0.037680
    19  H    0.000001  -0.000181   0.004225  -0.035390   0.371469  -0.033842
    20  H   -0.000000   0.000002  -0.000125   0.005279  -0.036956   0.378135
    21  H    0.000000   0.000006  -0.000032  -0.008731  -0.038117   0.378739
    22  H   -0.000022   0.000073  -0.001666   0.004724  -0.007761  -0.035806
    23  H   -0.000000   0.000000   0.000096  -0.000127   0.005403  -0.029282
    24  H   -0.000004  -0.000021   0.002348  -0.000736   0.001875  -0.000407
    25  H   -0.000000  -0.000000  -0.000020   0.000085  -0.000528  -0.003593
    26  H    0.000000   0.000000  -0.000006  -0.000001   0.000006  -0.000252
    27  H    0.000002  -0.000003  -0.000032   0.000001  -0.000009  -0.000065
               7          8          9         10         11         12
     1  N    0.000001  -0.000000  -0.000000   0.340971   0.336306  -0.041487
     2  C   -0.000060   0.000036  -0.000000  -0.038416  -0.032393   0.385366
     3  C   -0.000484  -0.000721  -0.000181  -0.005775   0.005838  -0.030575
     4  C   -0.002355  -0.000852   0.000019  -0.000123  -0.000245  -0.004827
     5  C   -0.047786  -0.004348   0.000081  -0.000002   0.000003  -0.000037
     6  C    0.361139  -0.041049   0.003453   0.000000   0.000000   0.000004
     7  C    4.942022   0.381826  -0.053402  -0.000000  -0.000000   0.000011
     8  C    0.381826   4.794767   0.292398  -0.000000   0.000000  -0.000001
     9  N   -0.053402   0.292398   6.823541   0.000000   0.000000  -0.000000
    10  H   -0.000000  -0.000000   0.000000   0.482306  -0.032329   0.006671
    11  H   -0.000000   0.000000   0.000000  -0.032329   0.482964  -0.003577
    12  H    0.000011  -0.000001  -0.000000   0.006671  -0.003577   0.635809
    13  H   -0.000000  -0.000001   0.000000  -0.005444  -0.003843  -0.049614
    14  H    0.000309  -0.000909   0.000512  -0.000842  -0.000089  -0.007857
    15  H    0.000048  -0.000086  -0.000002   0.005631  -0.000011   0.005865
    16  H   -0.000493   0.000094   0.000000   0.000014   0.000002   0.004990
    17  H    0.000028  -0.000018   0.000000  -0.000002  -0.000000  -0.000678
    18  H   -0.007745   0.002844  -0.000117  -0.000002   0.000000   0.000007
    19  H    0.005470   0.000090  -0.000001  -0.000000  -0.000000   0.000003
    20  H   -0.040596  -0.007759   0.000037  -0.000000   0.000000   0.000000
    21  H   -0.034301   0.005038  -0.000117  -0.000000   0.000000  -0.000005
    22  H    0.383709  -0.041660  -0.002925   0.000001   0.000000   0.000114
    23  H    0.368956  -0.039034   0.005191   0.000000  -0.000000  -0.000001
    24  H   -0.048371   0.389819  -0.053614   0.000002  -0.000000   0.000003
    25  H   -0.032561   0.384599  -0.041694   0.000000   0.000000   0.000000
    26  H    0.005862  -0.033652   0.337268  -0.000000   0.000000  -0.000000
    27  H   -0.006110  -0.039244   0.340744  -0.000000  -0.000000  -0.000000
              13         14         15         16         17         18
     1  N   -0.053510   0.006439  -0.003148   0.000038   0.000012  -0.000003
     2  C    0.387584  -0.037584  -0.038842  -0.004121  -0.005475   0.000276
     3  C   -0.049560   0.374167   0.385429  -0.039454  -0.040378  -0.009415
     4  C    0.000336  -0.037608  -0.036056   0.386387   0.380518  -0.042528
     5  C   -0.000003  -0.001318  -0.005984  -0.043548  -0.033942   0.385805
     6  C   -0.000004   0.000038   0.000042  -0.007703   0.004129  -0.037680
     7  C   -0.000000   0.000309   0.000048  -0.000493   0.000028  -0.007745
     8  C   -0.000001  -0.000909  -0.000086   0.000094  -0.000018   0.002844
     9  N    0.000000   0.000512  -0.000002   0.000000   0.000000  -0.000117
    10  H   -0.005444  -0.000842   0.005631   0.000014  -0.000002  -0.000002
    11  H   -0.003843  -0.000089  -0.000011   0.000002  -0.000000   0.000000
    12  H   -0.049614  -0.007857   0.005865   0.004990  -0.000678   0.000007
    13  H    0.687513   0.007037  -0.007569  -0.000620   0.006023   0.000009
    14  H    0.007037   0.635113  -0.041976  -0.005922   0.006357  -0.000066
    15  H   -0.007569  -0.041976   0.637953   0.005820  -0.006490   0.004789
    16  H   -0.000620  -0.005922   0.005820   0.636073  -0.038526   0.005241
    17  H    0.006023   0.006357  -0.006490  -0.038526   0.647322   0.001477
    18  H    0.000009  -0.000066   0.004789   0.005241   0.001477   0.634381
    19  H    0.000001  -0.000042   0.000208   0.001725  -0.011157  -0.036936
    20  H   -0.000000  -0.000066   0.000013   0.000228  -0.000242  -0.003239
    21  H    0.000001   0.000096   0.000003   0.005200   0.000199   0.005865
    22  H   -0.000006   0.001671   0.000068   0.001463  -0.000090  -0.000019
    23  H    0.000000  -0.000033  -0.000005  -0.000151   0.000002   0.000003
    24  H    0.000000  -0.000396   0.000571   0.000005   0.000001   0.002699
    25  H    0.000000   0.000065   0.000002   0.000002   0.000001   0.000195
    26  H    0.000000   0.000025  -0.000001  -0.000000  -0.000000   0.000005
    27  H    0.000000   0.000849  -0.000006  -0.000002   0.000000   0.000002
              19         20         21         22         23         24
     1  N    0.000001  -0.000000   0.000000  -0.000022  -0.000000  -0.000004
     2  C   -0.000181   0.000002   0.000006   0.000073   0.000000  -0.000021
     3  C    0.004225  -0.000125  -0.000032  -0.001666   0.000096   0.002348
     4  C   -0.035390   0.005279  -0.008731   0.004724  -0.000127  -0.000736
     5  C    0.371469  -0.036956  -0.038117  -0.007761   0.005403   0.001875
     6  C   -0.033842   0.378135   0.378739  -0.035806  -0.029282  -0.000407
     7  C    0.005470  -0.040596  -0.034301   0.383709   0.368956  -0.048371
     8  C    0.000090  -0.007759   0.005038  -0.041660  -0.039034   0.389819
     9  N   -0.000001   0.000037  -0.000117  -0.002925   0.005191  -0.053614
    10  H   -0.000000  -0.000000  -0.000000   0.000001   0.000000   0.000002
    11  H   -0.000000   0.000000   0.000000   0.000000  -0.000000  -0.000000
    12  H    0.000003   0.000000  -0.000005   0.000114  -0.000001   0.000003
    13  H    0.000001  -0.000000   0.000001  -0.000006   0.000000   0.000000
    14  H   -0.000042  -0.000066   0.000096   0.001671  -0.000033  -0.000396
    15  H    0.000208   0.000013   0.000003   0.000068  -0.000005   0.000571
    16  H    0.001725   0.000228   0.005200   0.001463  -0.000151   0.000005
    17  H   -0.011157  -0.000242   0.000199  -0.000090   0.000002   0.000001
    18  H   -0.036936  -0.003239   0.005865  -0.000019   0.000003   0.002699
    19  H    0.657888  -0.004941  -0.004811  -0.000017  -0.000168  -0.000005
    20  H   -0.004941   0.653940  -0.037313   0.006275  -0.004871  -0.000481
    21  H   -0.004811  -0.037313   0.647652  -0.003999  -0.004739  -0.000091
    22  H   -0.000017   0.006275  -0.003999   0.636160  -0.039651  -0.007460
    23  H   -0.000168  -0.004871  -0.004739  -0.039651   0.648199   0.007086
    24  H   -0.000005  -0.000481  -0.000091  -0.007460   0.007086   0.677394
    25  H   -0.000052   0.005350  -0.000030   0.005892  -0.007502  -0.049302
    26  H   -0.000000   0.000000   0.000004  -0.000019  -0.000084  -0.004050
    27  H   -0.000000   0.000015   0.000002   0.005321  -0.000659  -0.005150
              25         26         27
     1  N   -0.000000   0.000000   0.000002
     2  C   -0.000000   0.000000  -0.000003
     3  C   -0.000020  -0.000006  -0.000032
     4  C    0.000085  -0.000001   0.000001
     5  C   -0.000528   0.000006  -0.000009
     6  C   -0.003593  -0.000252  -0.000065
     7  C   -0.032561   0.005862  -0.006110
     8  C    0.384599  -0.033652  -0.039244
     9  N   -0.041694   0.337268   0.340744
    10  H    0.000000  -0.000000  -0.000000
    11  H    0.000000   0.000000  -0.000000
    12  H    0.000000  -0.000000  -0.000000
    13  H    0.000000   0.000000   0.000000
    14  H    0.000065   0.000025   0.000849
    15  H    0.000002  -0.000001  -0.000006
    16  H    0.000002  -0.000000  -0.000002
    17  H    0.000001  -0.000000   0.000000
    18  H    0.000195   0.000005   0.000002
    19  H   -0.000052  -0.000000  -0.000000
    20  H    0.005350   0.000000   0.000015
    21  H   -0.000030   0.000004   0.000002
    22  H    0.005892  -0.000019   0.005321
    23  H   -0.007502  -0.000084  -0.000659
    24  H   -0.049302  -0.004050  -0.005150
    25  H    0.637102  -0.003210   0.006675
    26  H   -0.003210   0.482704  -0.032192
    27  H    0.006675  -0.032192   0.482266
 Mulliken charges:
               1
     1  N   -0.650099
     2  C   -0.046300
     3  C   -0.176972
     4  C   -0.176136
     5  C   -0.182243
     6  C   -0.182319
     7  C   -0.175115
     8  C   -0.042177
     9  N   -0.651190
    10  H    0.247340
    11  H    0.247374
    12  H    0.099816
    13  H    0.081669
    14  H    0.102028
    15  H    0.093732
    16  H    0.093258
    17  H    0.090929
    18  H    0.094151
    19  H    0.086466
    20  H    0.087316
    21  H    0.089480
    22  H    0.095630
    23  H    0.091369
    24  H    0.088283
    25  H    0.098523
    26  H    0.247591
    27  H    0.247596
 Sum of Mulliken charges =  -0.00000
 Mulliken charges with hydrogens summed into heavy atoms:
               1
     1  N   -0.155386
     2  C    0.135185
     3  C    0.018788
     4  C    0.008051
     5  C   -0.001626
     6  C   -0.005523
     7  C    0.011884
     8  C    0.144629
     9  N   -0.156002
 APT charges:
               1
     1  N   -1.615255
     2  C   -0.638434
     3  C   -0.445322
     4  C   -0.785627
     5  C   -0.781435
     6  C   -0.918301
     7  C   -0.664635
     8  C   -0.479340
     9  N   -1.074343
    10  H    0.508429
    11  H    0.930414
    12  H    0.314400
    13  H    0.493814
    14  H    0.139699
    15  H    0.332478
    16  H    0.300293
    17  H    0.481364
    18  H    0.251737
    19  H    0.517774
    20  H    0.494097
    21  H    0.406894
    22  H    0.141585
    23  H    0.522536
    24  H    0.131912
    25  H    0.522355
    26  H    0.686455
    27  H    0.226456
 Sum of APT charges =  -0.00000
 APT charges with hydrogens summed into heavy atoms:
               1
     1  N   -0.176411
     2  C    0.169780
     3  C    0.026855
     4  C   -0.003970
     5  C   -0.011924
     6  C   -0.017310
     7  C   -0.000513
     8  C    0.174927
     9  N   -0.161432
 Electronic spatial extent (au):  <R**2>=           1999.9906
 Charge=              0.0000 electrons
 Dipole moment (field-independent basis, Debye):
    X=             -2.4453    Y=             -1.0100    Z=             -1.5619  Tot=              3.0723
 Quadrupole moment (field-independent basis, Debye-Ang):
   XX=            -58.2439   YY=            -61.1674   ZZ=            -57.3399
   XY=             -1.9937   XZ=             -1.9932   YZ=             -3.7780
 Traceless Quadrupole moment (field-independent basis, Debye-Ang):
   XX=              0.6731   YY=             -2.2503   ZZ=              1.5772
   XY=             -1.9937   XZ=             -1.9932   YZ=             -3.7780
 Octapole moment (field-independent basis, Debye-Ang**2):
  XXX=            -72.5097  YYY=              9.4656  ZZZ=             -2.0301  XYY=              1.3234
  XXY=             -5.9818  XXZ=            -16.7453  XZZ=             -5.3499  YZZ=              5.9575
  YYZ=             -9.1471  XYZ=             -5.7200
 Hexadecapole moment (field-independent basis, Debye-Ang**3):
 XXXX=          -1568.4519 YYYY=           -726.6980 ZZZZ=           -180.6057 XXXY=           -116.4424
 XXXZ=            -32.7921 YYYX=             25.2513 YYYZ=            -22.5663 ZZZX=              0.7316
 ZZZY=             -7.6036 XXYY=           -439.5860 XXZZ=           -295.2244 YYZZ=           -148.3424
 XXYZ=            -36.7623 YYXZ=            -15.3397 ZZXY=             -3.9248
 N-N= 4.790612993159D+02 E-N=-1.855056754098D+03  KE= 3.834489679450D+02
  Exact polarizability:   0.000   0.000   0.000   0.000   0.000   0.000
 Approx polarizability: 117.616  -1.880 119.068  -3.011  -1.256 119.213
 D2PCM: PCM CHGder 2nd derivatives, FixD1E=F FixD2E=F DoIter=F DoCFld=F I1PDM=0
 Calling FoFJK, ICntrl=    100147 FMM=F ISym2X=0 I1Cent= 0 IOpClX= 0 NMat=1 NMatS=1 NMatT=0.
 ***** Axes restored to original set *****
 -------------------------------------------------------------------
 Center     Atomic                   Forces (Hartrees/Bohr)
 Number     Number              X              Y              Z
 -------------------------------------------------------------------
      1        7          -0.001107573    0.013946732   -0.005497117
      2        6           0.000724929    0.004837769    0.008467704
      3        6           0.004874436   -0.004966291   -0.008137736
      4        6           0.002113431    0.002895499    0.009710186
      5        6          -0.000842551   -0.012340559   -0.002603281
      6        6          -0.001482248   -0.001442592    0.000811365
      7        6          -0.004074060   -0.005024167    0.002315202
      8        6           0.005550125    0.005847935   -0.004533840
      9        7          -0.011367686    0.007640419   -0.006237673
     10        1           0.001383568   -0.001347107   -0.001180286
     11        1          -0.000785502    0.000611081    0.002112730
     12        1          -0.000057718    0.000044955   -0.000916485
     13        1           0.000041079   -0.010594644   -0.000691060
     14        1           0.000536140    0.002023397   -0.000141430
     15        1           0.000373594    0.000382308    0.000534560
     16        1          -0.000560562   -0.000006878   -0.000903576
     17        1           0.001378619    0.000385364   -0.002060705
     18        1           0.000835251    0.001272927   -0.000083720
     19        1          -0.001788228    0.000250875    0.001782448
     20        1          -0.001334359   -0.000378979   -0.000169278
     21        1           0.000706609   -0.000854738    0.000283422
     22        1           0.000869435    0.002469056    0.000372543
     23        1          -0.000461061    0.002789837    0.000416871
     24        1           0.004640024   -0.007602980    0.005221698
     25        1          -0.000811531   -0.000788971    0.000350087
     26        1           0.001063296    0.000330271   -0.001580684
     27        1          -0.000417455   -0.000380518    0.002358055
 -------------------------------------------------------------------
 Cartesian Forces:  Max     0.013946732 RMS     0.004080530
 FormGI is forming the generalized inverse of G from B-inverse, IUseBI=4.

 GradGradGradGradGradGradGradGradGradGradGradGradGradGradGradGradGradGrad
 Berny optimization.
 Internal  Forces:  Max     0.012404969 RMS     0.002930398
 Search for a local minimum.
 Step number   1 out of a maximum of  150
 All quantities printed in internal units (Hartrees-Bohrs-Radians)
 Mixed Optimization -- RFO/linear search
 Second derivative matrix not updated -- analytic derivatives used.
 ITU=  0
     Eigenvalues ---    0.00101   0.00203   0.00215   0.00255   0.00262
     Eigenvalues ---    0.00320   0.00383   0.00786   0.03266   0.03280
     Eigenvalues ---    0.03344   0.03405   0.03754   0.03850   0.03967
     Eigenvalues ---    0.03972   0.04057   0.04127   0.04291   0.04635
     Eigenvalues ---    0.04641   0.04843   0.05269   0.05299   0.06686
     Eigenvalues ---    0.06904   0.07253   0.07427   0.07660   0.08225
     Eigenvalues ---    0.08306   0.09918   0.10139   0.11278   0.12072
     Eigenvalues ---    0.12785   0.13467   0.13580   0.15109   0.15164
     Eigenvalues ---    0.16591   0.17110   0.17719   0.19296   0.21004
     Eigenvalues ---    0.22044   0.24251   0.24425   0.24968   0.27905
     Eigenvalues ---    0.28049   0.28986   0.30451   0.31247   0.32184
     Eigenvalues ---    0.32308   0.32540   0.32579   0.32711   0.32833
     Eigenvalues ---    0.32925   0.33199   0.33330   0.33399   0.33512
     Eigenvalues ---    0.33807   0.33979   0.34129   0.36949   0.38232
     Eigenvalues ---    0.38362   0.43746   0.43903   0.44159   0.44180
 RFO step:  Lambda=-6.00040300D-03 EMin= 1.00943537D-03
 Linear search not attempted -- first point.
 Iteration  1 RMS(Cart)=  0.03666469 RMS(Int)=  0.00047764
 Iteration  2 RMS(Cart)=  0.00076860 RMS(Int)=  0.00023308
 Iteration  3 RMS(Cart)=  0.00000050 RMS(Int)=  0.00023308
 Variable       Old X    -DE/DX   Delta X   Delta X   Delta X     New X
                                 (Linear)    (Quad)   (Total)
    R1        2.75594   0.01210   0.00000   0.02377   0.02377   2.77971
    R2        1.92626  -0.00123   0.00000   0.00001   0.00001   1.92626
    R3        1.92644  -0.00144   0.00000  -0.00190  -0.00190   1.92454
    R4        2.88828   0.00115   0.00000   0.00210   0.00210   2.89037
    R5        2.06973   0.00090   0.00000   0.00427   0.00427   2.07400
    R6        2.07017   0.00543   0.00000   0.01594   0.01594   2.08611
    R7        2.89394   0.00519   0.00000   0.00795   0.00795   2.90189
    R8        2.06758   0.00077   0.00000   0.00332   0.00332   2.07090
    R9        2.07388   0.00062   0.00000   0.00424   0.00424   2.07811
   R10        2.89742   0.00938   0.00000   0.02180   0.02180   2.91922
   R11        2.07181   0.00091   0.00000   0.00524   0.00524   2.07705
   R12        2.07456   0.00010   0.00000   0.00017   0.00017   2.07474
   R13        2.89747   0.00591   0.00000   0.01500   0.01500   2.91247
   R14        2.07010   0.00047   0.00000   0.00406   0.00406   2.07416
   R15        2.07533   0.00003   0.00000  -0.00208  -0.00208   2.07325
   R16        2.89095   0.00673   0.00000   0.01392   0.01392   2.90487
   R17        2.07396   0.00106   0.00000   0.00261   0.00261   2.07657
   R18        2.07384   0.00043   0.00000   0.00141   0.00141   2.07525
   R19        2.88797   0.00042   0.00000   0.00315   0.00315   2.89112
   R20        2.07058   0.00145   0.00000   0.00539   0.00539   2.07597
   R21        2.07539  -0.00043   0.00000  -0.00167  -0.00167   2.07373
   R22        2.75716   0.01240   0.00000   0.02501   0.02501   2.78217
   R23        2.06715   0.00495   0.00000   0.01470   0.01470   2.08185
   R24        2.06957   0.00111   0.00000   0.00487   0.00487   2.07445
   R25        1.92593  -0.00120   0.00000  -0.00110  -0.00110   1.92483
   R26        1.92778  -0.00171   0.00000  -0.00116  -0.00116   1.92662
    A1        1.91381  -0.00216   0.00000  -0.01777  -0.01789   1.89593
    A2        1.90739   0.00207   0.00000  -0.00332  -0.00344   1.90395
    A3        1.85276  -0.00100   0.00000  -0.01828  -0.01854   1.83422
    A4        1.92304   0.00315   0.00000   0.01263   0.01237   1.93541
    A5        1.90257  -0.00291   0.00000  -0.01901  -0.01878   1.88379
    A6        1.90900   0.00616   0.00000   0.06407   0.06423   1.97323
    A7        1.92115  -0.00061   0.00000  -0.01195  -0.01218   1.90897
    A8        1.92619  -0.00535   0.00000  -0.02456  -0.02562   1.90057
    A9        1.88126  -0.00046   0.00000  -0.02136  -0.02167   1.85959
   A10        1.93972   0.00731   0.00000   0.02931   0.02926   1.96897
   A11        1.90597  -0.00333   0.00000  -0.01244  -0.01280   1.89318
   A12        1.91480  -0.00236   0.00000  -0.01274  -0.01280   1.90200
   A13        1.92726  -0.00063   0.00000   0.00977   0.00978   1.93704
   A14        1.90740  -0.00230   0.00000  -0.00633  -0.00620   1.90121
   A15        1.86728   0.00102   0.00000  -0.00923  -0.00937   1.85791
   A16        1.97795   0.00798   0.00000   0.03085   0.03067   2.00861
   A17        1.92786  -0.00278   0.00000  -0.01637  -0.01620   1.91165
   A18        1.88117  -0.00259   0.00000   0.00093   0.00035   1.88152
   A19        1.92941  -0.00329   0.00000  -0.01921  -0.01899   1.91042
   A20        1.88430  -0.00044   0.00000   0.01313   0.01277   1.89707
   A21        1.85801   0.00078   0.00000  -0.01052  -0.01050   1.84751
   A22        2.00172   0.00417   0.00000   0.01645   0.01625   2.01797
   A23        1.93827  -0.00284   0.00000  -0.02552  -0.02542   1.91285
   A24        1.87459   0.00082   0.00000   0.01801   0.01777   1.89237
   A25        1.93548  -0.00102   0.00000  -0.00943  -0.00939   1.92609
   A26        1.85851  -0.00157   0.00000   0.00508   0.00468   1.86318
   A27        1.84557   0.00029   0.00000  -0.00346  -0.00331   1.84226
   A28        2.03265   0.00412   0.00000   0.01532   0.01532   2.04796
   A29        1.88905  -0.00005   0.00000   0.00157   0.00153   1.89059
   A30        1.89660  -0.00253   0.00000  -0.01083  -0.01082   1.88578
   A31        1.89615  -0.00205   0.00000  -0.00396  -0.00402   1.89214
   A32        1.89094  -0.00021   0.00000  -0.00144  -0.00140   1.88955
   A33        1.85014   0.00045   0.00000  -0.00212  -0.00213   1.84801
   A34        1.97565   0.00585   0.00000   0.02434   0.02437   2.00002
   A35        1.91967  -0.00108   0.00000   0.00085   0.00106   1.92073
   A36        1.88128   0.00032   0.00000   0.01613   0.01623   1.89751
   A37        1.93298  -0.00295   0.00000  -0.02428  -0.02440   1.90858
   A38        1.89988  -0.00343   0.00000  -0.01770  -0.01810   1.88178
   A39        1.84918   0.00103   0.00000  -0.00007  -0.00044   1.84875
   A40        1.92152   0.00143   0.00000   0.00662   0.00636   1.92788
   A41        1.93904  -0.00460   0.00000  -0.02162  -0.02257   1.91648
   A42        1.92050  -0.00066   0.00000  -0.01447  -0.01476   1.90573
   A43        1.89993   0.00667   0.00000   0.06654   0.06667   1.96660
   A44        1.90235  -0.00217   0.00000  -0.01775  -0.01763   1.88472
   A45        1.87962  -0.00062   0.00000  -0.01910  -0.01943   1.86019
   A46        1.90775   0.00150   0.00000  -0.00472  -0.00483   1.90291
   A47        1.90994  -0.00159   0.00000  -0.01606  -0.01617   1.89376
   A48        1.85061  -0.00092   0.00000  -0.01755  -0.01780   1.83281
    D1        1.08299   0.00074   0.00000   0.04438   0.04475   1.12774
    D2       -3.09025   0.00009   0.00000   0.02542   0.02547  -3.06478
    D3       -1.03730   0.00139   0.00000   0.02541   0.02479  -1.01251
    D4        3.10714  -0.00050   0.00000   0.01052   0.01103   3.11817
    D5       -1.06610  -0.00114   0.00000  -0.00844  -0.00825  -1.07435
    D6        0.98685   0.00015   0.00000  -0.00845  -0.00893   0.97792
    D7        3.13947  -0.00222   0.00000  -0.01897  -0.01884   3.12063
    D8        1.00907  -0.00397   0.00000  -0.04199  -0.04173   0.96734
    D9       -1.03231  -0.00192   0.00000  -0.01635  -0.01629  -1.04860
   D10        1.04069  -0.00023   0.00000   0.00422   0.00439   1.04508
   D11       -1.08971  -0.00198   0.00000  -0.01880  -0.01850  -1.10821
   D12       -3.13109   0.00007   0.00000   0.00684   0.00694  -3.12415
   D13       -1.03369   0.00404   0.00000   0.05333   0.05298  -0.98071
   D14        3.11910   0.00230   0.00000   0.03032   0.03009  -3.13400
   D15        1.07772   0.00434   0.00000   0.05596   0.05553   1.13325
   D16        3.11773   0.00098   0.00000   0.00730   0.00727   3.12500
   D17       -0.98958   0.00044   0.00000  -0.00773  -0.00786  -0.99744
   D18        1.03367  -0.00159   0.00000  -0.02858  -0.02868   1.00499
   D19       -1.04747   0.00125   0.00000   0.01788   0.01805  -1.02943
   D20        1.12840   0.00072   0.00000   0.00285   0.00292   1.13132
   D21       -3.13153  -0.00132   0.00000  -0.01800  -0.01790   3.13375
   D22        1.00198   0.00075   0.00000   0.00857   0.00861   1.01059
   D23       -3.10533   0.00021   0.00000  -0.00645  -0.00652  -3.11185
   D24       -1.08207  -0.00182   0.00000  -0.02731  -0.02735  -1.10942
   D25        1.69731  -0.00115   0.00000  -0.05156  -0.05181   1.64550
   D26       -0.51400  -0.00073   0.00000  -0.03018  -0.03037  -0.54437
   D27       -2.52417  -0.00005   0.00000  -0.02289  -0.02292  -2.54709
   D28       -0.47773  -0.00090   0.00000  -0.03808  -0.03817  -0.51590
   D29       -2.68904  -0.00048   0.00000  -0.01670  -0.01673  -2.70577
   D30        1.58397   0.00020   0.00000  -0.00942  -0.00928   1.57469
   D31       -2.50362   0.00021   0.00000  -0.02257  -0.02252  -2.52614
   D32        1.56826   0.00063   0.00000  -0.00119  -0.00108   1.56718
   D33       -0.44191   0.00131   0.00000   0.00609   0.00637  -0.43555
   D34       -1.12909   0.00098   0.00000   0.01742   0.01748  -1.11161
   D35        3.01296   0.00081   0.00000   0.01052   0.01054   3.02349
   D36        1.01122   0.00162   0.00000   0.01779   0.01781   1.02903
   D37        1.08366  -0.00038   0.00000  -0.01222  -0.01219   1.07146
   D38       -1.05749  -0.00055   0.00000  -0.01912  -0.01914  -1.07663
   D39       -3.05922   0.00027   0.00000  -0.01185  -0.01187  -3.07109
   D40        3.08333  -0.00141   0.00000  -0.01821  -0.01821   3.06512
   D41        0.94218  -0.00158   0.00000  -0.02511  -0.02516   0.91703
   D42       -1.05955  -0.00077   0.00000  -0.01784  -0.01788  -1.07743
   D43       -1.10521  -0.00089   0.00000  -0.01348  -0.01340  -1.11861
   D44        1.06731  -0.00129   0.00000  -0.02680  -0.02676   1.04055
   D45        3.07576  -0.00045   0.00000  -0.01753  -0.01764   3.05813
   D46        1.03222   0.00034   0.00000  -0.00361  -0.00354   1.02869
   D47       -3.07844  -0.00006   0.00000  -0.01693  -0.01690  -3.09534
   D48       -1.06998   0.00078   0.00000  -0.00766  -0.00778  -1.07776
   D49        3.03472  -0.00031   0.00000  -0.00891  -0.00884   3.02587
   D50       -1.07595  -0.00071   0.00000  -0.02224  -0.02221  -1.09815
   D51        0.93251   0.00013   0.00000  -0.01297  -0.01308   0.91943
   D52       -3.10279   0.00253   0.00000   0.02921   0.02908  -3.07372
   D53        1.07434  -0.00379   0.00000  -0.04460  -0.04428   1.03005
   D54       -1.00566   0.00032   0.00000   0.00221   0.00206  -1.00360
   D55        1.01512   0.00186   0.00000   0.02868   0.02871   1.04384
   D56       -1.09094  -0.00445   0.00000  -0.04513  -0.04465  -1.13558
   D57        3.11225  -0.00034   0.00000   0.00168   0.00170   3.11395
   D58       -1.01119   0.00431   0.00000   0.05292   0.05259  -0.95860
   D59       -3.11725  -0.00201   0.00000  -0.02089  -0.02077  -3.13802
   D60        1.08594   0.00210   0.00000   0.02593   0.02557   1.11151
   D61       -3.08327   0.00016   0.00000  -0.01689  -0.01733  -3.10060
   D62       -1.06367  -0.00099   0.00000  -0.04954  -0.04984  -1.11351
   D63       -0.95386  -0.00033   0.00000   0.00343   0.00384  -0.95002
   D64        1.06574  -0.00148   0.00000  -0.02922  -0.02867   1.03707
   D65        1.09185   0.00146   0.00000   0.00804   0.00786   1.09971
   D66        3.11145   0.00031   0.00000  -0.02461  -0.02465   3.08680
         Item               Value     Threshold  Converged?
 Maximum Force            0.012405     0.000450     NO 
 RMS     Force            0.002930     0.000300     NO 
 Maximum Displacement     0.168856     0.001800     NO 
 RMS     Displacement     0.036838     0.001200     NO 
 Predicted change in Energy=-3.190523D-03
 GradGradGradGradGradGradGradGradGradGradGradGradGradGradGradGradGradGrad

                          Input orientation:                          
 ---------------------------------------------------------------------
 Center     Atomic      Atomic             Coordinates (Angstroms)
 Number     Number       Type             X           Y           Z
 ---------------------------------------------------------------------
      1          7           0        2.978819    2.122962   -0.432939
      2          6           0        2.744770    0.681813   -0.611927
      3          6           0        1.441260    0.252921    0.063605
      4          6           0        1.138308   -1.241102   -0.121401
      5          6           0       -0.156498   -1.736132    0.560352
      6          6           0       -1.413058   -1.757824   -0.331792
      7          6           0       -1.922934   -0.409647   -0.866025
      8          6           0       -2.402515    0.562686    0.213426
      9          7           0       -2.954803    1.781555   -0.400488
     10          1           0        3.114089    2.310026    0.559911
     11          1           0        3.862326    2.374059   -0.872882
     12          1           0        2.679843    0.481202   -1.688995
     13          1           0        3.569737    0.058501   -0.225201
     14          1           0        0.626311    0.870375   -0.330789
     15          1           0        1.506492    0.473232    1.139023
     16          1           0        1.101151   -1.478415   -1.193961
     17          1           0        1.987400   -1.808257    0.282046
     18          1           0       -0.342771   -1.147770    1.468015
     19          1           0        0.004603   -2.765253    0.904765
     20          1           0       -2.226487   -2.239034    0.228824
     21          1           0       -1.210244   -2.413291   -1.189240
     22          1           0       -1.144621    0.074048   -1.471906
     23          1           0       -2.762737   -0.595720   -1.547439
     24          1           0       -1.580850    0.775664    0.915694
     25          1           0       -3.199821    0.086968    0.799129
     26          1           0       -3.230864    2.428621    0.336119
     27          1           0       -2.206906    2.257814   -0.903734
 ---------------------------------------------------------------------
                    Distance matrix (angstroms):
                    1          2          3          4          5
     1  N    0.000000
     2  C    1.470961   0.000000
     3  C    2.471375   1.529520   0.000000
     4  C    3.847267   2.553221   1.535614   0.000000
     5  C    5.070448   3.954498   2.599215   1.544786   0.000000
     6  C    5.861682   4.828855   3.513768   2.611654   1.541212
     7  C    5.534334   4.800345   3.552606   3.258372   2.629526
     8  C    5.640124   5.214398   3.859146   3.987880   3.232570
     9  N    5.943524   5.808552   4.677336   5.095871   4.596503
    10  H    1.019334   2.039775   2.697473   4.120486   5.202704
    11  H    1.018422   2.044682   3.352282   4.588505   5.924421
    12  H    2.088645   1.097513   2.158195   2.792850   4.245110
    13  H    2.157392   1.103923   2.156762   2.758911   4.209826
    14  H    2.667152   2.145335   1.095873   2.182732   2.863703
    15  H    2.713009   2.154685   1.099690   2.159437   2.825188
    16  H    4.132155   2.776118   2.166719   1.099129   2.173871
    17  H    4.116867   2.751953   2.143464   1.097903   2.163090
    18  H    5.034309   4.148065   2.667784   2.174523   1.097597
    19  H    5.876229   4.657375   3.446870   2.159014   1.097117
    20  H    6.823500   5.826801   4.437286   3.527092   2.155847
    21  H    6.220758   5.055205   3.963430   2.833727   2.151743
    22  H    4.720196   4.029430   3.012734   2.960616   2.895377
    23  H    6.449713   5.730611   4.581402   4.203362   3.540593
    24  H    4.942126   4.588402   3.183154   3.540724   2.909323
    25  H    6.621092   6.138656   4.701933   4.629310   3.555632
    26  H    6.264586   6.297486   5.161073   5.724146   5.181425
    27  H    5.208797   5.204616   4.273693   4.903561   4.722216
                    6          7          8          9         10
     6  C    0.000000
     7  C    1.537192   0.000000
     8  C    2.580901   1.529916   0.000000
     9  N    3.861204   2.466342   1.472261   0.000000
    10  H    6.151227   5.899281   5.797082   6.167098   0.000000
    11  H    6.722716   6.420147   6.611306   6.859115   1.617669
    12  H    4.858712   4.759879   5.427358   5.924560   2.930997
    13  H    5.304588   5.549708   6.009525   6.750501   2.427629
    14  H    3.326628   2.902341   3.092673   3.695874   3.009149
    15  H    3.957863   4.069479   4.018093   4.897444   2.508695
    16  H    2.672574   3.224112   4.292145   5.263817   4.634682
    17  H    3.455786   4.308699   4.989733   6.146379   4.278656
    18  H    2.181052   2.913672   2.956721   4.346833   4.973016
    19  H    2.133952   3.521360   4.165015   5.579895   5.962071
    20  H    1.098873   2.153485   2.807287   4.134200   7.023199
    21  H    1.098175   2.151043   3.499346   4.611111   6.638457
    22  H    2.174321   1.098556   2.159030   2.709295   5.221540
    23  H    2.156366   1.097368   2.138296   2.646474   6.886317
    24  H    2.828945   2.167141   1.101668   2.152184   4.952101
    25  H    2.806200   2.156340   1.097750   2.090632   6.698110
    26  H    4.612682   3.348371   2.045221   1.018574   6.350006
    27  H    4.133118   2.682799   2.039551   1.019525   5.518873
                   11         12         13         14         15
    11  H    0.000000
    12  H    2.376386   0.000000
    13  H    2.422170   1.764449   0.000000
    14  H    3.609255   2.492624   3.055167   0.000000
    15  H    3.634674   3.061781   2.508005   1.758633   0.000000
    16  H    4.750656   2.564649   3.065049   2.547028   3.068558
    17  H    4.726624   3.099371   2.499175   3.066463   2.484125
    18  H    5.963716   4.664382   4.430552   2.871885   2.481060
    19  H    6.667427   4.942062   4.686214   3.889847   3.577476
    20  H    7.718033   5.928726   6.251482   4.256765   4.703189
    21  H    6.982103   4.874487   5.466933   3.859059   4.597117
    22  H    5.542417   3.852198   4.876442   2.252218   3.742285
    23  H    7.291506   5.549908   6.502042   3.887842   5.156166
    24  H    5.948280   5.002462   5.323957   2.536583   3.110149
    25  H    7.609226   6.396612   6.846677   4.065677   4.734355
    26  H    7.195693   6.544462   7.223623   4.213157   5.187556
    27  H    6.070423   5.258641   6.218279   3.206302   4.598577
                   16         17         18         19         20
    16  H    0.000000
    17  H    1.752949   0.000000
    18  H    3.046368   2.696751   0.000000
    19  H    2.695000   2.288036   1.747619   0.000000
    20  H    3.698113   4.236183   2.504963   2.389888   0.000000
    21  H    2.493304   3.571509   3.068397   2.446342   1.753289
    22  H    2.744246   4.053267   3.283129   3.876973   3.068105
    23  H    3.979161   5.232691   3.905631   4.286998   2.478539
    24  H    4.089578   4.450906   2.353188   3.879674   3.158645
    25  H    4.992113   5.546757   3.183507   4.291230   2.585133
    26  H    6.030956   6.721930   4.734220   6.145562   4.775697
    27  H    4.998688   5.960806   4.549527   5.778637   4.637318
                   21         22         23         24         25
    21  H    0.000000
    22  H    2.504209   0.000000
    23  H    2.417044   1.752882   0.000000
    24  H    3.838949   2.526498   3.056889   0.000000
    25  H    3.763419   3.062943   2.482637   1.763223   0.000000
    26  H    5.463857   3.628412   3.593546   2.406391   2.387191
    27  H    4.784775   2.494014   2.977577   2.428793   2.932269
                   26         27
    26  H    0.000000
    27  H    1.617065   0.000000
 Stoichiometry    C7H18N2
 Framework group  C1[X(C7H18N2)]
 Deg. of freedom    75
 Full point group                 C1      NOp   1
 Largest Abelian subgroup         C1      NOp   1
 Largest concise Abelian subgroup C1      NOp   1
                         Standard orientation:                         
 ---------------------------------------------------------------------
 Center     Atomic      Atomic             Coordinates (Angstroms)
 Number     Number       Type             X           Y           Z
 ---------------------------------------------------------------------
      1          7           0       -3.325273    1.516980    0.007572
      2          6           0       -2.853356    0.161265    0.328596
      3          6           0       -1.480979   -0.100216   -0.294011
      4          6           0       -0.932315   -1.495369    0.038592
      5          6           0        0.442888   -1.823787   -0.583759
      6          6           0        1.664383   -1.543917    0.313435
      7          6           0        1.925107   -0.083352    0.715595
      8          6           0        2.256313    0.848940   -0.451357
      9          7           0        2.579042    2.197631    0.043043
     10          1           0       -3.468028    1.582080   -0.999615
     11          1           0       -4.248311    1.653663    0.415619
     12          1           0       -2.779489    0.078876    1.420516
     13          1           0       -3.551230   -0.628533    0.000211
     14          1           0       -0.792150    0.682854    0.042522
     15          1           0       -1.558538    0.001596   -1.386227
     16          1           0       -0.879455   -1.618943    1.129472
     17          1           0       -1.663140   -2.235849   -0.312087
     18          1           0        0.546654   -1.301867   -1.543735
     19          1           0        0.467159   -2.893473   -0.826347
     20          1           0        2.560281   -1.929811   -0.192502
     21          1           0        1.556878   -2.139282    1.229935
     22          1           0        1.062360    0.315341    1.266536
     23          1           0        2.768769   -0.056376    1.416824
     24          1           0        1.426408    0.849460   -1.175876
     25          1           0        3.135958    0.463261   -0.982892
     26          1           0        2.757414    2.808906   -0.751954
     27          1           0        1.749836    2.584425    0.492753
 ---------------------------------------------------------------------
 Rotational constants (GHZ):           1.7630172           0.7699106           0.5778299
 Standard basis: 6-31G(d,p) (6D, 7F)
 There are   225 symmetry adapted cartesian basis functions of A   symmetry.
 There are   225 symmetry adapted basis functions of A   symmetry.
   225 basis functions,   378 primitive gaussians,   225 cartesian basis functions
    37 alpha electrons       37 beta electrons
       nuclear repulsion energy       475.3103361940 Hartrees.
 NAtoms=   27 NActive=   27 NUniq=   27 SFac= 1.00D+00 NAtFMM=   60 NAOKFM=F Big=F
 Integral buffers will be    131072 words long.
 Raffenetti 2 integral format.
 Two-electron integral symmetry is turned on.
 ------------------------------------------------------------------------------
 Polarizable Continuum Model (PCM)
 =================================
 Model                : PCM.
 Atomic radii         : UFF (Universal Force Field).
 Polarization charges : Total charges.
 Charge compensation  : None.
 Solution method      : Matrix inversion.
 Cavity type          : Scaled VdW (van der Waals Surface) (Alpha=1.100).
 Cavity algorithm     : GePol (No added spheres)
                        Default sphere list used, NSphG=   27.
                        Lebedev-Laikov grids with approx.  5.0 points / Ang**2.
[...]
    22  H    0.055851
    23  H    0.098113
    24  H    0.107435
    25  H    0.106353
    26  H    0.081530
    27  H   -0.033153
 Sum of Mulliken charges =  -0.00000
 Mulliken charges with hydrogens summed into heavy atoms:
               1
     1  N   -0.152380
     2  C    0.114161
     3  C   -0.065381
     4  C   -0.001415
     5  C   -0.005712
     6  C    0.004255
     7  C    0.002783
     8  C    0.126074
     9  N   -0.022384
 Electronic spatial extent (au):  <R**2>=           2053.8118
 Charge=              0.0000 electrons
 Dipole moment (field-independent basis, Debye):
    X=              1.4579    Y=             -1.3002    Z=             -1.3312  Tot=              2.3639
 Quadrupole moment (field-independent basis, Debye-Ang):
   XX=            -48.1107   YY=            -64.5550   ZZ=            -59.9244
   XY=              2.9074   XZ=              1.0454   YZ=             -2.4709
 Traceless Quadrupole moment (field-independent basis, Debye-Ang):
   XX=              9.4193   YY=             -7.0250   ZZ=             -2.3944
   XY=              2.9074   XZ=              1.0454   YZ=             -2.4709
 Octapole moment (field-independent basis, Debye-Ang**2):
  XXX=            -36.2149  YYY=            -11.1686  ZZZ=             -0.6649  XYY=              7.2616
  XXY=             16.6308  XXZ=             -4.9053  XZZ=             -6.1184  YZZ=              0.4066
  YYZ=             -4.4707  XYZ=              3.8005
 Hexadecapole moment (field-independent basis, Debye-Ang**3):
 XXXX=          -1546.9717 YYYY=           -836.9050 ZZZZ=           -187.8530 XXXY=            -60.6425
 XXXZ=             10.3412 YYYX=              9.3602 YYYZ=             -8.2289 ZZZX=              6.1534
 ZZZY=             -4.3895 XXYY=           -415.7098 XXZZ=           -314.7708 YYZZ=           -167.1477
 XXYZ=             -6.7374 YYXZ=             11.1302 ZZXY=            -13.3398
 N-N= 4.745990544818D+02 E-N=-1.845032287534D+03  KE= 3.834512171953D+02
 Evaluate density.
 Using the total density.
 Monte-Carlo method of calculating molar volume:
 based on  0.001 e/bohr**3 density envelope.
 Number of points per bohr**3 =   20 CutOff= 1.00D-04
 Using the CI density.
 There are       380 points.  Will hold       380 in memory.
 LenV=  1073603954 MDV=  1073741824.
 Box volume = 6896.366 fraction occupied=0.208
 Integrated density= 6.0230750812112504D+01 error=-1.3769249187887496D+01
 Molar volume = 1433.718 bohr**3/mol (127.943 cm**3/mol)
 Recommended a0 for SCRF calculation =  4.57 angstrom (  8.64 bohr)
 ******************************Gaussian NBO Version 3.1******************************
             N A T U R A L   A T O M I C   O R B I T A L   A N D
          N A T U R A L   B O N D   O R B I T A L   A N A L Y S I S
 ******************************Gaussian NBO Version 3.1******************************
       /RESON  / : Allow strongly delocalized NBO set

 Analyzing the CI density

 Job title: PWSKHLMYTZNYKO-UHFFFAOYSA-N_conf_3                              

 Storage needed:    154314 in NPA (1073737909 available)
 GSVD:  LWork=       26871 too small for GESVD, short by       19674 words or       19674 for optimal perf.


 NATURAL POPULATIONS:  Natural atomic orbital occupancies 
                                                          
   NAO  Atom  No  lang   Type(AO)    Occupancy
 --------------------------------------------
     1    N    1  S      Cor( 1S)     1.99968
     2    N    1  S      Val( 2S)     1.44813
     3    N    1  S      Ryd( 3S)     0.00049
     4    N    1  S      Ryd( 4S)     0.00000
     5    N    1  px     Val( 2p)     1.55471
     6    N    1  px     Ryd( 3p)     0.00363
     7    N    1  py     Val( 2p)     1.47822
     8    N    1  py     Ryd( 3p)     0.00362
     9    N    1  pz     Val( 2p)     1.43343
    10    N    1  pz     Ryd( 3p)     0.00247
    11    N    1  dxy    Ryd( 3d)     0.00088
    12    N    1  dxz    Ryd( 3d)     0.00067
    13    N    1  dyz    Ryd( 3d)     0.00049
    14    N    1  dx2y2  Ryd( 3d)     0.00143
    15    N    1  dz2    Ryd( 3d)     0.00115

    16    C    2  S      Cor( 1S)     1.99935
    17    C    2  S      Val( 2S)     1.01999
    18    C    2  S      Ryd( 3S)     0.00205
    19    C    2  S      Ryd( 4S)     0.00004
    20    C    2  px     Val( 2p)     1.07921
    21    C    2  px     Ryd( 3p)     0.00149
    22    C    2  py     Val( 2p)     0.94654
    23    C    2  py     Ryd( 3p)     0.00322
    24    C    2  pz     Val( 2p)     1.19928
    25    C    2  pz     Ryd( 3p)     0.00185
    26    C    2  dxy    Ryd( 3d)     0.00125
    27    C    2  dxz    Ryd( 3d)     0.00045
    28    C    2  dyz    Ryd( 3d)     0.00064
    29    C    2  dx2y2  Ryd( 3d)     0.00127
    30    C    2  dz2    Ryd( 3d)     0.00126

    31    C    3  S      Cor( 1S)     1.99931
    32    C    3  S      Val( 2S)     1.04681
    33    C    3  S      Ryd( 3S)     0.00169
    34    C    3  S      Ryd( 4S)     0.00003
    35    C    3  px     Val( 2p)     1.09509
    36    C    3  px     Ryd( 3p)     0.00230
    37    C    3  py     Val( 2p)     1.11550
    38    C    3  py     Ryd( 3p)     0.00294
    39    C    3  pz     Val( 2p)     1.20638
    40    C    3  pz     Ryd( 3p)     0.00275
    41    C    3  dxy    Ryd( 3d)     0.00070
    42    C    3  dxz    Ryd( 3d)     0.00037
    43    C    3  dyz    Ryd( 3d)     0.00039
    44    C    3  dx2y2  Ryd( 3d)     0.00061
    45    C    3  dz2    Ryd( 3d)     0.00097

    46    C    4  S      Cor( 1S)     1.99934
    47    C    4  S      Val( 2S)     1.03429
    48    C    4  S      Ryd( 3S)     0.00078
    49    C    4  S      Ryd( 4S)     0.00002
    50    C    4  px     Val( 2p)     1.10478
    51    C    4  px     Ryd( 3p)     0.00272
    52    C    4  py     Val( 2p)     1.10644
    53    C    4  py     Ryd( 3p)     0.00219
    54    C    4  pz     Val( 2p)     1.21277
    55    C    4  pz     Ryd( 3p)     0.00285
    56    C    4  dxy    Ryd( 3d)     0.00085
    57    C    4  dxz    Ryd( 3d)     0.00041
    58    C    4  dyz    Ryd( 3d)     0.00043
    59    C    4  dx2y2  Ryd( 3d)     0.00055
    60    C    4  dz2    Ryd( 3d)     0.00092

    61    C    5  S      Cor( 1S)     1.99933
    62    C    5  S      Val( 2S)     1.03309
    63    C    5  S      Ryd( 3S)     0.00076
    64    C    5  S      Ryd( 4S)     0.00002
    65    C    5  px     Val( 2p)     1.03026
    66    C    5  px     Ryd( 3p)     0.00171
    67    C    5  py     Val( 2p)     1.23156
    68    C    5  py     Ryd( 3p)     0.00448
    69    C    5  pz     Val( 2p)     1.15899
    70    C    5  pz     Ryd( 3p)     0.00165
    71    C    5  dxy    Ryd( 3d)     0.00036
    72    C    5  dxz    Ryd( 3d)     0.00060
    73    C    5  dyz    Ryd( 3d)     0.00054
    74    C    5  dx2y2  Ryd( 3d)     0.00099
    75    C    5  dz2    Ryd( 3d)     0.00072

    76    C    6  S      Cor( 1S)     1.99933
    77    C    6  S      Val( 2S)     1.03361
    78    C    6  S      Ryd( 3S)     0.00071
    79    C    6  S      Ryd( 4S)     0.00002
    80    C    6  px     Val( 2p)     1.14380
    81    C    6  px     Ryd( 3p)     0.00257
    82    C    6  py     Val( 2p)     1.09237
    83    C    6  py     Ryd( 3p)     0.00176
    84    C    6  pz     Val( 2p)     1.18560
    85    C    6  pz     Ryd( 3p)     0.00392
    86    C    6  dxy    Ryd( 3d)     0.00054
    87    C    6  dxz    Ryd( 3d)     0.00067
    88    C    6  dyz    Ryd( 3d)     0.00076
    89    C    6  dx2y2  Ryd( 3d)     0.00069
    90    C    6  dz2    Ryd( 3d)     0.00051

    91    C    7  S      Cor( 1S)     1.99930
    92    C    7  S      Val( 2S)     1.04480
    93    C    7  S      Ryd( 3S)     0.00099
    94    C    7  S      Ryd( 4S)     0.00002
    95    C    7  px     Val( 2p)     1.24448
    96    C    7  px     Ryd( 3p)     0.00382
    97    C    7  py     Val( 2p)     1.05810
    98    C    7  py     Ryd( 3p)     0.00395
    99    C    7  pz     Val( 2p)     1.13050
   100    C    7  pz     Ryd( 3p)     0.00441
   101    C    7  dxy    Ryd( 3d)     0.00048
   102    C    7  dxz    Ryd( 3d)     0.00095
   103    C    7  dyz    Ryd( 3d)     0.00072
   104    C    7  dx2y2  Ryd( 3d)     0.00062
   105    C    7  dz2    Ryd( 3d)     0.00030

   106    C    8  S      Cor( 1S)     1.99930
   107    C    8  S      Val( 2S)     1.06211
   108    C    8  S      Ryd( 3S)     0.00240
   109    C    8  S      Ryd( 4S)     0.00003
   110    C    8  px     Val( 2p)     1.21744
   111    C    8  px     Ryd( 3p)     0.00219
   112    C    8  py     Val( 2p)     0.91729
   113    C    8  py     Ryd( 3p)     0.01088
   114    C    8  pz     Val( 2p)     1.14753
   115    C    8  pz     Ryd( 3p)     0.00140
   116    C    8  dxy    Ryd( 3d)     0.00070
   117    C    8  dxz    Ryd( 3d)     0.00105
   118    C    8  dyz    Ryd( 3d)     0.00092
   119    C    8  dx2y2  Ryd( 3d)     0.00116
   120    C    8  dz2    Ryd( 3d)     0.00056

   121    N    9  S      Cor( 1S)     1.99934
   122    N    9  S      Val( 2S)     1.50243
   123    N    9  S      Ryd( 3S)     0.01668
   124    N    9  S      Ryd( 4S)     0.00002
   125    N    9  px     Val( 2p)     1.24545
   126    N    9  px     Ryd( 3p)     0.00059
   127    N    9  py     Val( 2p)     1.32559
   128    N    9  py     Ryd( 3p)     0.00328
   129    N    9  pz     Val( 2p)     1.26906
   130    N    9  pz     Ryd( 3p)     0.00000
   131    N    9  dxy    Ryd( 3d)     0.00056
   132    N    9  dxz    Ryd( 3d)     0.00000
   133    N    9  dyz    Ryd( 3d)     0.00084
   134    N    9  dx2y2  Ryd( 3d)     0.00031
   135    N    9  dz2    Ryd( 3d)     0.00054

   136    H   10  S      Val( 1S)     0.61586
   137    H   10  S      Ryd( 2S)     0.00174
   138    H   10  px     Ryd( 2p)     0.00045
   139    H   10  py     Ryd( 2p)     0.00037
   140    H   10  pz     Ryd( 2p)     0.00060

   141    H   11  S      Val( 1S)     0.60977
   142    H   11  S      Ryd( 2S)     0.00128
   143    H   11  px     Ryd( 2p)     0.00065
   144    H   11  py     Ryd( 2p)     0.00038
   145    H   11  pz     Ryd( 2p)     0.00039

   146    H   12  S      Val( 1S)     0.77855
   147    H   12  S      Ryd( 2S)     0.00242
   148    H   12  px     Ryd( 2p)     0.00010
   149    H   12  py     Ryd( 2p)     0.00007
   150    H   12  pz     Ryd( 2p)     0.00039

   151    H   13  S      Val( 1S)     0.79886
   152    H   13  S      Ryd( 2S)     0.00216
   153    H   13  px     Ryd( 2p)     0.00023
   154    H   13  py     Ryd( 2p)     0.00021
   155    H   13  pz     Ryd( 2p)     0.00013

   156    H   14  S      Val( 1S)     0.80907
   157    H   14  S      Ryd( 2S)     0.03802
   158    H   14  px     Ryd( 2p)     0.00020
   159    H   14  py     Ryd( 2p)     0.00021
   160    H   14  pz     Ryd( 2p)     0.00012

   161    H   15  S      Val( 1S)     0.78208
   162    H   15  S      Ryd( 2S)     0.00597
   163    H   15  px     Ryd( 2p)     0.00010
   164    H   15  py     Ryd( 2p)     0.00010
   165    H   15  pz     Ryd( 2p)     0.00035

   166    H   16  S      Val( 1S)     0.77077
   167    H   16  S      Ryd( 2S)     0.00226
   168    H   16  px     Ryd( 2p)     0.00010
   169    H   16  py     Ryd( 2p)     0.00011
   170    H   16  pz     Ryd( 2p)     0.00035

   171    H   17  S      Val( 1S)     0.76427
   172    H   17  S      Ryd( 2S)     0.00185
   173    H   17  px     Ryd( 2p)     0.00022
   174    H   17  py     Ryd( 2p)     0.00022
   175    H   17  pz     Ryd( 2p)     0.00014

   176    H   18  S      Val( 1S)     0.77181
   177    H   18  S      Ryd( 2S)     0.00201
   178    H   18  px     Ryd( 2p)     0.00010
   179    H   18  py     Ryd( 2p)     0.00015
   180    H   18  pz     Ryd( 2p)     0.00031

   181    H   19  S      Val( 1S)     0.75651
   182    H   19  S      Ryd( 2S)     0.00152
   183    H   19  px     Ryd( 2p)     0.00010
   184    H   19  py     Ryd( 2p)     0.00035
   185    H   19  pz     Ryd( 2p)     0.00012

   186    H   20  S      Val( 1S)     0.76178
   187    H   20  S      Ryd( 2S)     0.00166
   188    H   20  px     Ryd( 2p)     0.00028
   189    H   20  py     Ryd( 2p)     0.00015
   190    H   20  pz     Ryd( 2p)     0.00014

   191    H   21  S      Val( 1S)     0.75563
   192    H   21  S      Ryd( 2S)     0.00140
   193    H   21  px     Ryd( 2p)     0.00010
   194    H   21  py     Ryd( 2p)     0.00018
   195    H   21  pz     Ryd( 2p)     0.00028

   196    H   22  S      Val( 1S)     0.77573
   197    H   22  S      Ryd( 2S)     0.02205
   198    H   22  px     Ryd( 2p)     0.00026
   199    H   22  py     Ryd( 2p)     0.00015
   200    H   22  pz     Ryd( 2p)     0.00016

   201    H   23  S      Val( 1S)     0.75051
   202    H   23  S      Ryd( 2S)     0.00468
   203    H   23  px     Ryd( 2p)     0.00024
   204    H   23  py     Ryd( 2p)     0.00008
   205    H   23  pz     Ryd( 2p)     0.00023

   206    H   24  S      Val( 1S)     0.72484
   207    H   24  S      Ryd( 2S)     0.03252
   208    H   24  px     Ryd( 2p)     0.00028
   209    H   24  py     Ryd( 2p)     0.00007
   210    H   24  pz     Ryd( 2p)     0.00022

   211    H   25  S      Val( 1S)     0.74941
   212    H   25  S      Ryd( 2S)     0.01773
   213    H   25  px     Ryd( 2p)     0.00027
   214    H   25  py     Ryd( 2p)     0.00013
   215    H   25  pz     Ryd( 2p)     0.00013

   216    H   26  S      Val( 1S)     0.68297
   217    H   26  S      Ryd( 2S)     0.06811
   218    H   26  px     Ryd( 2p)     0.00019
   219    H   26  py     Ryd( 2p)     0.00041
   220    H   26  pz     Ryd( 2p)     0.00062

   221    H   27  S      Val( 1S)     0.74274
   222    H   27  S      Ryd( 2S)     0.09232
   223    H   27  px     Ryd( 2p)     0.00064
   224    H   27  py     Ryd( 2p)     0.00031
   225    H   27  pz     Ryd( 2p)     0.00023


 Summary of Natural Population Analysis:                  
                                                          
                                       Natural Population 
                Natural  -----------------------------------------------
    Atom  No    Charge         Core      Valence    Rydberg      Total
 -----------------------------------------------------------------------
      N    1   -0.92901      1.99968     5.91450    0.01483     7.92901
      C    2   -0.25788      1.99935     4.24502    0.01351     6.25788
      C    3   -0.47582      1.99931     4.46378    0.01274     6.47582
      C    4   -0.46934      1.99934     4.45827    0.01173     6.46934
      C    5   -0.46505      1.99933     4.45390    0.01181     6.46505
      C    6   -0.46686      1.99933     4.45537    0.01215     6.46686
      C    7   -0.49345      1.99930     4.47787    0.01627     6.49345
      C    8   -0.36495      1.99930     4.34437    0.02128     6.36495
      N    9   -0.36468      1.99934     5.34253    0.02281     7.36468
      H   10    0.38097      0.00000     0.61586    0.00317     0.61903
      H   11    0.38753      0.00000     0.60977    0.00269     0.61247
      H   12    0.21847      0.00000     0.77855    0.00298     0.78153
      H   13    0.19840      0.00000     0.79886    0.00274     0.80160
      H   14    0.15237      0.00000     0.80907    0.03856     0.84763
      H   15    0.21140      0.00000     0.78208    0.00652     0.78860
      H   16    0.22641      0.00000     0.77077    0.00282     0.77359
      H   17    0.23332      0.00000     0.76427    0.00242     0.76668
      H   18    0.22561      0.00000     0.77181    0.00258     0.77439
      H   19    0.24141      0.00000     0.75651    0.00208     0.75859
      H   20    0.23599      0.00000     0.76178    0.00223     0.76401
      H   21    0.24241      0.00000     0.75563    0.00195     0.75759
      H   22    0.20164      0.00000     0.77573    0.02263     0.79836
      H   23    0.24427      0.00000     0.75051    0.00523     0.75573
      H   24    0.24207      0.00000     0.72484    0.03309     0.75793
      H   25    0.23233      0.00000     0.74941    0.01826     0.76767
      H   26    0.24770      0.00000     0.68297    0.06932     0.75230
      H   27    0.16376      0.00000     0.74274    0.09349     0.83624
 =======================================================================
   * Total *   -0.00097     17.99428    55.55680    0.44990    74.00097

                                 Natural Population      
 --------------------------------------------------------
   Core                      17.99428 ( 99.9682% of  18)
   Valence                   55.55680 ( 99.2086% of  56)
   Natural Minimal Basis     73.55108 ( 99.3933% of  74)
   Natural Rydberg Basis      0.44990 (  0.6080% of  74)
 --------------------------------------------------------

    Atom  No          Natural Electron Configuration
 ----------------------------------------------------------------------------
      N    1      [core]2S( 1.45)2p( 4.47)3p( 0.01)
      C    2      [core]2S( 1.02)2p( 3.23)3p( 0.01)
      C    3      [core]2S( 1.05)2p( 3.42)3p( 0.01)
      C    4      [core]2S( 1.03)2p( 3.42)3p( 0.01)
      C    5      [core]2S( 1.03)2p( 3.42)3p( 0.01)
      C    6      [core]2S( 1.03)2p( 3.42)3p( 0.01)
      C    7      [core]2S( 1.04)2p( 3.43)3p( 0.01)
      C    8      [core]2S( 1.06)2p( 3.28)3p( 0.01)
      N    9      [core]2S( 1.50)2p( 3.84)3S( 0.02)
      H   10            1S( 0.62)
      H   11            1S( 0.61)
      H   12            1S( 0.78)
      H   13            1S( 0.80)
      H   14            1S( 0.81)2S( 0.04)
      H   15            1S( 0.78)2S( 0.01)
      H   16            1S( 0.77)
      H   17            1S( 0.76)
      H   18            1S( 0.77)
      H   19            1S( 0.76)
      H   20            1S( 0.76)
      H   21            1S( 0.76)
      H   22            1S( 0.78)2S( 0.02)
      H   23            1S( 0.75)
      H   24            1S( 0.72)2S( 0.03)
      H   25            1S( 0.75)2S( 0.02)
      H   26            1S( 0.68)2S( 0.07)
      H   27            1S( 0.74)2S( 0.09)


 NBO analysis skipped by request.
 1\1\GINC-CN34\SP\RB3LYP TD-FC\6-31G(d,p)\C7H18N2\QDUEZ\09-Jul-2024\0\\
 # TD(NStates=10, Root=1) B3LYP/6-31G** SCRF=(Solvent=water) volume pop
 =NPA density=current Geom=AllCheck Guess=Read\\PWSKHLMYTZNYKO-UHFFFAOY
 SA-N_conf_3\\0,1\N,0,2.9927900689,2.1116325181,-0.4709966104\C,0,2.773
 2196608,0.6616583527,-0.5995501859\C,0,1.4344786737,0.25472681,0.01931
 45081\C,0,1.1546082632,-1.2504777336,-0.1022706138\C,0,-0.1565094099,-
 1.7395892108,0.5507258688\C,0,-1.4064607964,-1.7413555868,-0.352084667
 \C,0,-1.92359292,-0.3868764997,-0.8639111023\C,0,-2.4145073201,0.56366
 56949,0.2301866956\N,0,-2.9916003675,1.7820798793,-0.3647316945\H,0,3.
 10770829,2.337407862,0.516437423\H,0,3.8843772614,2.3514329423,-0.9011
 210423\H,0,2.7665408907,0.4177238814,-1.6697662784\H,0,3.5771588716,0.
 0542630632,-0.1477245535\H,0,0.6412648889,0.8448949869,-0.4524263364\H
 ,0,1.4345476204,0.5325115653,1.0836438469\H,0,1.1631396126,-1.54165326
 79,-1.162541617\H,0,1.9953420255,-1.7854628116,0.3590777954\H,0,-0.346
 4984883,-1.1605889641,1.4640517721\H,0,-0.0093088554,-2.7740580708,0.8
 85523042\H,0,-2.2208406403,-2.2375908497,0.1941068588\H,0,-1.197443782
 4,-2.379584164,-1.2211674369\H,0,-1.1467764735,0.1136592419,-1.4574258
 05\H,0,-2.7583545037,-0.5660177603,-1.5532523726\H,0,-1.5957307325,0.7
 74725365,0.936952667\H,0,-3.2035995464,0.066804678,0.8097642663\H,0,-3
 .3070140384,2.3974561539,0.3833220588\H,0,-2.2469382527,2.2986119242,-
 0.8319476278\\Version=EM64L-G16RevA.03\State=1-A\HF=-387.1116914\RMSD=
 1.401e-09\Dipole=-0.4775332,-0.5431469,0.5847431\Quadrupole=7.3838074,
 -5.1890818,-2.1947257,-0.0648967,0.3592663,2.2651986\PG=C01 [X(C7H18N2
 )]\\@


 HE THAT FOLLOWS NATURE IS NEVER LOST.

                             -- BACON
 Job cpu time:       0 days  1 hours 16 minutes 23.7 seconds.
 Elapsed time:       0 days  0 hours 38 minutes 42.9 seconds.
 File lengths (MBytes):  RWF=    456 Int=      0 D2E=      0 Chk=     29 Scr=      1
 Normal termination of Gaussian 16 at Tue Jul  9 19:56:26 2024.
