 Entering Gaussian System, Link 0=g16
 Initial command:
 /opt/sw/arch/manual/gaussian/G16_A03/g16/l1.exe "/scratch/1381514/Gau-40093.inp" -scrdir="/scratch/1381514/"
 Entering Link 1 = /opt/sw/arch/manual/gaussian/G16_A03/g16/l1.exe PID=     40094.
  
 Copyright (c) 1988,1990,1992,1993,1995,1998,2003,2009,2016,
            Gaussian, Inc.  All Rights Reserved.
  
 This is part of the Gaussian(R) 16 program.  It is based on
 the Gaussian(R) 09 system (copyright 2009, Gaussian, Inc.),
 the Gaussian(R) 03 system (copyright 2003, Gaussian, Inc.),
 the Gaussian(R) 98 system (copyright 1998, Gaussian, Inc.),
 the Gaussian(R) 94 system (copyright 1995, Gaussian, Inc.),
 the Gaussian 92(TM) system (copyright 1992, Gaussian, Inc.),
 the Gaussian 90(TM) system (copyright 1990, Gaussian, Inc.),
 the Gaussian 88(TM) system (copyright 1988, Gaussian, Inc.),
 the Gaussian 86(TM) system (copyright 1986, Carnegie Mellon
 University), and the Gaussian 82(TM) system (copyright 1983,
 Carnegie Mellon University). Gaussian is a federally registered
 trademark of Gaussian, Inc.
  
 This software contains proprietary and confidential information,
 including trade secrets, belonging to Gaussian, Inc.
  
 This software is provided under written license and may be
 used, copied, transmitted, or stored only in accord with that
 written license.
  
 The following legend is applicable only to US Government
 contracts under FAR:
  
                    RESTRICTED RIGHTS LEGEND
  
 Use, reproduction and disclosure by the US Government is
 subject to restrictions as set forth in subparagraphs (a)
 and (c) of the Commercial Computer Software - Restricted
 Rights clause in FAR 52.227-19.
  
 Gaussian, Inc.
 340 Quinnipiac St., Bldg. 40, Wallingford CT 06492
  
  
 ---------------------------------------------------------------
 Warning -- This program may not be used in any manner that
 competes with the business of Gaussian, Inc. or will provide
 assistance to any competitor of Gaussian, Inc.  The licensee
 of this program is prohibited from giving any competitor of
 Gaussian, Inc. access to this program.  By using this program,
 the user acknowledges that Gaussian, Inc. is engaged in the
 business of creating and licensing software in the field of
 computational chemistry and represents and warrants to the
 licensee that it is not a competitor of Gaussian, Inc. and that
 it will not use this program in any manner prohibited above.
 ---------------------------------------------------------------
  

 Cite this work as:
 Gaussian 16, Revision A.03,
 M. J. Frisch, G. W. Trucks, H. B. Schlegel, G. E. Scuseria, 
 M. A. Robb, J. R. Cheeseman, G. Scalmani, V. Barone, 
 G. A. Petersson, H. Nakatsuji, X. Li, M. Caricato, A. V. Marenich, 
 J. Bloino, B. G. Janesko, R. Gomperts, B. Mennucci, H. P. Hratchian, 
 J. V. Ortiz, A. F. Izmaylov, J. L. Sonnenberg, D. Williams-Young, 
 F. Ding, F. Lipparini, F. Egidi, J. Goings, B. Peng, A. Petrone, 
 T. Henderson, D. Ranasinghe, V. G. Zakrzewski, J. Gao, N. Rega, 
 G. Zheng, W. Liang, M. Hada, M. Ehara, K. Toyota, R. Fukuda, 
 J. Hasegawa, M. Ishida, T. Nakajima, Y. Honda, O. Kitao, H. Nakai, 
 T. Vreven, K. Throssell, J. A. Montgomery, Jr., J. E. Peralta, 
 F. Ogliaro, M. J. Bearpark, J. J. Heyd, E. N. Brothers, K. N. Kudin, 
 V. N. Staroverov, T. A. Keith, R. Kobayashi, J. Normand, 
 K. Raghavachari, A. P. Rendell, J. C. Burant, S. S. Iyengar, 
 J. Tomasi, M. Cossi, J. M. Millam, M. Klene, C. Adamo, R. Cammi, 
 J. W. Ochterski, R. L. Martin, K. Morokuma, O. Farkas, 
 J. B. Foresman, and D. J. Fox, Gaussian, Inc., Wallingford CT, 2016.
 
 ******************************************
 Gaussian 16:  ES64L-G16RevA.03 25-Dec-2016
                21-Jul-2024 
 ******************************************
 %nprocshared=2
 Will use up to    2 processors via shared memory.
 %mem=4GB
 %Chk=WZCQRUWWHSTZEM-UHFFFAOYSA-N_conf_0_0.chk
 -------------------------------------------------------
 # opt=CalcFc B3LYP/6-31G** SCRF=(Solvent=water) scf=xqc
 -------------------------------------------------------
 1/10=4,18=20,19=15,26=3,38=1/1,3;
 2/9=110,12=2,17=6,18=5,40=1/2;
 3/5=1,6=6,7=101,11=2,25=1,30=1,70=2201,71=2,72=1,74=-5,140=1/1,2,3;
 4//1;
 5/5=2,8=3,13=1,38=5,53=1/2,8;
 8/6=4,10=90,11=11/1;
 11/6=1,8=1,9=11,15=111,16=1/1,2,10;
 10/6=1,13=1/2;
 6/7=2,8=2,9=2,10=2,28=1/1;
 7/10=1,18=20,25=1/1,2,3,16;
 1/10=4,18=20,19=15,26=3/3(2);
 2/9=110/2;
 99//99;
 2/9=110/2;
 3/5=1,6=6,7=101,11=2,25=1,30=1,70=2205,71=1,72=1,74=-5/1,2,3;
 4/5=5,16=3,69=1/1;
 5/5=2,8=3,13=1,38=5,53=1/2,8;
 7//1,2,3,16;
 1/18=20,19=15,26=3/3(-5);
 2/9=110/2;
 6/7=2,8=2,9=2,10=2,19=2,28=1/1;
 99/9=1/99;
 ----------------------------------
 WZCQRUWWHSTZEM-UHFFFAOYSA-N_conf_0
 ----------------------------------
 Symbolic Z-matrix:
 Charge =  0 Multiplicity = 1
 N                    -2.38893  -0.86485  -0.63851 
 C                    -1.18518  -0.20949  -0.34443 
 C                     0.00296  -0.93868  -0.21487 
 C                     1.18689  -0.33135   0.22062 
 N                     2.39494  -1.04217   0.20198 
 C                     1.18371   1.04196   0.46841 
 C                    -0.00557   1.7685    0.40482 
 C                    -1.19057   1.13486   0.02988 
 H                    -2.26633  -1.70454  -1.19582 
 H                    -3.10159  -0.25128  -1.02079 
 H                     0.0063   -1.99738  -0.45722 
 H                     2.27813  -2.0414    0.33835 
 H                     3.10443  -0.65173   0.81409 
 H                     2.10418   1.554     0.73428 
 H                    -0.00891   2.82748   0.64723 
 H                    -2.11445   1.70605   0.01197 
 

 GradGradGradGradGradGradGradGradGradGradGradGradGradGradGradGradGradGrad
 Berny optimization.
 Initialization pass.
                           ----------------------------
                           !    Initial Parameters    !
                           ! (Angstroms and Degrees)  !
 --------------------------                            --------------------------
 ! Name  Definition              Value          Derivative Info.                !
 --------------------------------------------------------------------------------
 ! R1    R(1,2)                  1.4018         calculate D2E/DX2 analytically  !
 ! R2    R(1,9)                  1.0152         calculate D2E/DX2 analytically  !
 ! R3    R(1,10)                 1.0151         calculate D2E/DX2 analytically  !
 ! R4    R(2,3)                  1.4001         calculate D2E/DX2 analytically  !
 ! R5    R(2,8)                  1.3955         calculate D2E/DX2 analytically  !
 ! R6    R(3,4)                  1.4001         calculate D2E/DX2 analytically  !
 ! R7    R(3,11)                 1.0861         calculate D2E/DX2 analytically  !
 ! R8    R(4,5)                  1.4018         calculate D2E/DX2 analytically  !
 ! R9    R(4,6)                  1.3955         calculate D2E/DX2 analytically  !
 ! R10   R(5,12)                 1.0152         calculate D2E/DX2 analytically  !
 ! R11   R(5,13)                 1.0151         calculate D2E/DX2 analytically  !
 ! R12   R(6,7)                  1.3951         calculate D2E/DX2 analytically  !
 ! R13   R(6,14)                 1.0863         calculate D2E/DX2 analytically  !
 ! R14   R(7,8)                  1.3951         calculate D2E/DX2 analytically  !
 ! R15   R(7,15)                 1.0864         calculate D2E/DX2 analytically  !
 ! R16   R(8,16)                 1.0863         calculate D2E/DX2 analytically  !
 ! A1    A(2,1,9)              113.4622         calculate D2E/DX2 analytically  !
 ! A2    A(2,1,10)             113.5332         calculate D2E/DX2 analytically  !
 ! A3    A(9,1,10)             112.2084         calculate D2E/DX2 analytically  !
 ! A4    A(1,2,3)              120.3088         calculate D2E/DX2 analytically  !
 ! A5    A(1,2,8)              120.2213         calculate D2E/DX2 analytically  !
 ! A6    A(3,2,8)              118.6981         calculate D2E/DX2 analytically  !
 ! A7    A(2,3,4)              121.3645         calculate D2E/DX2 analytically  !
 ! A8    A(2,3,11)             119.3178         calculate D2E/DX2 analytically  !
 ! A9    A(4,3,11)             119.3178         calculate D2E/DX2 analytically  !
 ! A10   A(3,4,5)              120.3088         calculate D2E/DX2 analytically  !
 ! A11   A(3,4,6)              118.6981         calculate D2E/DX2 analytically  !
 ! A12   A(5,4,6)              120.2213         calculate D2E/DX2 analytically  !
 ! A13   A(4,5,12)             113.4622         calculate D2E/DX2 analytically  !
 ! A14   A(4,5,13)             113.5332         calculate D2E/DX2 analytically  !
 ! A15   A(12,5,13)            112.2083         calculate D2E/DX2 analytically  !
 ! A16   A(4,6,7)              120.4212         calculate D2E/DX2 analytically  !
 ! A17   A(4,6,14)             120.3564         calculate D2E/DX2 analytically  !
 ! A18   A(7,6,14)             119.2092         calculate D2E/DX2 analytically  !
 ! A19   A(6,7,8)              119.9871         calculate D2E/DX2 analytically  !
 ! A20   A(6,7,15)             120.0065         calculate D2E/DX2 analytically  !
 ! A21   A(8,7,15)             120.0064         calculate D2E/DX2 analytically  !
 ! A22   A(2,8,7)              120.4212         calculate D2E/DX2 analytically  !
 ! A23   A(2,8,16)             120.3564         calculate D2E/DX2 analytically  !
 ! A24   A(7,8,16)             119.2092         calculate D2E/DX2 analytically  !
 ! D1    D(9,1,2,3)            -30.3533         calculate D2E/DX2 analytically  !
 ! D2    D(9,1,2,8)            159.8391         calculate D2E/DX2 analytically  !
 ! D3    D(10,1,2,3)          -160.029          calculate D2E/DX2 analytically  !
 ! D4    D(10,1,2,8)            30.1634         calculate D2E/DX2 analytically  !
 ! D5    D(1,2,3,4)           -172.9258         calculate D2E/DX2 analytically  !
 ! D6    D(1,2,3,11)             7.0743         calculate D2E/DX2 analytically  !
 ! D7    D(8,2,3,4)             -2.9648         calculate D2E/DX2 analytically  !
 ! D8    D(8,2,3,11)           177.0354         calculate D2E/DX2 analytically  !
 ! D9    D(1,2,8,7)            175.9458         calculate D2E/DX2 analytically  !
 ! D10   D(1,2,8,16)            -5.3842         calculate D2E/DX2 analytically  !
 ! D11   D(3,2,8,7)              5.9757         calculate D2E/DX2 analytically  !
 ! D12   D(3,2,8,16)          -175.3543         calculate D2E/DX2 analytically  !
 ! D13   D(2,3,4,5)           -172.9258         calculate D2E/DX2 analytically  !
 ! D14   D(2,3,4,6)             -2.9647         calculate D2E/DX2 analytically  !
 ! D15   D(11,3,4,5)             7.0741         calculate D2E/DX2 analytically  !
 ! D16   D(11,3,4,6)           177.0351         calculate D2E/DX2 analytically  !
 ! D17   D(3,4,5,12)           -30.3534         calculate D2E/DX2 analytically  !
 ! D18   D(3,4,5,13)          -160.0291         calculate D2E/DX2 analytically  !
 ! D19   D(6,4,5,12)           159.839          calculate D2E/DX2 analytically  !
 ! D20   D(6,4,5,13)            30.1634         calculate D2E/DX2 analytically  !
 ! D21   D(3,4,6,7)              5.9757         calculate D2E/DX2 analytically  !
 ! D22   D(3,4,6,14)          -175.3541         calculate D2E/DX2 analytically  !
 ! D23   D(5,4,6,7)            175.9458         calculate D2E/DX2 analytically  !
 ! D24   D(5,4,6,14)            -5.384          calculate D2E/DX2 analytically  !
 ! D25   D(4,6,7,8)             -3.0474         calculate D2E/DX2 analytically  !
 ! D26   D(4,6,7,15)           176.9526         calculate D2E/DX2 analytically  !
 ! D27   D(14,6,7,8)           178.2673         calculate D2E/DX2 analytically  !
 ! D28   D(14,6,7,15)           -1.7327         calculate D2E/DX2 analytically  !
 ! D29   D(6,7,8,2)             -3.0473         calculate D2E/DX2 analytically  !
 ! D30   D(6,7,8,16)           178.2675         calculate D2E/DX2 analytically  !
 ! D31   D(15,7,8,2)           176.9527         calculate D2E/DX2 analytically  !
 ! D32   D(15,7,8,16)           -1.7325         calculate D2E/DX2 analytically  !
 --------------------------------------------------------------------------------
 Trust Radius=3.00D-01 FncErr=1.00D-07 GrdErr=1.00D-06 EigMax=2.50D+02 EigMin=1.00D-04
 Number of steps in this run=     82 maximum allowed number of steps=    100.
 GradGradGradGradGradGradGradGradGradGradGradGradGradGradGradGradGradGrad

                          Input orientation:                          
 ---------------------------------------------------------------------
 Center     Atomic      Atomic             Coordinates (Angstroms)
 Number     Number       Type             X           Y           Z
 ---------------------------------------------------------------------
      1          7           0       -2.388931   -0.864846   -0.638514
      2          6           0       -1.185181   -0.209485   -0.344425
      3          6           0        0.002958   -0.938677   -0.214870
      4          6           0        1.186885   -0.331354    0.220623
      5          7           0        2.394941   -1.042166    0.201985
      6          6           0        1.183707    1.041964    0.468413
      7          6           0       -0.005574    1.768505    0.404824
      8          6           0       -1.190568    1.134865    0.029879
      9          1           0       -2.266328   -1.704544   -1.195819
     10          1           0       -3.101585   -0.251277   -1.020792
     11          1           0        0.006295   -1.997379   -0.457217
     12          1           0        2.278134   -2.041403    0.338346
     13          1           0        3.104431   -0.651735    0.814085
     14          1           0        2.104177    1.554001    0.734280
     15          1           0       -0.008912    2.827484    0.647234
     16          1           0       -2.114451    1.706049    0.011968
 ---------------------------------------------------------------------
                    Distance matrix (angstroms):
                    1          2          3          4          5
     1  N    0.000000
     2  C    1.401785   0.000000
     3  C    2.430239   1.400064   0.000000
     4  C    3.716073   2.441481   1.400064   0.000000
     5  N    4.860383   3.716073   2.430239   1.401785   0.000000
     6  C    4.198209   2.799725   2.404991   1.395496   2.425215
     7  C    3.701822   2.421837   2.777216   2.421837   3.701822
     8  C    2.425215   1.395497   2.404991   2.799725   4.198209
     9  H    1.015241   2.031982   2.588141   3.977014   4.911215
    10  H    1.015126   2.032689   3.280277   4.465255   5.686167
    11  H    2.655675   2.151488   1.086091   2.151488   2.655675
    12  H    4.911215   3.977015   2.588141   2.031982   1.015241
    13  H    5.686167   4.465255   3.280277   2.032689   1.015125
    14  H    5.284260   3.885018   3.395505   2.158664   2.666077
    15  H    4.577220   3.404435   3.863591   3.404435   4.577220
    16  H    2.666077   2.158664   3.395505   3.885018   5.284260
                    6          7          8          9         10
     6  C    0.000000
     7  C    1.395097   0.000000
     8  C    2.416221   1.395096   0.000000
     9  H    4.713355   4.442425   3.274422   0.000000
    10  H    4.717407   3.961967   2.584045   1.685312   0.000000
    11  H    3.388318   3.863307   3.388318   2.407509   3.609074
    12  H    3.274422   4.442425   4.713356   4.808250   5.830367
    13  H    2.584044   3.961967   4.717407   5.830367   6.483963
    14  H    1.086339   2.146066   3.395173   5.783140   5.782669
    15  H    2.154622   1.086374   2.154622   5.388140   4.671799
    16  H    3.395172   2.146066   1.086339   3.621320   2.423252
                   11         12         13         14         15
    11  H    0.000000
    12  H    2.407511   0.000000
    13  H    3.609074   1.685311   0.000000
    14  H    4.293376   3.621320   2.423252   0.000000
    15  H    4.949681   5.388140   4.671799   2.468700   0.000000
    16  H    4.293376   5.783141   5.782669   4.282718   2.468699
                   16
    16  H    0.000000
 Stoichiometry    C6H8N2
 Framework group  C1[X(C6H8N2)]
 Deg. of freedom    42
 Full point group                 C1      NOp   1
 Largest Abelian subgroup         C1      NOp   1
 Largest concise Abelian subgroup C1      NOp   1
                         Standard orientation:                         
 ---------------------------------------------------------------------
 Center     Atomic      Atomic             Coordinates (Angstroms)
 Number     Number       Type             X           Y           Z
 ---------------------------------------------------------------------
      1          7           0        2.428789   -0.993862   -0.082546
      2          6           0        1.220283   -0.293104    0.033436
      3          6           0       -0.000000   -0.978650   -0.000000
      4          6           0       -1.220283   -0.293104   -0.033436
      5          7           0       -2.428789   -0.993862    0.082546
      6          6           0       -1.207732    1.100882    0.030242
      7          6           0        0.000000    1.798567   -0.000000
      8          6           0        1.207732    1.100882   -0.030242
      9          1           0        2.386503   -1.937116    0.290546
     10          1           0        3.231027   -0.478875    0.266284
     11          1           0       -0.000000   -2.064740    0.000002
     12          1           0       -2.386504   -1.937115   -0.290547
     13          1           0       -3.231027   -0.478875   -0.266283
     14          1           0       -2.139778    1.656504    0.082260
     15          1           0        0.000001    2.884941   -0.000001
     16          1           0        2.139778    1.656504   -0.082258
 ---------------------------------------------------------------------
 Rotational constants (GHZ):           3.7187774           1.8161376           1.2234058
 Standard basis: 6-31G(d,p) (6D, 7F)
 There are   160 symmetry adapted cartesian basis functions of A   symmetry.
 There are   160 symmetry adapted basis functions of A   symmetry.
   160 basis functions,   280 primitive gaussians,   160 cartesian basis functions
    29 alpha electrons       29 beta electrons
       nuclear repulsion energy       345.9608414071 Hartrees.
 NAtoms=   16 NActive=   16 NUniq=   16 SFac= 1.00D+00 NAtFMM=   60 NAOKFM=F Big=F
 Integral buffers will be    131072 words long.
 Raffenetti 2 integral format.
 Two-electron integral symmetry is turned on.
 Force inversion solution in PCM.
 ------------------------------------------------------------------------------
 Polarizable Continuum Model (PCM)
 =================================
 Model                : PCM.
 Atomic radii         : UFF (Universal Force Field).
 Polarization charges : Total charges.
 Charge compensation  : None.
 Solution method      : Matrix inversion.
 Cavity type          : Scaled VdW (van der Waals Surface) (Alpha=1.100).
 Cavity algorithm     : GePol (No added spheres)
                        Default sphere list used, NSphG=   16.
                        Lebedev-Laikov grids with approx.  5.0 points / Ang**2.
                        Smoothing algorithm: York/Karplus (Gamma=1.0000).
                        Polarization charges: spherical gaussians, with
                                              point-specific exponents (IZeta= 3).
                        Self-potential: point-specific (ISelfS= 7).
                        Self-field    : sphere-specific E.n sum rule (ISelfD= 2).
 1st derivatives      : Analytical E(r).r(x)/FMM algorithm (CHGder, D1EAlg=3).
                        Cavity 1st derivative terms included.
 2nd derivatives      : Analytical E(r).r(xy)/FMM algorithm (CHGder, D2EAlg=3).
                        Cavity 2nd derivative terms included.
 Solvent              : Water, Eps=  78.355300 Eps(inf)=   1.777849
 ------------------------------------------------------------------------------
 Spheres list:
 ISph  on   Nord     Re0    Alpha      Xe            Ye            Ze
    1   N      1    1.8300  1.100      2.428789     -0.993862     -0.082546
    2   C      2    1.9255  1.100      1.220283     -0.293104      0.033436
    3   C      3    1.9255  1.100     -0.000000     -0.978650     -0.000000
    4   C      4    1.9255  1.100     -1.220283     -0.293104     -0.033436
    5   N      5    1.8300  1.100     -2.428789     -0.993862      0.082546
    6   C      6    1.9255  1.100     -1.207732      1.100882      0.030242
    7   C      7    1.9255  1.100      0.000000      1.798567     -0.000000
    8   C      8    1.9255  1.100      1.207732      1.100882     -0.030242
    9   H      9    1.4430  1.100      2.386503     -1.937116      0.290546
   10   H     10    1.4430  1.100      3.231027     -0.478875      0.266284
   11   H     11    1.4430  1.100     -0.000000     -2.064740      0.000002
   12   H     12    1.4430  1.100     -2.386504     -1.937115     -0.290547
   13   H     13    1.4430  1.100     -3.231027     -0.478875     -0.266283
   14   H     14    1.4430  1.100     -2.139778      1.656504      0.082260
   15   H     15    1.4430  1.100      0.000001      2.884941     -0.000001
   16   H     16    1.4430  1.100      2.139778      1.656504     -0.082258
 ------------------------------------------------------------------------------
 One-electron integrals computed using PRISM.
 NBasis=   160 RedAO= T EigKep=  4.41D-04  NBF=   160
 NBsUse=   160 1.00D-06 EigRej= -1.00D+00 NBFU=   160
 ExpMin= 1.61D-01 ExpMax= 4.17D+03 ExpMxC= 6.27D+02 IAcc=3 IRadAn=         5 AccDes= 0.00D+00
 Harris functional with IExCor=  402 and IRadAn=       5 diagonalized for initial guess.
 HarFok:  IExCor=  402 AccDes= 0.00D+00 IRadAn=         5 IDoV= 1 UseB2=F ITyADJ=14
 ICtDFT=  3500011 ScaDFX=  1.000000  1.000000  1.000000  1.000000
 FoFCou: FMM=F IPFlag=           0 FMFlag=      100000 FMFlg1=           0
         NFxFlg=           0 DoJE=T BraDBF=F KetDBF=T FulRan=T
         wScrn=  0.000000 ICntrl=       500 IOpCl=  0 I1Cent=   200000004 NGrid=           0
         NMat0=    1 NMatS0=      1 NMatT0=    0 NMatD0=    1 NMtDS0=    0 NMtDT0=    0
 Petite list used in FoFCou.
 Keep R1 ints in memory in canonical form, NReq=85041267.
 Requested convergence on RMS density matrix=1.00D-08 within  32 cycles.
 Requested convergence on MAX density matrix=1.00D-06.
 Requested convergence on             energy=1.00D-06.
 No special actions if energy rises.
 Inv3:  Mode=1 IEnd=     5070000.
 Iteration    1 A*A^-1 deviation from unit magnitude is 2.89D-15 for    564.
 Iteration    1 A*A^-1 deviation from orthogonality  is 2.22D-15 for    719    578.
 Iteration    1 A^-1*A deviation from unit magnitude is 2.89D-15 for    564.
 Iteration    1 A^-1*A deviation from orthogonality  is 1.60D-15 for   1000    318.
 EnCoef did     1 forward-backward iterations
 Error on total polarization charges =  0.00737
 SCF Done:  E(RB3LYP) =  -342.983169695     A.U. after   11 cycles
            NFock= 11  Conv=0.41D-08     -V/T= 2.0096
 QCSCF skips out because SCF is already converged.
 DoSCS=F DFT=T ScalE2(SS,OS)=  1.000000  1.000000
 Range of M.O.s used for correlation:     1   160
 NBasis=   160 NAE=    29 NBE=    29 NFC=     0 NFV=     0
 NROrb=    160 NOA=    29 NOB=    29 NVA=   131 NVB=   131
 Symmetrizing basis deriv contribution to polar:
 IMax=3 JMax=2 DiffMx= 0.00D+00
 G2DrvN: will do    17 centers at a time, making    1 passes.
 Calling FoFCou, ICntrl=  3107 FMM=F I1Cent=   0 AccDes= 0.00D+00.
 NEqPCM:  Using equilibrium solvation (IEInf=0, Eps=  78.3553, EpsInf=   1.7778)
 G2PCM: DoFxE=T DoFxN=T DoGrad=T DoDP/DQ/DG/TGxP=FFFF NFrqRd=   0 IEInf=0 SqF1=F DoCFld=F IF1Alg=4.
 End of G2Drv F.D. properties file   721 does not exist.
 End of G2Drv F.D. properties file   722 does not exist.
 End of G2Drv F.D. properties file   788 does not exist.
          IDoAtm=1111111111111111
 NEqPCM:  Using equilibrium solvation (IEInf=0, Eps=  78.3553, EpsInf=   1.7778)
          Differentiating once with respect to nuclear coordinates.
 Keep R1 ints in memory in canonical form, NReq=88206350.
          There are    51 degrees of freedom in the 1st order CPHF.  IDoFFX=6 NUNeed=     0.
     45 vectors produced by pass  0 Test12= 7.45D-15 1.96D-09 XBig12= 1.20D-01 1.62D-01.
 AX will form    45 AO Fock derivatives at one time.
     45 vectors produced by pass  1 Test12= 7.45D-15 1.96D-09 XBig12= 1.98D-02 3.53D-02.
     45 vectors produced by pass  2 Test12= 7.45D-15 1.96D-09 XBig12= 1.74D-04 3.03D-03.
     45 vectors produced by pass  3 Test12= 7.45D-15 1.96D-09 XBig12= 3.90D-07 1.05D-04.
     45 vectors produced by pass  4 Test12= 7.45D-15 1.96D-09 XBig12= 6.01D-10 2.96D-06.
     30 vectors produced by pass  5 Test12= 7.45D-15 1.96D-09 XBig12= 6.11D-13 8.03D-08.
      5 vectors produced by pass  6 Test12= 7.45D-15 1.96D-09 XBig12= 4.92D-16 2.51D-09.
 InvSVY:  IOpt=1 It=  1 EMax= 3.89D-16
 Solved reduced A of dimension   260 with    51 vectors.
 End of Minotr F.D. properties file   721 does not exist.
 End of Minotr F.D. properties file   722 does not exist.
 End of Minotr F.D. properties file   788 does not exist.

 **********************************************************************

            Population analysis using the SCF density.

 **********************************************************************

 Orbital symmetries:
       Occupied  (A) (A) (A) (A) (A) (A) (A) (A) (A) (A) (A) (A)
                 (A) (A) (A) (A) (A) (A) (A) (A) (A) (A) (A) (A)
                 (A) (A) (A) (A) (A)
       Virtual   (A) (A) (A) (A) (A) (A) (A) (A) (A) (A) (A) (A)
                 (A) (A) (A) (A) (A) (A) (A) (A) (A) (A) (A) (A)
                 (A) (A) (A) (A) (A) (A) (A) (A) (A) (A) (A) (A)
                 (A) (A) (A) (A) (A) (A) (A) (A) (A) (A) (A) (A)
                 (A) (A) (A) (A) (A) (A) (A) (A) (A) (A) (A) (A)
                 (A) (A) (A) (A) (A) (A) (A) (A) (A) (A) (A) (A)
                 (A) (A) (A) (A) (A) (A) (A) (A) (A) (A) (A) (A)
                 (A) (A) (A) (A) (A) (A) (A) (A) (A) (A) (A) (A)
                 (A) (A) (A) (A) (A) (A) (A) (A) (A) (A) (A) (A)
                 (A) (A) (A) (A) (A) (A) (A) (A) (A) (A) (A) (A)
                 (A) (A) (A) (A) (A) (A) (A) (A) (A) (A) (A)
 The electronic state is 1-A.
 Alpha  occ. eigenvalues --  -14.33350 -14.33350 -10.22167 -10.22167 -10.18391
 Alpha  occ. eigenvalues --  -10.17108 -10.16860 -10.16859  -0.91512  -0.90219
 Alpha  occ. eigenvalues --   -0.81517  -0.72704  -0.71188  -0.60563  -0.59147
 Alpha  occ. eigenvalues --   -0.51565  -0.51400  -0.47989  -0.46942  -0.44184
 Alpha  occ. eigenvalues --   -0.41364  -0.40509  -0.38446  -0.35310  -0.34599
 Alpha  occ. eigenvalues --   -0.33176  -0.28218  -0.21297  -0.19331
 Alpha virt. eigenvalues --    0.01101   0.02823   0.09342   0.09708   0.11680
 Alpha virt. eigenvalues --    0.13381   0.14831   0.17690   0.18477   0.19065
 Alpha virt. eigenvalues --    0.20879   0.27449   0.28271   0.32798   0.33020
 Alpha virt. eigenvalues --    0.37893   0.37894   0.46206   0.52488   0.52686
 Alpha virt. eigenvalues --    0.55406   0.57823   0.59954   0.60083   0.60257
 Alpha virt. eigenvalues --    0.60647   0.61470   0.62877   0.63101   0.66876
 Alpha virt. eigenvalues --    0.67944   0.69098   0.71570   0.75725   0.77761
 Alpha virt. eigenvalues --    0.81073   0.83033   0.83908   0.83947   0.86307
 Alpha virt. eigenvalues --    0.86893   0.88477   0.89676   0.90292   0.92536
 Alpha virt. eigenvalues --    0.94620   0.98097   1.00321   1.01822   1.05398
 Alpha virt. eigenvalues --    1.07960   1.13964   1.15264   1.17519   1.26166
 Alpha virt. eigenvalues --    1.28977   1.31792   1.35133   1.37255   1.40110
 Alpha virt. eigenvalues --    1.42796   1.43235   1.48096   1.59694   1.73413
 Alpha virt. eigenvalues --    1.75549   1.75919   1.79795   1.81239   1.81812
 Alpha virt. eigenvalues --    1.84457   1.90135   1.91176   1.93318   1.96371
 Alpha virt. eigenvalues --    1.98317   1.99018   2.01092   2.02897   2.11425
 Alpha virt. eigenvalues --    2.13980   2.16634   2.17141   2.23552   2.24525
 Alpha virt. eigenvalues --    2.28642   2.30206   2.32330   2.33747   2.38687
 Alpha virt. eigenvalues --    2.39459   2.42558   2.43131   2.43474   2.45819
 Alpha virt. eigenvalues --    2.47171   2.51767   2.52327   2.54176   2.58174
 Alpha virt. eigenvalues --    2.59714   2.66353   2.68535   2.71276   2.71621
 Alpha virt. eigenvalues --    2.75012   2.77023   2.88278   2.88725   2.95811
 Alpha virt. eigenvalues --    3.01112   3.09424   3.11135   3.19560   3.25208
 Alpha virt. eigenvalues --    3.28998   3.29397   3.30870   3.43113   3.44883
 Alpha virt. eigenvalues --    3.50850   3.54463   3.85561   4.02594   4.06955
 Alpha virt. eigenvalues --    4.14024   4.17047   4.17979   4.45116   4.45976
 Alpha virt. eigenvalues --    4.83925
          Condensed to atoms (all electrons):
               1          2          3          4          5          6
     1  N    6.837398   0.292829  -0.065856   0.003831  -0.000058   0.000749
     2  C    0.292829   4.568463   0.530251  -0.003995   0.003831  -0.038091
     3  C   -0.065856   0.530251   5.054189   0.530251  -0.065856  -0.064735
     4  C    0.003831  -0.003995   0.530251   4.568462   0.292829   0.539835
     5  N   -0.000058   0.003831  -0.065856   0.292829   6.837398  -0.070161
     6  C    0.000749  -0.038091  -0.064735   0.539835  -0.070161   4.971056
     7  C    0.004425  -0.013689  -0.044519  -0.013689   0.004425   0.538355
     8  C   -0.070160   0.539835  -0.064735  -0.038091   0.000749  -0.056836
     9  H    0.342409  -0.024895  -0.009906   0.000033  -0.000001  -0.000010
    10  H    0.343130  -0.025222   0.005480  -0.000104   0.000001  -0.000003
    11  H   -0.007873  -0.040356   0.358073  -0.040356  -0.007873   0.005796
    12  H   -0.000001   0.000033  -0.009906  -0.024895   0.342409   0.005551
    13  H    0.000001  -0.000104   0.005480  -0.025222   0.343130  -0.009623
    14  H    0.000004   0.000575   0.005814  -0.044637  -0.007764   0.364567
    15  H   -0.000120   0.003752   0.001019   0.003752  -0.000120  -0.037648
    16  H   -0.007764  -0.044637   0.005814   0.000575   0.000004   0.005246
               7          8          9         10         11         12
     1  N    0.004425  -0.070160   0.342409   0.343130  -0.007873  -0.000001
     2  C   -0.013689   0.539835  -0.024895  -0.025222  -0.040356   0.000033
     3  C   -0.044519  -0.064735  -0.009906   0.005480   0.358073  -0.009906
     4  C   -0.013689  -0.038091   0.000033  -0.000104  -0.040356  -0.024895
     5  N    0.004425   0.000749  -0.000001   0.000001  -0.007873   0.342409
     6  C    0.538355  -0.056836  -0.000010  -0.000003   0.005796   0.005551
     7  C    4.807606   0.538355  -0.000170  -0.000048   0.000270  -0.000170
     8  C    0.538355   4.971056   0.005551  -0.009623   0.005796  -0.000010
     9  H   -0.000170   0.005551   0.436648  -0.028756   0.004765   0.000004
    10  H   -0.000048  -0.009623  -0.028756   0.435455  -0.000051   0.000000
    11  H    0.000270   0.005796   0.004765  -0.000051   0.635835   0.004765
    12  H   -0.000170  -0.000010   0.000004   0.000000   0.004765   0.436648
    13  H   -0.000048  -0.000003   0.000000  -0.000000  -0.000051  -0.028756
    14  H   -0.039026   0.005246  -0.000001  -0.000000  -0.000184  -0.000057
    15  H    0.366453  -0.037649   0.000004  -0.000005   0.000015   0.000004
    16  H   -0.039026   0.364567  -0.000057   0.004803  -0.000184  -0.000001
              13         14         15         16
     1  N    0.000001   0.000004  -0.000120  -0.007764
     2  C   -0.000104   0.000575   0.003752  -0.044637
     3  C    0.005480   0.005814   0.001019   0.005814
     4  C   -0.025222  -0.044637   0.003752   0.000575
     5  N    0.343130  -0.007764  -0.000120   0.000004
     6  C   -0.009623   0.364567  -0.037648   0.005246
     7  C   -0.000048  -0.039026   0.366453  -0.039026
     8  C   -0.000003   0.005246  -0.037649   0.364567
     9  H    0.000000  -0.000001   0.000004  -0.000057
    10  H   -0.000000  -0.000000  -0.000005   0.004803
    11  H   -0.000051  -0.000184   0.000015  -0.000184
    12  H   -0.028756  -0.000057   0.000004  -0.000001
    13  H    0.435455   0.004803  -0.000005  -0.000000
    14  H    0.004803   0.638127  -0.006288  -0.000189
    15  H   -0.000005  -0.006288   0.619909  -0.006288
    16  H   -0.000000  -0.000189  -0.006288   0.638127
 Mulliken charges:
               1
     1  N   -0.672942
     2  C    0.251421
     3  C   -0.170855
     4  C    0.251421
     5  N   -0.672942
     6  C   -0.154048
     7  C   -0.109505
     8  C   -0.154048
     9  H    0.274382
    10  H    0.274944
    11  H    0.081612
    12  H    0.274382
    13  H    0.274944
    14  H    0.079010
    15  H    0.093216
    16  H    0.079010
 Sum of Mulliken charges =  -0.00000
 Mulliken charges with hydrogens summed into heavy atoms:
               1
     1  N   -0.123616
     2  C    0.251421
     3  C   -0.089243
     4  C    0.251421
     5  N   -0.123616
     6  C   -0.075039
     7  C   -0.016289
     8  C   -0.075039
 APT charges:
               1
     1  N   -1.174815
     2  C   -0.078977
     3  C   -0.491064
     4  C   -0.078978
     5  N   -1.174815
     6  C   -0.529109
     7  C   -0.480317
     8  C   -0.529108
     9  H    0.582894
    10  H    0.693099
    11  H    0.402772
    12  H    0.582895
    13  H    0.693099
    14  H    0.506978
    15  H    0.568469
    16  H    0.506978
 Sum of APT charges =  -0.00000
 APT charges with hydrogens summed into heavy atoms:
               1
     1  N    0.101178
     2  C   -0.078977
     3  C   -0.088292
     4  C   -0.078978
     5  N    0.101178
     6  C   -0.022131
     7  C    0.088152
     8  C   -0.022131
 Electronic spatial extent (au):  <R**2>=            952.7356
 Charge=             -0.0000 electrons
 Dipole moment (field-independent basis, Debye):
    X=              0.0000    Y=             -1.4620    Z=              0.0000  Tot=              1.4620
 Quadrupole moment (field-independent basis, Debye-Ang):
   XX=            -34.8372   YY=            -39.7423   ZZ=            -52.0681
   XY=             -0.0000   XZ=              7.2611   YZ=              0.0000
 Traceless Quadrupole moment (field-independent basis, Debye-Ang):
   XX=              7.3787   YY=              2.4736   ZZ=             -9.8523
   XY=             -0.0000   XZ=              7.2611   YZ=              0.0000
 Octapole moment (field-independent basis, Debye-Ang**2):
  XXX=             -0.0000  YYY=            -15.1544  ZZZ=              0.0000  XYY=              0.0000
  XXY=             -7.0278  XXZ=              0.0000  XZZ=             -0.0000  YZZ=             -2.4473
  YYZ=             -0.0000  XYZ=             -9.0236
 Hexadecapole moment (field-independent basis, Debye-Ang**3):
 XXXX=           -589.5623 YYYY=           -364.0688 ZZZZ=            -54.4796 XXXY=             -0.0000
 XXXZ=             63.6294 YYYX=             -0.0000 YYYZ=             -0.0000 ZZZX=              6.2307
 ZZZY=              0.0000 XXYY=           -168.2654 XXZZ=           -149.7651 YYZZ=            -87.3400
 XXYZ=              0.0000 YYXZ=             13.3239 ZZXY=              0.0000
 N-N= 3.459608414071D+02 E-N=-1.488595076169D+03  KE= 3.397142619010D+02
  Exact polarizability:   0.000   0.000   0.000   0.000   0.000   0.000
 Approx polarizability: 168.967   0.000 142.923  -1.381   0.000  43.644
 D2PCM: PCM CHGder 2nd derivatives, FixD1E=F FixD2E=F DoIter=F DoCFld=F I1PDM=0
 Calling FoFJK, ICntrl=    100147 FMM=F ISym2X=0 I1Cent= 0 IOpClX= 0 NMat=1 NMatS=1 NMatT=0.
 ***** Axes restored to original set *****
 -------------------------------------------------------------------
 Center     Atomic                   Forces (Hartrees/Bohr)
 Number     Number              X              Y              Z
 -------------------------------------------------------------------
      1        7           0.002708884    0.000812084   -0.003335462
      2        6          -0.004107890   -0.008743824    0.013097894
      3        6           0.000016031   -0.005115227   -0.001171048
      4        6           0.004142214   -0.002150610   -0.015591639
      5        7          -0.002709148   -0.000736079    0.003352750
      6        6           0.002071013    0.014421515    0.008486373
      7        6           0.000027049   -0.008566835   -0.001960995
      8        6          -0.002168781    0.016664141   -0.001370631
      9        1          -0.003001266    0.002530758   -0.000165175
     10        1           0.001197834   -0.003429305   -0.001159335
     11        1           0.000004772   -0.001517022   -0.000347175
     12        1           0.002986234    0.002224821    0.001253726
     13        1          -0.001175567   -0.003599166   -0.000449459
     14        1           0.001368614   -0.001511712    0.000955966
     15        1           0.000001092   -0.000330130   -0.000075627
     16        1          -0.001361083   -0.000953408   -0.001520164
 -------------------------------------------------------------------
 Cartesian Forces:  Max     0.016664141 RMS     0.005232085
 FormGI is forming the generalized inverse of G from B-inverse, IUseBI=4.

 GradGradGradGradGradGradGradGradGradGradGradGradGradGradGradGradGradGrad
 Berny optimization.
 Internal  Forces:  Max     0.009853773 RMS     0.002575864
 Search for a local minimum.
 Step number   1 out of a maximum of   82
 All quantities printed in internal units (Hartrees-Bohrs-Radians)
 Mixed Optimization -- RFO/linear search
 Second derivative matrix not updated -- analytic derivatives used.
 ITU=  0
     Eigenvalues ---    0.00507   0.00561   0.01592   0.01596   0.01631
     Eigenvalues ---    0.01894   0.01938   0.01978   0.02127   0.02246
     Eigenvalues ---    0.02892   0.02932   0.03010   0.11043   0.11763
     Eigenvalues ---    0.11953   0.12535   0.13554   0.13564   0.15248
     Eigenvalues ---    0.15493   0.18586   0.18685   0.19343   0.20511
     Eigenvalues ---    0.23266   0.33275   0.35535   0.35541   0.35960
     Eigenvalues ---    0.36035   0.37636   0.38599   0.43516   0.45326
     Eigenvalues ---    0.45479   0.45860   0.45966   0.46072   0.47686
     Eigenvalues ---    0.48126   0.52084
 RFO step:  Lambda=-4.11034539D-03 EMin= 5.06886935D-03
 Linear search not attempted -- first point.
 Iteration  1 RMS(Cart)=  0.02280970 RMS(Int)=  0.00078547
 Iteration  2 RMS(Cart)=  0.00095420 RMS(Int)=  0.00054056
 Iteration  3 RMS(Cart)=  0.00000050 RMS(Int)=  0.00054056
 Variable       Old X    -DE/DX   Delta X   Delta X   Delta X     New X
                                 (Linear)    (Quad)   (Total)
    R1        2.64899   0.00024   0.00000  -0.00590  -0.00590   2.64309
    R2        1.91853  -0.00236   0.00000  -0.00529  -0.00529   1.91324
    R3        1.91831  -0.00248   0.00000  -0.00524  -0.00524   1.91307
    R4        2.64574   0.00373   0.00000   0.00595   0.00612   2.65186
    R5        2.63711   0.00985   0.00000   0.02173   0.02173   2.65883
    R6        2.64574   0.00373   0.00000   0.00595   0.00612   2.65186
    R7        2.05241   0.00156   0.00000   0.00322   0.00322   2.05564
    R8        2.64899   0.00024   0.00000  -0.00590  -0.00590   2.64309
    R9        2.63711   0.00985   0.00000   0.02173   0.02173   2.65883
   R10        1.91853  -0.00236   0.00000  -0.00529  -0.00529   1.91324
   R11        1.91831  -0.00248   0.00000  -0.00524  -0.00524   1.91307
   R12        2.63635   0.00051   0.00000  -0.00222  -0.00239   2.63396
   R13        2.05288   0.00068   0.00000  -0.00012  -0.00012   2.05276
   R14        2.63635   0.00051   0.00000  -0.00222  -0.00239   2.63396
   R15        2.05295  -0.00034   0.00000   0.00107   0.00107   2.05402
   R16        2.05288   0.00068   0.00000  -0.00012  -0.00012   2.05276
    A1        1.98029   0.00271   0.00000   0.01753   0.01750   1.99779
    A2        1.98153   0.00154   0.00000   0.01268   0.01265   1.99418
    A3        1.95841  -0.00346   0.00000  -0.02567  -0.02570   1.93270
    A4        2.09978  -0.00110   0.00000  -0.00097  -0.00248   2.09730
    A5        2.09826   0.00033   0.00000   0.00549   0.00403   2.10229
    A6        2.07167   0.00130   0.00000   0.01137   0.00965   2.08132
    A7        2.11821  -0.00125   0.00000  -0.00497  -0.00497   2.11324
    A8        2.08249   0.00063   0.00000   0.00249   0.00248   2.08497
    A9        2.08249   0.00063   0.00000   0.00249   0.00248   2.08497
   A10        2.09978  -0.00110   0.00000  -0.00097  -0.00248   2.09730
   A11        2.07167   0.00130   0.00000   0.01137   0.00965   2.08132
   A12        2.09826   0.00033   0.00000   0.00549   0.00403   2.10229
   A13        1.98029   0.00271   0.00000   0.01753   0.01750   1.99779
   A14        1.98153   0.00154   0.00000   0.01268   0.01265   1.99418
   A15        1.95841  -0.00346   0.00000  -0.02567  -0.02570   1.93270
   A16        2.10175  -0.00310   0.00000  -0.01721  -0.01782   2.08393
   A17        2.10062  -0.00041   0.00000  -0.00719  -0.00701   2.09360
   A18        2.08059   0.00352   0.00000   0.02488   0.02506   2.10565
   A19        2.09417   0.00523   0.00000   0.02901   0.02832   2.12249
   A20        2.09451  -0.00261   0.00000  -0.01451  -0.01416   2.08035
   A21        2.09451  -0.00261   0.00000  -0.01451  -0.01416   2.08035
   A22        2.10175  -0.00310   0.00000  -0.01721  -0.01782   2.08393
   A23        2.10062  -0.00041   0.00000  -0.00719  -0.00701   2.09360
   A24        2.08059   0.00352   0.00000   0.02488   0.02506   2.10565
    D1       -0.52977   0.00144   0.00000   0.05128   0.05126  -0.47850
    D2        2.78972  -0.00215   0.00000  -0.05383  -0.05379   2.73593
    D3       -2.79303   0.00246   0.00000   0.06004   0.06000  -2.73304
    D4        0.52645  -0.00113   0.00000  -0.04507  -0.04506   0.48139
    D5       -3.01812  -0.00213   0.00000  -0.05879  -0.05849  -3.07662
    D6        0.12347  -0.00213   0.00000  -0.05879  -0.05850   0.06498
    D7       -0.05174   0.00132   0.00000   0.04417   0.04475  -0.00699
    D8        3.08985   0.00132   0.00000   0.04417   0.04475   3.13460
    D9        3.07083   0.00053   0.00000   0.01182   0.01250   3.08334
   D10       -0.09397   0.00144   0.00000   0.03629   0.03635  -0.05762
   D11        0.10430  -0.00276   0.00000  -0.09037  -0.09038   0.01392
   D12       -3.06051  -0.00185   0.00000  -0.06590  -0.06653  -3.12704
   D13       -3.01812  -0.00213   0.00000  -0.05879  -0.05849  -3.07662
   D14       -0.05174   0.00132   0.00000   0.04417   0.04475  -0.00699
   D15        0.12347  -0.00213   0.00000  -0.05878  -0.05849   0.06497
   D16        3.08985   0.00132   0.00000   0.04417   0.04476   3.13460
   D17       -0.52977   0.00144   0.00000   0.05128   0.05126  -0.47850
   D18       -2.79303   0.00246   0.00000   0.06004   0.06000  -2.73304
   D19        2.78972  -0.00215   0.00000  -0.05383  -0.05379   2.73593
   D20        0.52645  -0.00113   0.00000  -0.04507  -0.04506   0.48139
   D21        0.10430  -0.00276   0.00000  -0.09037  -0.09038   0.01392
   D22       -3.06051  -0.00185   0.00000  -0.06591  -0.06653  -3.12704
   D23        3.07083   0.00053   0.00000   0.01182   0.01250   3.08334
   D24       -0.09397   0.00144   0.00000   0.03629   0.03635  -0.05762
   D25       -0.05319   0.00152   0.00000   0.04663   0.04616  -0.00703
   D26        3.08841   0.00152   0.00000   0.04663   0.04616   3.13456
   D27        3.11135   0.00067   0.00000   0.02286   0.02257   3.13392
   D28       -0.03024   0.00067   0.00000   0.02286   0.02257  -0.00767
   D29       -0.05319   0.00152   0.00000   0.04663   0.04616  -0.00703
   D30        3.11135   0.00067   0.00000   0.02285   0.02257   3.13393
   D31        3.08841   0.00152   0.00000   0.04663   0.04616   3.13456
   D32       -0.03024   0.00067   0.00000   0.02285   0.02257  -0.00767
         Item               Value     Threshold  Converged?
 Maximum Force            0.009854     0.000450     NO 
 RMS     Force            0.002576     0.000300     NO 
 Maximum Displacement     0.087953     0.001800     NO 
 RMS     Displacement     0.022761     0.001200     NO 
 Predicted change in Energy=-2.239354D-03
 GradGradGradGradGradGradGradGradGradGradGradGradGradGradGradGradGradGrad

                          Input orientation:                          
 ---------------------------------------------------------------------
 Center     Atomic      Atomic             Coordinates (Angstroms)
 Number     Number       Type             X           Y           Z
 ---------------------------------------------------------------------
      1          7           0       -2.389719   -0.869729   -0.625432
      2          6           0       -1.195591   -0.216358   -0.303842
      3          6           0        0.002965   -0.940855   -0.215369
      4          6           0        1.197281   -0.319824    0.181105
      5          7           0        2.395741   -1.040867    0.188082
      6          6           0        1.189687    1.053752    0.485841
      7          6           0       -0.005566    1.766132    0.404281
      8          6           0       -1.196642    1.153024    0.019307
      9          1           0       -2.272793   -1.706240   -1.183660
     10          1           0       -3.098411   -0.267799   -1.025795
     11          1           0        0.006307   -2.001219   -0.458095
     12          1           0        2.284593   -2.037601    0.326667
     13          1           0        3.101363   -0.668806    0.811399
     14          1           0        2.110406    1.548986    0.780822
     15          1           0       -0.008906    2.825663    0.646816
     16          1           0       -2.120715    1.721742   -0.032128
 ---------------------------------------------------------------------
                    Distance matrix (angstroms):
                    1          2          3          4          5
     1  N    0.000000
     2  C    1.398662   0.000000
     3  C    2.428611   1.403304   0.000000
     4  C    3.717455   2.443710   1.403304   0.000000
     5  N    4.857131   3.717455   2.428611   1.398662   0.000000
     6  C    4.212702   2.815374   2.424554   1.406995   2.435294
     7  C    3.700305   2.418235   2.777016   2.418235   3.700305
     8  C    2.435294   1.406995   2.424554   2.815374   4.212702
     9  H    1.012442   2.038183   2.588914   3.978209   4.911172
    10  H    1.012351   2.035826   3.275413   4.462319   5.679511
    11  H    2.655036   2.157333   1.087795   2.157333   2.655036
    12  H    4.911172   3.978209   2.588914   2.038183   1.012442
    13  H    5.679511   4.462319   3.275413   2.035826   1.012351
    14  H    5.298950   3.901610   3.410721   2.164697   2.672096
    15  H    4.576332   3.400862   3.863957   3.400862   4.576332
    16  H    2.672096   2.164697   3.410721   3.901610   5.298950
                    6          7          8          9         10
     6  C    0.000000
     7  C    1.393832   0.000000
     8  C    2.433531   1.393832   0.000000
     9  H    4.732183   4.440634   3.283385   0.000000
    10  H    4.734905   3.968335   2.593781   1.666037   0.000000
    11  H    3.409436   3.864811   3.409436   2.409929   3.600876
    12  H    3.283385   4.440634   4.732183   4.812551   5.825640
    13  H    2.593781   3.968334   4.734905   5.825640   6.478680
    14  H    1.086276   2.160156   3.416615   5.802424   5.804856
    15  H    2.145275   1.086941   2.145275   5.386461   4.681044
    16  H    3.416615   2.160156   1.086276   3.619421   2.429308
                   11         12         13         14         15
    11  H    0.000000
    12  H    2.409929   0.000000
    13  H    3.600876   1.666037   0.000000
    14  H    4.308841   3.619421   2.429307   0.000000
    15  H    4.951752   5.386461   4.681044   2.477770   0.000000
    16  H    4.308841   5.802424   5.804856   4.311974   2.477770
                   16
    16  H    0.000000
 Stoichiometry    C6H8N2
 Framework group  C1[X(C6H8N2)]
 Deg. of freedom    42
 Full point group                 C1      NOp   1
 Largest Abelian subgroup         C1      NOp   1
 Largest concise Abelian subgroup C1      NOp   1
                         Standard orientation:                         
 ---------------------------------------------------------------------
 Center     Atomic      Atomic             Coordinates (Angstroms)
 Number     Number       Type             X           Y           Z
 ---------------------------------------------------------------------
      1          7           0        2.427091   -0.997978   -0.084606
      2          6           0        1.221851   -0.292993   -0.003066
      3          6           0        0.000000   -0.983161    0.000000
      4          6           0       -1.221851   -0.292993    0.003067
      5          7           0       -2.427091   -0.997978    0.084606
      6          6           0       -1.216710    1.113966    0.011635
      7          6           0        0.000000    1.793854   -0.000000
      8          6           0        1.216710    1.113966   -0.011635
      9          1           0        2.388895   -1.938313    0.288690
     10          1           0        3.226903   -0.498384    0.283582
     11          1           0        0.000000   -2.070957    0.000000
     12          1           0       -2.388895   -1.938313   -0.288690
     13          1           0       -3.226903   -0.498384   -0.283581
     14          1           0       -2.155808    1.659704    0.027782
     15          1           0       -0.000000    2.880795   -0.000000
     16          1           0        2.155808    1.659704   -0.027782
 ---------------------------------------------------------------------
 Rotational constants (GHZ):           3.6954089           1.8131347           1.2192869
 Standard basis: 6-31G(d,p) (6D, 7F)
 There are   160 symmetry adapted cartesian basis functions of A   symmetry.
 There are   160 symmetry adapted basis functions of A   symmetry.
   160 basis functions,   280 primitive gaussians,   160 cartesian basis functions
    29 alpha electrons       29 beta electrons
       nuclear repulsion energy       345.3618868337 Hartrees.
 NAtoms=   16 NActive=   16 NUniq=   16 SFac= 1.00D+00 NAtFMM=   60 NAOKFM=F Big=F
 Integral buffers will be    131072 words long.
 Raffenetti 2 integral format.
 Two-electron integral symmetry is turned on.
 ------------------------------------------------------------------------------
 Polarizable Continuum Model (PCM)
 =================================
 Model                : PCM.
 Atomic radii         : UFF (Universal Force Field).
 Polarization charges : Total charges.
 Charge compensation  : None.
 Solution method      : Matrix inversion.
 Cavity type          : Scaled VdW (van der Waals Surface) (Alpha=1.100).
 Cavity algorithm     : GePol (No added spheres)
                        Default sphere list used, NSphG=   16.
                        Lebedev-Laikov grids with approx.  5.0 points / Ang**2.
                        Smoothing algorithm: York/Karplus (Gamma=1.0000).
                        Polarization charges: spherical gaussians, with
                                              point-specific exponents (IZeta= 3).
                        Self-potential: point-specific (ISelfS= 7).
                        Self-field    : sphere-specific E.n sum rule (ISelfD= 2).
 1st derivatives      : Analytical E(r).r(x)/FMM algorithm (CHGder, D1EAlg=3).
                        Cavity 1st derivative terms included.
 Solvent              : Water, Eps=  78.355300 Eps(inf)=   1.777849
 ------------------------------------------------------------------------------
 Spheres list:
 ISph  on   Nord     Re0    Alpha      Xe            Ye            Ze
    1   N      1    1.8300  1.100      2.427091     -0.997978     -0.084606
    2   C      2    1.9255  1.100      1.221851     -0.292993     -0.003066
    3   C      3    1.9255  1.100      0.000000     -0.983161     -0.000000
    4   C      4    1.9255  1.100     -1.221851     -0.292993      0.003067
    5   N      5    1.8300  1.100     -2.427091     -0.997978      0.084606
    6   C      6    1.9255  1.100     -1.216710      1.113966      0.011635
    7   C      7    1.9255  1.100     -0.000000      1.793854     -0.000000
    8   C      8    1.9255  1.100      1.216710      1.113966     -0.011635
    9   H      9    1.4430  1.100      2.388895     -1.938313      0.288690
   10   H     10    1.4430  1.100      3.226903     -0.498384      0.283582
   11   H     11    1.4430  1.100      0.000000     -2.070957      0.000000
   12   H     12    1.4430  1.100     -2.388895     -1.938313     -0.288690
   13   H     13    1.4430  1.100     -3.226903     -0.498384     -0.283581
   14   H     14    1.4430  1.100     -2.155808      1.659704      0.027782
   15   H     15    1.4430  1.100     -0.000000      2.880795     -0.000000
   16   H     16    1.4430  1.100      2.155808      1.659704     -0.027782
 ------------------------------------------------------------------------------
 One-electron integrals computed using PRISM.
 NBasis=   160 RedAO= T EigKep=  4.36D-04  NBF=   160
 NBsUse=   160 1.00D-06 EigRej= -1.00D+00 NBFU=   160
 Initial guess from the checkpoint file:  "WZCQRUWWHSTZEM-UHFFFAOYSA-N_conf_0_0.chk"
 B after Tr=    -0.000000   -0.000000    0.000000
         Rot=    1.000000    0.000000    0.000016   -0.000000 Ang=   0.00 deg.
 ExpMin= 1.61D-01 ExpMax= 4.17D+03 ExpMxC= 6.27D+02 IAcc=2 IRadAn=         4 AccDes= 0.00D+00
 Harris functional with IExCor=  402 and IRadAn=       4 diagonalized for initial guess.
 HarFok:  IExCor=  402 AccDes= 0.00D+00 IRadAn=         4 IDoV= 1 UseB2=F ITyADJ=14
 ICtDFT=  3500011 ScaDFX=  1.000000  1.000000  1.000000  1.000000
 FoFCou: FMM=F IPFlag=           0 FMFlag=      100000 FMFlg1=           0
         NFxFlg=           0 DoJE=T BraDBF=F KetDBF=T FulRan=T
         wScrn=  0.000000 ICntrl=       500 IOpCl=  0 I1Cent=   200000004 NGrid=           0
         NMat0=    1 NMatS0=      1 NMatT0=    0 NMatD0=    1 NMtDS0=    0 NMtDT0=    0
 Petite list used in FoFCou.
 Keep R1 ints in memory in canonical form, NReq=85041267.
 Requested convergence on RMS density matrix=1.00D-08 within  32 cycles.
 Requested convergence on MAX density matrix=1.00D-06.
 Requested convergence on             energy=1.00D-06.
 No special actions if energy rises.
 Inv3:  Mode=1 IEnd=     5243052.
 Iteration    1 A*A^-1 deviation from unit magnitude is 2.66D-15 for    458.
 Iteration    1 A*A^-1 deviation from orthogonality  is 2.01D-15 for    636    407.
 Iteration    1 A^-1*A deviation from unit magnitude is 2.66D-15 for    458.
 Iteration    1 A^-1*A deviation from orthogonality  is 1.83D-15 for    785    571.
 Error on total polarization charges =  0.00738
 SCF Done:  E(RB3LYP) =  -342.985423558     A.U. after   10 cycles
            NFock= 10  Conv=0.33D-08     -V/T= 2.0098
 QCSCF skips out because SCF is already converged.
 D1PCM: PCM CHGder 1st derivatives, ID1Alg=3 FixD1E=F DoIter=F DoCFld=F I1PDM=0.
 Calling FoFJK, ICntrl=      2127 FMM=F ISym2X=0 I1Cent= 0 IOpClX= 0 NMat=1 NMatS=1 NMatT=0.
 ***** Axes restored to original set *****
 -------------------------------------------------------------------
 Center     Atomic                   Forces (Hartrees/Bohr)
 Number     Number              X              Y              Z
 -------------------------------------------------------------------
      1        7          -0.000058161    0.000056865   -0.000463684
      2        6          -0.000384147   -0.000858763    0.001874448
      3        6           0.000000371   -0.000118036   -0.000027041
      4        6           0.000386715    0.000044472   -0.002060828
      5        7           0.000058455   -0.000150152    0.000442319
      6        6          -0.000050904    0.000528727    0.000830520
      7        6           0.000000102   -0.000034926   -0.000007990
      8        6           0.000046614    0.000837659   -0.000517760
      9        1          -0.000088013   -0.000008661   -0.000047783
     10        1          -0.000039568   -0.000049742   -0.000071690
     11        1           0.000000133   -0.000042640   -0.000009744
     12        1           0.000088128   -0.000028057    0.000039374
     13        1           0.000039961   -0.000075739    0.000042967
     14        1           0.000036231   -0.000109667    0.000166581
     15        1          -0.000000109    0.000035160    0.000008038
     16        1          -0.000035809   -0.000026500   -0.000197727
 -------------------------------------------------------------------
 Cartesian Forces:  Max     0.002060828 RMS     0.000485715

 GradGradGradGradGradGradGradGradGradGradGradGradGradGradGradGradGradGrad
 Berny optimization.
 Using GEDIIS/GDIIS optimizer.
 FormGI is forming the generalized inverse of G from B-inverse, IUseBI=4.
 Internal  Forces:  Max     0.000626348 RMS     0.000201021
 Search for a local minimum.
 Step number   2 out of a maximum of   82
 All quantities printed in internal units (Hartrees-Bohrs-Radians)
 Mixed Optimization -- En-DIIS/RFO-DIIS
 Update second derivatives using D2CorX and points    1    2
 DE= -2.25D-03 DEPred=-2.24D-03 R= 1.01D+00
 TightC=F SS=  1.41D+00  RLast= 2.99D-01 DXNew= 5.0454D-01 8.9820D-01
 Trust test= 1.01D+00 RLast= 2.99D-01 DXMaxT set to 5.05D-01
 ITU=  1  0
 Use linear search instead of GDIIS.
     Eigenvalues ---    0.00507   0.00561   0.01592   0.01595   0.01631
     Eigenvalues ---    0.01894   0.01938   0.01977   0.02122   0.02246
     Eigenvalues ---    0.02889   0.02932   0.02996   0.11041   0.11761
     Eigenvalues ---    0.11929   0.12534   0.13564   0.13585   0.15230
     Eigenvalues ---    0.15476   0.18568   0.18644   0.19352   0.20464
     Eigenvalues ---    0.23147   0.33244   0.35531   0.35539   0.35959
     Eigenvalues ---    0.36035   0.37624   0.38616   0.43487   0.45320
     Eigenvalues ---    0.45518   0.45850   0.45966   0.46056   0.47681
     Eigenvalues ---    0.48010   0.51575
 RFO step:  Lambda=-1.63719324D-05 EMin= 5.06883251D-03
 Quartic linear search produced a step of  0.11311.
 Iteration  1 RMS(Cart)=  0.00452147 RMS(Int)=  0.00007383
 Iteration  2 RMS(Cart)=  0.00002567 RMS(Int)=  0.00007197
 Iteration  3 RMS(Cart)=  0.00000000 RMS(Int)=  0.00007197
 Variable       Old X    -DE/DX   Delta X   Delta X   Delta X     New X
                                 (Linear)    (Quad)   (Total)
    R1        2.64309   0.00029  -0.00067   0.00067  -0.00000   2.64309
    R2        1.91324   0.00002  -0.00060   0.00053  -0.00006   1.91317
    R3        1.91307   0.00003  -0.00059   0.00053  -0.00006   1.91301
    R4        2.65186   0.00026   0.00069  -0.00036   0.00035   2.65221
    R5        2.65883   0.00063   0.00246  -0.00109   0.00137   2.66021
    R6        2.65186   0.00026   0.00069  -0.00036   0.00035   2.65221
    R7        2.05564   0.00004   0.00036  -0.00026   0.00011   2.05574
    R8        2.64309   0.00029  -0.00067   0.00067  -0.00000   2.64309
    R9        2.65883   0.00063   0.00246  -0.00109   0.00137   2.66021
   R10        1.91324   0.00002  -0.00060   0.00053  -0.00006   1.91317
   R11        1.91307   0.00003  -0.00059   0.00053  -0.00006   1.91301
   R12        2.63396   0.00016  -0.00027   0.00040   0.00011   2.63407
   R13        2.05276   0.00003  -0.00001   0.00004   0.00003   2.05279
   R14        2.63396   0.00016  -0.00027   0.00040   0.00011   2.63407
   R15        2.05402   0.00004   0.00012   0.00002   0.00014   2.05416
   R16        2.05276   0.00003  -0.00001   0.00004   0.00003   2.05279
    A1        1.99779   0.00009   0.00198  -0.00089   0.00109   1.99888
    A2        1.99418   0.00006   0.00143  -0.00063   0.00080   1.99498
    A3        1.93270  -0.00011  -0.00291   0.00297   0.00005   1.93276
    A4        2.09730   0.00010  -0.00028   0.00110   0.00062   2.09792
    A5        2.10229  -0.00003   0.00046  -0.00006   0.00020   2.10249
    A6        2.08132  -0.00004   0.00109  -0.00077   0.00008   2.08140
    A7        2.11324   0.00003  -0.00056   0.00057   0.00000   2.11325
    A8        2.08497  -0.00002   0.00028  -0.00029  -0.00000   2.08497
    A9        2.08497  -0.00002   0.00028  -0.00029  -0.00000   2.08497
   A10        2.09730   0.00010  -0.00028   0.00110   0.00062   2.09792
   A11        2.08132  -0.00004   0.00109  -0.00077   0.00008   2.08140
   A12        2.10229  -0.00003   0.00046  -0.00006   0.00020   2.10249
   A13        1.99779   0.00009   0.00198  -0.00089   0.00109   1.99888
   A14        1.99418   0.00006   0.00143  -0.00063   0.00080   1.99498
   A15        1.93270  -0.00011  -0.00291   0.00297   0.00005   1.93276
   A16        2.08393  -0.00001  -0.00202   0.00181  -0.00030   2.08363
   A17        2.09360  -0.00009  -0.00079   0.00000  -0.00076   2.09284
   A18        2.10565   0.00011   0.00283  -0.00181   0.00105   2.10670
   A19        2.12249   0.00007   0.00320  -0.00255   0.00055   2.12304
   A20        2.08035  -0.00004  -0.00160   0.00128  -0.00027   2.08007
   A21        2.08035  -0.00004  -0.00160   0.00128  -0.00027   2.08007
   A22        2.08393  -0.00001  -0.00202   0.00181  -0.00030   2.08363
   A23        2.09360  -0.00009  -0.00079   0.00000  -0.00076   2.09284
   A24        2.10565   0.00011   0.00283  -0.00181   0.00105   2.10670
    D1       -0.47850   0.00023   0.00580   0.00136   0.00716  -0.47134
    D2        2.73593  -0.00023  -0.00608  -0.00295  -0.00903   2.72689
    D3       -2.73304   0.00025   0.00679  -0.00150   0.00528  -2.72776
    D4        0.48139  -0.00021  -0.00510  -0.00582  -0.01091   0.47048
    D5       -3.07662  -0.00025  -0.00662  -0.00123  -0.00781  -3.08443
    D6        0.06498  -0.00025  -0.00662  -0.00123  -0.00781   0.05716
    D7       -0.00699   0.00021   0.00506   0.00307   0.00819   0.00120
    D8        3.13460   0.00021   0.00506   0.00307   0.00819  -3.14039
    D9        3.08334   0.00005   0.00141  -0.00173  -0.00024   3.08309
   D10       -0.05762   0.00017   0.00411  -0.00080   0.00331  -0.05431
   D11        0.01392  -0.00041  -0.01022  -0.00609  -0.01631  -0.00239
   D12       -3.12704  -0.00030  -0.00753  -0.00516  -0.01275  -3.13979
   D13       -3.07662  -0.00025  -0.00662  -0.00123  -0.00781  -3.08443
   D14       -0.00699   0.00021   0.00506   0.00307   0.00819   0.00120
   D15        0.06497  -0.00025  -0.00662  -0.00123  -0.00781   0.05716
   D16        3.13460   0.00021   0.00506   0.00307   0.00819  -3.14039
   D17       -0.47850   0.00023   0.00580   0.00136   0.00716  -0.47134
   D18       -2.73304   0.00025   0.00679  -0.00150   0.00528  -2.72776
   D19        2.73593  -0.00023  -0.00608  -0.00295  -0.00903   2.72689
   D20        0.48139  -0.00021  -0.00510  -0.00582  -0.01091   0.47048
   D21        0.01392  -0.00041  -0.01022  -0.00609  -0.01631  -0.00239
   D22       -3.12704  -0.00030  -0.00753  -0.00516  -0.01276  -3.13979
   D23        3.08334   0.00005   0.00141  -0.00173  -0.00024   3.08309
   D24       -0.05762   0.00017   0.00411  -0.00080   0.00331  -0.05431
   D25       -0.00703   0.00021   0.00522   0.00307   0.00824   0.00121
   D26        3.13456   0.00021   0.00522   0.00307   0.00824  -3.14039
   D27        3.13392   0.00009   0.00255   0.00213   0.00465   3.13858
   D28       -0.00767   0.00009   0.00255   0.00213   0.00465  -0.00301
   D29       -0.00703   0.00021   0.00522   0.00307   0.00824   0.00121
   D30        3.13393   0.00009   0.00255   0.00213   0.00465   3.13858
   D31        3.13456   0.00021   0.00522   0.00307   0.00824  -3.14039
   D32       -0.00767   0.00009   0.00255   0.00213   0.00465  -0.00301
         Item               Value     Threshold  Converged?
 Maximum Force            0.000626     0.000450     NO 
 RMS     Force            0.000201     0.000300     YES
 Maximum Displacement     0.020884     0.001800     NO 
 RMS     Displacement     0.004521     0.001200     NO 
 Predicted change in Energy=-3.106675D-05
 GradGradGradGradGradGradGradGradGradGradGradGradGradGradGradGradGradGrad

                          Input orientation:                          
 ---------------------------------------------------------------------
 Center     Atomic      Atomic             Coordinates (Angstroms)
 Number     Number       Type             X           Y           Z
 ---------------------------------------------------------------------
      1          7           0       -2.390764   -0.870366   -0.622962
      2          6           0       -1.196979   -0.217991   -0.298096
      3          6           0        0.002967   -0.941240   -0.215457
      4          6           0        1.198670   -0.318787    0.175224
      5          7           0        2.396787   -1.040359    0.185582
      6          6           0        1.189135    1.053309    0.489769
      7          6           0       -0.005567    1.766268    0.404312
      8          6           0       -1.196093    1.154337    0.015578
      9          1           0       -2.274149   -1.706709   -1.181442
     10          1           0       -3.099199   -0.268023   -1.023080
     11          1           0        0.006309   -2.001660   -0.458195
     12          1           0        2.285948   -2.037051    0.324467
     13          1           0        3.102149   -0.667823    0.808858
     14          1           0        2.108847    1.546215    0.791759
     15          1           0       -0.008906    2.825871    0.646863
     16          1           0       -2.119154    1.724013   -0.043179
 ---------------------------------------------------------------------
                    Distance matrix (angstroms):
                    1          2          3          4          5
     1  N    0.000000
     2  C    1.398662   0.000000
     3  C    2.429204   1.403491   0.000000
     4  C    3.718250   2.444039   1.403491   0.000000
     5  N    4.858321   3.718250   2.429204   1.398662   0.000000
     6  C    4.213594   2.816109   2.425400   1.407720   2.436062
     7  C    3.700851   2.418703   2.777550   2.418703   3.700851
     8  C    2.436062   1.407720   2.425400   2.816109   4.213594
     9  H    1.012408   2.038842   2.589271   3.978359   4.912272
    10  H    1.012320   2.036307   3.275501   4.462084   5.680073
    11  H    2.655736   2.157546   1.087852   2.157546   2.655736
    12  H    4.912272   3.978359   2.589271   2.038842   1.012408
    13  H    5.680073   4.462084   3.275501   2.036307   1.012320
    14  H    5.299792   3.902395   3.411253   2.164895   2.672213
    15  H    4.576884   3.401405   3.864565   3.401405   4.576884
    16  H    2.672213   2.164895   3.411253   3.902395   5.299792
                    6          7          8          9         10
     6  C    0.000000
     7  C    1.393889   0.000000
     8  C    2.434004   1.393889   0.000000
     9  H    4.733390   4.441019   3.283390   0.000000
    10  H    4.735445   3.968167   2.593016   1.666014   0.000000
    11  H    3.410359   3.865403   3.410359   2.410512   3.601218
    12  H    3.283390   4.441019   4.733390   4.813665   5.826247
    13  H    2.593016   3.968167   4.735445   5.826247   6.478623
    14  H    1.086289   2.160852   3.417404   5.803937   5.805932
    15  H    2.145217   1.087015   2.145217   5.386864   4.680898
    16  H    3.417404   2.160852   1.086289   3.617944   2.426706
                   11         12         13         14         15
    11  H    0.000000
    12  H    2.410512   0.000000
    13  H    3.601218   1.666014   0.000000
    14  H    4.309346   3.617944   2.426706   0.000000
    15  H    4.952417   5.386864   4.680898   2.478587   0.000000
    16  H    4.309346   5.803937   5.805932   4.313319   2.478587
                   16
    16  H    0.000000
 Stoichiometry    C6H8N2
 Framework group  C1[X(C6H8N2)]
 Deg. of freedom    42
 Full point group                 C1      NOp   1
 Largest Abelian subgroup         C1      NOp   1
 Largest concise Abelian subgroup C1      NOp   1
                         Standard orientation:                         
 ---------------------------------------------------------------------
 Center     Atomic      Atomic             Coordinates (Angstroms)
 Number     Number       Type             X           Y           Z
 ---------------------------------------------------------------------
      1          7           0        2.427648   -0.998032   -0.085714
      2          6           0        1.221991   -0.293287   -0.008382
      3          6           0        0.000000   -0.983545    0.000000
      4          6           0       -1.221991   -0.293287    0.008382
      5          7           0       -2.427648   -0.998032    0.085714
      6          6           0       -1.216982    1.114423    0.006875
      7          6           0        0.000000    1.794006    0.000000
      8          6           0        1.216982    1.114423   -0.006875
      9          1           0        2.389567   -1.938260    0.287772
     10          1           0        3.226933   -0.497983    0.282912
     11          1           0        0.000000   -2.071397    0.000000
     12          1           0       -2.389567   -1.938260   -0.287772
     13          1           0       -3.226933   -0.497983   -0.282912
     14          1           0       -2.156607    1.659459    0.014998
     15          1           0        0.000000    2.881020    0.000000
     16          1           0        2.156607    1.659459   -0.014998
 ---------------------------------------------------------------------
 Rotational constants (GHZ):           3.6941076           1.8123852           1.2188102
 Standard basis: 6-31G(d,p) (6D, 7F)
 There are   160 symmetry adapted cartesian basis functions of A   symmetry.
 There are   160 symmetry adapted basis functions of A   symmetry.
   160 basis functions,   280 primitive gaussians,   160 cartesian basis functions
    29 alpha electrons       29 beta electrons
       nuclear repulsion energy       345.3020902658 Hartrees.
 NAtoms=   16 NActive=   16 NUniq=   16 SFac= 1.00D+00 NAtFMM=   60 NAOKFM=F Big=F
 Integral buffers will be    131072 words long.
 Raffenetti 2 integral format.
 Two-electron integral symmetry is turned on.
 ------------------------------------------------------------------------------
 Polarizable Continuum Model (PCM)
 =================================
 Model                : PCM.
 Atomic radii         : UFF (Universal Force Field).
 Polarization charges : Total charges.
 Charge compensation  : None.
 Solution method      : Matrix inversion.
 Cavity type          : Scaled VdW (van der Waals Surface) (Alpha=1.100).
 Cavity algorithm     : GePol (No added spheres)
                        Default sphere list used, NSphG=   16.
                        Lebedev-Laikov grids with approx.  5.0 points / Ang**2.
                        Smoothing algorithm: York/Karplus (Gamma=1.0000).
                        Polarization charges: spherical gaussians, with
                                              point-specific exponents (IZeta= 3).
                        Self-potential: point-specific (ISelfS= 7).
                        Self-field    : sphere-specific E.n sum rule (ISelfD= 2).
 1st derivatives      : Analytical E(r).r(x)/FMM algorithm (CHGder, D1EAlg=3).
                        Cavity 1st derivative terms included.
 Solvent              : Water, Eps=  78.355300 Eps(inf)=   1.777849
 ------------------------------------------------------------------------------
 Spheres list:
 ISph  on   Nord     Re0    Alpha      Xe            Ye            Ze
    1   N      1    1.8300  1.100      2.427648     -0.998032     -0.085714
    2   C      2    1.9255  1.100      1.221991     -0.293287     -0.008382
    3   C      3    1.9255  1.100      0.000000     -0.983545     -0.000000
    4   C      4    1.9255  1.100     -1.221991     -0.293287      0.008382
    5   N      5    1.8300  1.100     -2.427648     -0.998032      0.085714
    6   C      6    1.9255  1.100     -1.216982      1.114423      0.006875
    7   C      7    1.9255  1.100     -0.000000      1.794006     -0.000000
    8   C      8    1.9255  1.100      1.216982      1.114423     -0.006875
    9   H      9    1.4430  1.100      2.389567     -1.938260      0.287772
   10   H     10    1.4430  1.100      3.226933     -0.497983      0.282912
   11   H     11    1.4430  1.100      0.000000     -2.071397      0.000000
   12   H     12    1.4430  1.100     -2.389567     -1.938260     -0.287772
   13   H     13    1.4430  1.100     -3.226933     -0.497983     -0.282912
   14   H     14    1.4430  1.100     -2.156607      1.659459      0.014998
   15   H     15    1.4430  1.100     -0.000000      2.881020     -0.000000
   16   H     16    1.4430  1.100      2.156607      1.659459     -0.014998
 ------------------------------------------------------------------------------
 One-electron integrals computed using PRISM.
 NBasis=   160 RedAO= T EigKep=  4.36D-04  NBF=   160
 NBsUse=   160 1.00D-06 EigRej= -1.00D+00 NBFU=   160
 Initial guess from the checkpoint file:  "WZCQRUWWHSTZEM-UHFFFAOYSA-N_conf_0_0.chk"
 B after Tr=    -0.000000   -0.000000   -0.000000
         Rot=    1.000000    0.000000    0.000002   -0.000000 Ang=   0.00 deg.
 ExpMin= 1.61D-01 ExpMax= 4.17D+03 ExpMxC= 6.27D+02 IAcc=2 IRadAn=         4 AccDes= 0.00D+00
 Harris functional with IExCor=  402 and IRadAn=       4 diagonalized for initial guess.
 HarFok:  IExCor=  402 AccDes= 0.00D+00 IRadAn=         4 IDoV= 1 UseB2=F ITyADJ=14
 ICtDFT=  3500011 ScaDFX=  1.000000  1.000000  1.000000  1.000000
 FoFCou: FMM=F IPFlag=           0 FMFlag=      100000 FMFlg1=           0
         NFxFlg=           0 DoJE=T BraDBF=F KetDBF=T FulRan=T
         wScrn=  0.000000 ICntrl=       500 IOpCl=  0 I1Cent=   200000004 NGrid=           0
         NMat0=    1 NMatS0=      1 NMatT0=    0 NMatD0=    1 NMtDS0=    0 NMtDT0=    0
 Petite list used in FoFCou.
 Keep R1 ints in memory in canonical form, NReq=85041267.
 Requested convergence on RMS density matrix=1.00D-08 within  32 cycles.
 Requested convergence on MAX density matrix=1.00D-06.
 Requested convergence on             energy=1.00D-06.
 No special actions if energy rises.
 Inv3:  Mode=1 IEnd=     5211372.
 Iteration    1 A*A^-1 deviation from unit magnitude is 2.66D-15 for    936.
 Iteration    1 A*A^-1 deviation from orthogonality  is 1.99D-15 for    863    178.
 Iteration    1 A^-1*A deviation from unit magnitude is 2.44D-15 for    361.
 Iteration    1 A^-1*A deviation from orthogonality  is 1.40D-15 for    943    364.
 Error on total polarization charges =  0.00738
 SCF Done:  E(RB3LYP) =  -342.985455120     A.U. after    8 cycles
            NFock=  8  Conv=0.45D-08     -V/T= 2.0098
 QCSCF skips out because SCF is already converged.
 D1PCM: PCM CHGder 1st derivatives, ID1Alg=3 FixD1E=F DoIter=F DoCFld=F I1PDM=0.
 Calling FoFJK, ICntrl=      2127 FMM=F ISym2X=0 I1Cent= 0 IOpClX= 0 NMat=1 NMatS=1 NMatT=0.
 ***** Axes restored to original set *****
 -------------------------------------------------------------------
 Center     Atomic                   Forces (Hartrees/Bohr)
 Number     Number              X              Y              Z
 -------------------------------------------------------------------
      1        7          -0.000046939   -0.000019721   -0.000004927
      2        6           0.000005385   -0.000022172    0.000004584
      3        6           0.000000019   -0.000004570   -0.000001045
      4        6          -0.000005262   -0.000018004   -0.000013780
      5        7           0.000047061   -0.000019617   -0.000004078
      6        6           0.000006548   -0.000002560    0.000012307
      7        6          -0.000000267    0.000082177    0.000018810
      8        6          -0.000006540    0.000003012   -0.000012202
      9        1          -0.000004448    0.000000705   -0.000000516
     10        1          -0.000002647   -0.000002527   -0.000000664
     11        1           0.000000008   -0.000002619   -0.000000599
     12        1           0.000004445    0.000000437    0.000000777
     13        1           0.000002663   -0.000002548   -0.000000498
     14        1           0.000000737    0.000003398   -0.000003440
     15        1          -0.000000010    0.000003049    0.000000698
     16        1          -0.000000752    0.000001559    0.000004575
 -------------------------------------------------------------------
 Cartesian Forces:  Max     0.000082177 RMS     0.000017066

 GradGradGradGradGradGradGradGradGradGradGradGradGradGradGradGradGradGrad
 Berny optimization.
 Using GEDIIS/GDIIS optimizer.
 FormGI is forming the generalized inverse of G from B-inverse, IUseBI=4.
 Internal  Forces:  Max     0.000056770 RMS     0.000016327
 Search for a local minimum.
 Step number   3 out of a maximum of   82
 All quantities printed in internal units (Hartrees-Bohrs-Radians)
 Mixed Optimization -- En-DIIS/RFO-DIIS
 Swapping is turned off.
 Update second derivatives using D2CorX and points    1    2    3
 DE= -3.16D-05 DEPred=-3.11D-05 R= 1.02D+00
 TightC=F SS=  1.41D+00  RLast= 4.82D-02 DXNew= 8.4853D-01 1.4456D-01
 Trust test= 1.02D+00 RLast= 4.82D-02 DXMaxT set to 5.05D-01
 ITU=  1  1  0
     Eigenvalues ---    0.00507   0.00561   0.01592   0.01595   0.01631
     Eigenvalues ---    0.01894   0.01945   0.01977   0.02114   0.02246
     Eigenvalues ---    0.02889   0.02932   0.02961   0.11040   0.11761
     Eigenvalues ---    0.11923   0.12533   0.13564   0.13590   0.15224
     Eigenvalues ---    0.15468   0.18583   0.18630   0.19353   0.20448
     Eigenvalues ---    0.23103   0.33233   0.35529   0.35538   0.35958
     Eigenvalues ---    0.36035   0.37620   0.38619   0.43470   0.45317
     Eigenvalues ---    0.45520   0.45846   0.45965   0.46050   0.47680
     Eigenvalues ---    0.47982   0.51235
 En-DIIS/RFO-DIIS/Sim-DIIS IScMMF=       -3 using points:     3    2
 RFO step:  Lambda=-5.52777727D-08.
 DidBck=F Rises=F RFO-DIIS coefs:    1.00370   -0.00370
 Iteration  1 RMS(Cart)=  0.00010254 RMS(Int)=  0.00000005
 Iteration  2 RMS(Cart)=  0.00000001 RMS(Int)=  0.00000005
 Variable       Old X    -DE/DX   Delta X   Delta X   Delta X     New X
                                 (Linear)    (Quad)   (Total)
    R1        2.64309   0.00006  -0.00000   0.00016   0.00016   2.64324
    R2        1.91317   0.00000  -0.00000   0.00001   0.00001   1.91318
    R3        1.91301   0.00000  -0.00000   0.00001   0.00001   1.91302
    R4        2.65221   0.00003   0.00000   0.00005   0.00005   2.65226
    R5        2.66021   0.00005   0.00001   0.00007   0.00008   2.66028
    R6        2.65221   0.00003   0.00000   0.00005   0.00005   2.65226
    R7        2.05574   0.00000   0.00000   0.00001   0.00001   2.05575
    R8        2.64309   0.00006  -0.00000   0.00016   0.00016   2.64324
    R9        2.66021   0.00005   0.00001   0.00007   0.00008   2.66028
   R10        1.91317   0.00000  -0.00000   0.00001   0.00001   1.91318
   R11        1.91301   0.00000  -0.00000   0.00001   0.00001   1.91302
   R12        2.63407   0.00004   0.00000   0.00008   0.00008   2.63415
   R13        2.05279   0.00000   0.00000   0.00001   0.00001   2.05280
   R14        2.63407   0.00004   0.00000   0.00008   0.00008   2.63415
   R15        2.05416   0.00000   0.00000  -0.00000  -0.00000   2.05416
   R16        2.05279   0.00000   0.00000   0.00001   0.00001   2.05280
    A1        1.99888   0.00000   0.00000  -0.00006  -0.00006   1.99882
    A2        1.99498   0.00000   0.00000  -0.00008  -0.00008   1.99490
    A3        1.93276  -0.00000   0.00000  -0.00011  -0.00011   1.93265
    A4        2.09792   0.00002   0.00000   0.00007   0.00007   2.09799
    A5        2.10249  -0.00001   0.00000  -0.00004  -0.00004   2.10245
    A6        2.08140  -0.00001   0.00000  -0.00003  -0.00003   2.08138
    A7        2.11325   0.00001   0.00000   0.00001   0.00001   2.11325
    A8        2.08497  -0.00000  -0.00000  -0.00000  -0.00000   2.08497
[...]
 Alpha virt. eigenvalues --    2.47133   2.51027   2.53877   2.54437   2.57997
 Alpha virt. eigenvalues --    2.59882   2.66998   2.69990   2.70614   2.71368
 Alpha virt. eigenvalues --    2.74293   2.76974   2.87543   2.88230   2.97302
 Alpha virt. eigenvalues --    3.02050   3.08530   3.09155   3.19970   3.25091
 Alpha virt. eigenvalues --    3.28882   3.29326   3.30113   3.42797   3.44911
 Alpha virt. eigenvalues --    3.51729   3.56097   3.84879   4.02371   4.09316
 Alpha virt. eigenvalues --    4.13404   4.17056   4.17855   4.44922   4.45957
 Alpha virt. eigenvalues --    4.83833
          Condensed to atoms (all electrons):
               1          2          3          4          5          6
     1  N    6.823981   0.264606  -0.053308   0.003711  -0.000066   0.000589
     2  C    0.264606   4.720169   0.447797   0.011262   0.003711  -0.027133
     3  C   -0.053308   0.447797   5.252816   0.447797  -0.053308  -0.088389
     4  C    0.003711   0.011262   0.447797   4.720170   0.264606   0.523567
     5  N   -0.000066   0.003711  -0.053308   0.264606   6.823981  -0.064617
     6  C    0.000589  -0.027133  -0.088389   0.523567  -0.064617   5.040239
     7  C    0.005028  -0.034548  -0.021181  -0.034548   0.005028   0.435269
     8  C   -0.064617   0.523567  -0.088389  -0.027133   0.000589  -0.034661
     9  H    0.326481  -0.025789  -0.008571  -0.000389   0.000007  -0.000028
    10  H    0.340585  -0.025179   0.005089  -0.000090   0.000001  -0.000005
    11  H   -0.009146  -0.041852   0.358929  -0.041852  -0.009146   0.006243
    12  H    0.000007  -0.000389  -0.008571  -0.025789   0.326481   0.005753
    13  H    0.000001  -0.000090   0.005089  -0.025179   0.340585  -0.008366
    14  H    0.000005   0.000520   0.005438  -0.043352  -0.007708   0.362376
    15  H   -0.000139   0.003921   0.001336   0.003921  -0.000139  -0.038594
    16  H   -0.007708  -0.043352   0.005438   0.000520   0.000005   0.004998
               7          8          9         10         11         12
     1  N    0.005028  -0.064617   0.326481   0.340585  -0.009146   0.000007
     2  C   -0.034548   0.523567  -0.025789  -0.025179  -0.041852  -0.000389
     3  C   -0.021181  -0.088389  -0.008571   0.005089   0.358929  -0.008571
     4  C   -0.034548  -0.027133  -0.000389  -0.000090  -0.041852  -0.025789
     5  N    0.005028   0.000589   0.000007   0.000001  -0.009146   0.326481
     6  C    0.435269  -0.034661  -0.000028  -0.000005   0.006243   0.005753
     7  C    5.101790   0.435269  -0.000090  -0.000044   0.000070  -0.000090
     8  C    0.435269   5.040239   0.005753  -0.008366   0.006243  -0.000028
     9  H   -0.000090   0.005753   0.445004  -0.029785   0.005078  -0.000021
    10  H   -0.000044  -0.008366  -0.029785   0.425860  -0.000057   0.000000
    11  H    0.000070   0.006243   0.005078  -0.000057   0.658711   0.005078
    12  H   -0.000090  -0.000028  -0.000021   0.000000   0.005078   0.445004
    13  H   -0.000044  -0.000005   0.000000  -0.000000  -0.000057  -0.029785
    14  H   -0.038020   0.004998  -0.000000  -0.000000  -0.000175  -0.000093
    15  H    0.366249  -0.038594   0.000004  -0.000006   0.000015   0.000004
    16  H   -0.038020   0.362376  -0.000093   0.004750  -0.000175  -0.000000
              13         14         15         16
     1  N    0.000001   0.000005  -0.000139  -0.007708
     2  C   -0.000090   0.000520   0.003921  -0.043352
     3  C    0.005089   0.005438   0.001336   0.005438
     4  C   -0.025179  -0.043352   0.003921   0.000520
     5  N    0.340585  -0.007708  -0.000139   0.000005
     6  C   -0.008366   0.362376  -0.038594   0.004998
     7  C   -0.000044  -0.038020   0.366249  -0.038020
     8  C   -0.000005   0.004998  -0.038594   0.362376
     9  H    0.000000  -0.000000   0.000004  -0.000093
    10  H   -0.000000  -0.000000  -0.000006   0.004750
    11  H   -0.000057  -0.000175   0.000015  -0.000175
    12  H   -0.029785  -0.000093   0.000004  -0.000000
    13  H    0.425860   0.004750  -0.000006  -0.000000
    14  H    0.004750   0.632169  -0.006496  -0.000163
    15  H   -0.000006  -0.006496   0.648923  -0.006496
    16  H   -0.000000  -0.000163  -0.006496   0.632169
 Mulliken charges:
               1
     1  N   -0.630010
     2  C    0.222780
     3  C   -0.208012
     4  C    0.222780
     5  N   -0.630010
     6  C   -0.117241
     7  C   -0.182118
     8  C   -0.117241
     9  H    0.282441
    10  H    0.287246
    11  H    0.062095
    12  H    0.282441
    13  H    0.287246
    14  H    0.085752
    15  H    0.066098
    16  H    0.085752
 Sum of Mulliken charges =  -0.00000
 Mulliken charges with hydrogens summed into heavy atoms:
               1
     1  N   -0.060323
     2  C    0.222780
     3  C   -0.145917
     4  C    0.222780
     5  N   -0.060323
     6  C   -0.031488
     7  C   -0.116020
     8  C   -0.031488
 Electronic spatial extent (au):  <R**2>=            954.0440
 Charge=              0.0000 electrons
 Dipole moment (field-independent basis, Debye):
    X=              0.0000    Y=             -2.2783    Z=             -0.0000  Tot=              2.2783
 Quadrupole moment (field-independent basis, Debye-Ang):
   XX=            -30.0567   YY=            -41.9737   ZZ=            -52.2623
   XY=             -0.0000   XZ=              7.0440   YZ=              0.0000
 Traceless Quadrupole moment (field-independent basis, Debye-Ang):
   XX=             11.3742   YY=             -0.5428   ZZ=            -10.8314
   XY=             -0.0000   XZ=              7.0440   YZ=              0.0000
 Octapole moment (field-independent basis, Debye-Ang**2):
  XXX=              0.0000  YYY=            -21.2311  ZZZ=             -0.0000  XYY=              0.0000
  XXY=            -11.4960  XXZ=             -0.0000  XZZ=              0.0000  YZZ=             -3.0585
  YYZ=             -0.0000  XYZ=             -8.2769
 Hexadecapole moment (field-independent basis, Debye-Ang**3):
 XXXX=           -551.4858 YYYY=           -388.2125 ZZZZ=            -55.0141 XXXY=             -0.0000
 XXXZ=             64.1794 YYYX=             -0.0000 YYYZ=              0.0000 ZZZX=              5.8306
 ZZZY=              0.0000 XXYY=           -161.1773 XXZZ=           -146.7025 YYZZ=            -89.8714
 XXYZ=              0.0000 YYXZ=             13.2745 ZZXY=             -0.0000
 N-N= 3.453020902658D+02 E-N=-1.487283725828D+03  KE= 3.398273439268D+02
 Evaluate density.
 Using the total density.
 Monte-Carlo method of calculating molar volume:
 based on  0.001 e/bohr**3 density envelope.
 Number of points per bohr**3 =   20 CutOff= 1.00D-04
 Using the CI density.
 There are       337 points.  Will hold       337 in memory.
 LenV=   536789884 MDV=   536870912.
 Box volume = 4806.018 fraction occupied=0.240
 Integrated density= 4.3379949892171616D+01 error=-1.4620050107828384D+01
 Molar volume = 1155.156 bohr**3/mol (103.085 cm**3/mol)
 Recommended a0 for SCRF calculation =  4.29 angstrom (  8.11 bohr)
 ******************************Gaussian NBO Version 3.1******************************
             N A T U R A L   A T O M I C   O R B I T A L   A N D
          N A T U R A L   B O N D   O R B I T A L   A N A L Y S I S
 ******************************Gaussian NBO Version 3.1******************************
       /RESON  / : Allow strongly delocalized NBO set

 Analyzing the CI density

 Job title: WZCQRUWWHSTZEM-UHFFFAOYSA-N_conf_0                              

 Storage needed:     77744 in NPA ( 536869504 available)
 GSVD:  LWork=       14656 too small for GESVD, short by        6584 words or        6584 for optimal perf.


 NATURAL POPULATIONS:  Natural atomic orbital occupancies 
                                                          
   NAO  Atom  No  lang   Type(AO)    Occupancy
 --------------------------------------------
     1    N    1  S      Cor( 1S)     1.99950
     2    N    1  S      Val( 2S)     1.37149
     3    N    1  S      Ryd( 3S)     0.00020
     4    N    1  S      Ryd( 4S)     0.00001
     5    N    1  px     Val( 2p)     1.34664
     6    N    1  px     Ryd( 3p)     0.00219
     7    N    1  py     Val( 2p)     1.39497
     8    N    1  py     Ryd( 3p)     0.00213
     9    N    1  pz     Val( 2p)     1.65399
    10    N    1  pz     Ryd( 3p)     0.00405
    11    N    1  dxy    Ryd( 3d)     0.00044
    12    N    1  dxz    Ryd( 3d)     0.00091
    13    N    1  dyz    Ryd( 3d)     0.00090
    14    N    1  dx2y2  Ryd( 3d)     0.00041
    15    N    1  dz2    Ryd( 3d)     0.00072

    16    C    2  S      Cor( 1S)     1.99901
    17    C    2  S      Val( 2S)     0.84549
    18    C    2  S      Ryd( 3S)     0.00122
    19    C    2  S      Ryd( 4S)     0.00010
    20    C    2  px     Val( 2p)     0.94633
    21    C    2  px     Ryd( 3p)     0.00548
    22    C    2  py     Val( 2p)     1.04238
    23    C    2  py     Ryd( 3p)     0.00500
    24    C    2  pz     Val( 2p)     1.01004
    25    C    2  pz     Ryd( 3p)     0.00297
    26    C    2  dxy    Ryd( 3d)     0.00108
    27    C    2  dxz    Ryd( 3d)     0.00140
    28    C    2  dyz    Ryd( 3d)     0.00109
    29    C    2  dx2y2  Ryd( 3d)     0.00093
    30    C    2  dz2    Ryd( 3d)     0.00040

    31    C    3  S      Cor( 1S)     1.99900
    32    C    3  S      Val( 2S)     0.93741
    33    C    3  S      Ryd( 3S)     0.00067
    34    C    3  S      Ryd( 4S)     0.00004
    35    C    3  px     Val( 2p)     1.04890
    36    C    3  px     Ryd( 3p)     0.00425
    37    C    3  py     Val( 2p)     1.18508
    38    C    3  py     Ryd( 3p)     0.00353
    39    C    3  pz     Val( 2p)     1.24815
    40    C    3  pz     Ryd( 3p)     0.00861
    41    C    3  dxy    Ryd( 3d)     0.00057
    42    C    3  dxz    Ryd( 3d)     0.00044
    43    C    3  dyz    Ryd( 3d)     0.00042
    44    C    3  dx2y2  Ryd( 3d)     0.00054
    45    C    3  dz2    Ryd( 3d)     0.00040

    46    C    4  S      Cor( 1S)     1.99901
    47    C    4  S      Val( 2S)     0.84549
    48    C    4  S      Ryd( 3S)     0.00122
    49    C    4  S      Ryd( 4S)     0.00010
    50    C    4  px     Val( 2p)     0.94633
    51    C    4  px     Ryd( 3p)     0.00548
    52    C    4  py     Val( 2p)     1.04238
    53    C    4  py     Ryd( 3p)     0.00500
    54    C    4  pz     Val( 2p)     1.01004
    55    C    4  pz     Ryd( 3p)     0.00297
    56    C    4  dxy    Ryd( 3d)     0.00108
    57    C    4  dxz    Ryd( 3d)     0.00140
    58    C    4  dyz    Ryd( 3d)     0.00109
    59    C    4  dx2y2  Ryd( 3d)     0.00093
    60    C    4  dz2    Ryd( 3d)     0.00040

    61    N    5  S      Cor( 1S)     1.99950
    62    N    5  S      Val( 2S)     1.37149
    63    N    5  S      Ryd( 3S)     0.00020
    64    N    5  S      Ryd( 4S)     0.00001
    65    N    5  px     Val( 2p)     1.34664
    66    N    5  px     Ryd( 3p)     0.00219
    67    N    5  py     Val( 2p)     1.39497
    68    N    5  py     Ryd( 3p)     0.00213
    69    N    5  pz     Val( 2p)     1.65399
    70    N    5  pz     Ryd( 3p)     0.00405
    71    N    5  dxy    Ryd( 3d)     0.00044
    72    N    5  dxz    Ryd( 3d)     0.00091
    73    N    5  dyz    Ryd( 3d)     0.00090
    74    N    5  dx2y2  Ryd( 3d)     0.00041
    75    N    5  dz2    Ryd( 3d)     0.00072

    76    C    6  S      Cor( 1S)     1.99905
    77    C    6  S      Val( 2S)     0.96264
    78    C    6  S      Ryd( 3S)     0.00056
    79    C    6  S      Ryd( 4S)     0.00004
    80    C    6  px     Val( 2p)     1.16937
    81    C    6  px     Ryd( 3p)     0.00405
    82    C    6  py     Val( 2p)     1.07773
    83    C    6  py     Ryd( 3p)     0.00431
    84    C    6  pz     Val( 2p)     1.02143
    85    C    6  pz     Ryd( 3p)     0.00444
    86    C    6  dxy    Ryd( 3d)     0.00061
    87    C    6  dxz    Ryd( 3d)     0.00050
    88    C    6  dyz    Ryd( 3d)     0.00072
    89    C    6  dx2y2  Ryd( 3d)     0.00073
    90    C    6  dz2    Ryd( 3d)     0.00038

    91    C    7  S      Cor( 1S)     1.99917
    92    C    7  S      Val( 2S)     0.94916
    93    C    7  S      Ryd( 3S)     0.00067
    94    C    7  S      Ryd( 4S)     0.00003
    95    C    7  px     Val( 2p)     1.04845
    96    C    7  px     Ryd( 3p)     0.00591
    97    C    7  py     Val( 2p)     1.19061
    98    C    7  py     Ryd( 3p)     0.00471
    99    C    7  pz     Val( 2p)     1.16177
   100    C    7  pz     Ryd( 3p)     0.00691
   101    C    7  dxy    Ryd( 3d)     0.00062
   102    C    7  dxz    Ryd( 3d)     0.00054
   103    C    7  dyz    Ryd( 3d)     0.00037
   104    C    7  dx2y2  Ryd( 3d)     0.00064
   105    C    7  dz2    Ryd( 3d)     0.00037

   106    C    8  S      Cor( 1S)     1.99905
   107    C    8  S      Val( 2S)     0.96264
   108    C    8  S      Ryd( 3S)     0.00056
   109    C    8  S      Ryd( 4S)     0.00004
   110    C    8  px     Val( 2p)     1.16937
   111    C    8  px     Ryd( 3p)     0.00405
   112    C    8  py     Val( 2p)     1.07773
   113    C    8  py     Ryd( 3p)     0.00431
   114    C    8  pz     Val( 2p)     1.02143
   115    C    8  pz     Ryd( 3p)     0.00444
   116    C    8  dxy    Ryd( 3d)     0.00061
   117    C    8  dxz    Ryd( 3d)     0.00050
   118    C    8  dyz    Ryd( 3d)     0.00072
   119    C    8  dx2y2  Ryd( 3d)     0.00073
   120    C    8  dz2    Ryd( 3d)     0.00038

   121    H    9  S      Val( 1S)     0.58266
   122    H    9  S      Ryd( 2S)     0.00288
   123    H    9  px     Ryd( 2p)     0.00020
   124    H    9  py     Ryd( 2p)     0.00054
   125    H    9  pz     Ryd( 2p)     0.00050

   126    H   10  S      Val( 1S)     0.58024
   127    H   10  S      Ryd( 2S)     0.00140
   128    H   10  px     Ryd( 2p)     0.00046
   129    H   10  py     Ryd( 2p)     0.00029
   130    H   10  pz     Ryd( 2p)     0.00050

   131    H   11  S      Val( 1S)     0.77169
   132    H   11  S      Ryd( 2S)     0.00104
   133    H   11  px     Ryd( 2p)     0.00005
   134    H   11  py     Ryd( 2p)     0.00037
   135    H   11  pz     Ryd( 2p)     0.00026

   136    H   12  S      Val( 1S)     0.58266
   137    H   12  S      Ryd( 2S)     0.00288
   138    H   12  px     Ryd( 2p)     0.00020
   139    H   12  py     Ryd( 2p)     0.00054
   140    H   12  pz     Ryd( 2p)     0.00050

   141    H   13  S      Val( 1S)     0.58024
   142    H   13  S      Ryd( 2S)     0.00140
   143    H   13  px     Ryd( 2p)     0.00046
   144    H   13  py     Ryd( 2p)     0.00029
   145    H   13  pz     Ryd( 2p)     0.00050

   146    H   14  S      Val( 1S)     0.76466
   147    H   14  S      Ryd( 2S)     0.00110
   148    H   14  px     Ryd( 2p)     0.00032
   149    H   14  py     Ryd( 2p)     0.00015
   150    H   14  pz     Ryd( 2p)     0.00017

   151    H   15  S      Val( 1S)     0.76901
   152    H   15  S      Ryd( 2S)     0.00075
   153    H   15  px     Ryd( 2p)     0.00006
   154    H   15  py     Ryd( 2p)     0.00039
   155    H   15  pz     Ryd( 2p)     0.00024

   156    H   16  S      Val( 1S)     0.76466
   157    H   16  S      Ryd( 2S)     0.00110
   158    H   16  px     Ryd( 2p)     0.00032
   159    H   16  py     Ryd( 2p)     0.00015
   160    H   16  pz     Ryd( 2p)     0.00017


 Summary of Natural Population Analysis:                  
                                                          
                                       Natural Population 
                Natural  -----------------------------------------------
    Atom  No    Charge         Core      Valence    Rydberg      Total
 -----------------------------------------------------------------------
      N    1   -0.77854      1.99950     5.76708    0.01196     7.77854
      C    2    0.13709      1.99901     3.84424    0.01967     5.86291
      C    3   -0.43802      1.99900     4.41954    0.01948     6.43802
      C    4    0.13709      1.99901     3.84424    0.01967     5.86291
      N    5   -0.77854      1.99950     5.76708    0.01196     7.77854
      C    6   -0.24656      1.99905     4.23117    0.01634     6.24656
      C    7   -0.36993      1.99917     4.34998    0.02078     6.36993
      C    8   -0.24656      1.99905     4.23117    0.01634     6.24656
      H    9    0.41321      0.00000     0.58266    0.00413     0.58679
      H   10    0.41711      0.00000     0.58024    0.00266     0.58289
      H   11    0.22659      0.00000     0.77169    0.00172     0.77341
      H   12    0.41321      0.00000     0.58266    0.00413     0.58679
      H   13    0.41711      0.00000     0.58024    0.00266     0.58289
      H   14    0.23361      0.00000     0.76466    0.00173     0.76639
      H   15    0.22955      0.00000     0.76901    0.00144     0.77045
      H   16    0.23361      0.00000     0.76466    0.00173     0.76639
 =======================================================================
   * Total *   -0.00000     15.99329    41.85033    0.15638    58.00000

                                 Natural Population      
 --------------------------------------------------------
   Core                      15.99329 ( 99.9581% of  16)
   Valence                   41.85033 ( 99.6436% of  42)
   Natural Minimal Basis     57.84362 ( 99.7304% of  58)
   Natural Rydberg Basis      0.15638 (  0.2696% of  58)
 --------------------------------------------------------

    Atom  No          Natural Electron Configuration
 ----------------------------------------------------------------------------
      N    1      [core]2S( 1.37)2p( 4.40)3p( 0.01)
      C    2      [core]2S( 0.85)2p( 3.00)3p( 0.01)
      C    3      [core]2S( 0.94)2p( 3.48)3p( 0.02)
      C    4      [core]2S( 0.85)2p( 3.00)3p( 0.01)
      N    5      [core]2S( 1.37)2p( 4.40)3p( 0.01)
      C    6      [core]2S( 0.96)2p( 3.27)3p( 0.01)
      C    7      [core]2S( 0.95)2p( 3.40)3p( 0.02)
      C    8      [core]2S( 0.96)2p( 3.27)3p( 0.01)
      H    9            1S( 0.58)
      H   10            1S( 0.58)
      H   11            1S( 0.77)
      H   12            1S( 0.58)
      H   13            1S( 0.58)
      H   14            1S( 0.76)
      H   15            1S( 0.77)
      H   16            1S( 0.76)


 NBO analysis skipped by request.
 1\1\GINC-DRG2-W011\SP\RB3LYP TD-FC\6-31G(d,p)\C6H8N2\QDUEZ\21-Jul-2024
 \0\\# TD(NStates=10, Root=1) B3LYP/6-31G** SCRF=(Solvent=water) volume
  pop=NPA density=current Geom=AllCheck Guess=Read\\WZCQRUWWHSTZEM-UHFF
 FAOYSA-N_conf_0\\0,1\N,0,-2.390764462,-0.8703662496,-0.6229616272\C,0,
 -1.1969786874,-0.2179910769,-0.2980962072\C,0,0.0029665086,-0.94124021
 55,-0.2154570004\C,0,1.1986704572,-0.3187871882,0.1752236022\N,0,2.396
 7865064,-1.0403591004,0.1855821512\C,0,1.1891348099,1.0533085395,0.489
 7686713\C,0,-0.0055667458,1.76626767,0.4043120203\C,0,-1.1960926546,1.
 1543368326,0.0155780406\H,0,-2.274148789,-1.7067094069,-1.1814424105\H
 ,0,-3.0991991351,-0.2680234875,-1.0230802954\H,0,0.006308634,-2.001659
 9101,-0.4581950841\H,0,2.2859480076,-2.0370514456,0.3244672602\H,0,3.1
 021486456,-0.6678231958,0.8088579252\H,0,2.1088468028,1.5462145694,0.7
 917592251\H,0,-0.0089062974,2.8258707282,0.6468631698\H,0,-2.119153592
 3,1.7240129358,-0.0431794365\\Version=ES64L-G16RevA.03\State=1-A\HF=-3
 42.9854551\RMSD=5.979e-09\Dipole=0.0027538,-0.8737669,-0.2000119\Quadr
 upole=5.6659397,-0.6562612,-5.0096785,-1.7905717,7.9058167,1.0792922\P
 G=C01 [X(C6H8N2)]\\@


 OLD HORSE! OLD HORSE! WHAT BROUGHT YOU HERE?
 FROM SACARAP' TO PORTLAND PIER
 I'VE CARTED STONE THIS MANY A YEAR;
 TILL, KILLED BY BLOWS AND SORE ABUSE,
 THEY SALTED ME DOWN FOR SAILORS' USE.
 THE SAILORS THEY DO ME DESPISE;
 THEY TURN ME OVER AND DAMN MY EYES;
 CUT OFF MY MEAT, AND SCRAPE MY BONES,
 AND PITCH ME OVER TO DAVY JONES.

    SAILORS' COMPLAINT ABOUT THE BEEF
    SERVED ON SHIPBOARD, CIRCA 1835.
 Job cpu time:       0 days  0 hours 10 minutes 28.8 seconds.
 Elapsed time:       0 days  0 hours  5 minutes 16.7 seconds.
 File lengths (MBytes):  RWF=    269 Int=      0 D2E=      0 Chk=     16 Scr=      1
 Normal termination of Gaussian 16 at Sun Jul 21 12:06:33 2024.
