 Entering Gaussian System, Link 0=g16
 Initial command:
 /opt/sw/arch/manual/gaussian/G16_A03/g16/l1.exe "/scratch/1381400/Gau-248206.inp" -scrdir="/scratch/1381400/"
 Entering Link 1 = /opt/sw/arch/manual/gaussian/G16_A03/g16/l1.exe PID=    248211.
  
 Copyright (c) 1988,1990,1992,1993,1995,1998,2003,2009,2016,
            Gaussian, Inc.  All Rights Reserved.
  
 This is part of the Gaussian(R) 16 program.  It is based on
 the Gaussian(R) 09 system (copyright 2009, Gaussian, Inc.),
 the Gaussian(R) 03 system (copyright 2003, Gaussian, Inc.),
 the Gaussian(R) 98 system (copyright 1998, Gaussian, Inc.),
 the Gaussian(R) 94 system (copyright 1995, Gaussian, Inc.),
 the Gaussian 92(TM) system (copyright 1992, Gaussian, Inc.),
 the Gaussian 90(TM) system (copyright 1990, Gaussian, Inc.),
 the Gaussian 88(TM) system (copyright 1988, Gaussian, Inc.),
 the Gaussian 86(TM) system (copyright 1986, Carnegie Mellon
 University), and the Gaussian 82(TM) system (copyright 1983,
 Carnegie Mellon University). Gaussian is a federally registered
 trademark of Gaussian, Inc.
  
 This software contains proprietary and confidential information,
 including trade secrets, belonging to Gaussian, Inc.
  
 This software is provided under written license and may be
 used, copied, transmitted, or stored only in accord with that
 written license.
  
 The following legend is applicable only to US Government
 contracts under FAR:
  
                    RESTRICTED RIGHTS LEGEND
  
 Use, reproduction and disclosure by the US Government is
 subject to restrictions as set forth in subparagraphs (a)
 and (c) of the Commercial Computer Software - Restricted
 Rights clause in FAR 52.227-19.
  
 Gaussian, Inc.
 340 Quinnipiac St., Bldg. 40, Wallingford CT 06492
  
  
 ---------------------------------------------------------------
 Warning -- This program may not be used in any manner that
 competes with the business of Gaussian, Inc. or will provide
 assistance to any competitor of Gaussian, Inc.  The licensee
 of this program is prohibited from giving any competitor of
 Gaussian, Inc. access to this program.  By using this program,
 the user acknowledges that Gaussian, Inc. is engaged in the
 business of creating and licensing software in the field of
 computational chemistry and represents and warrants to the
 licensee that it is not a competitor of Gaussian, Inc. and that
 it will not use this program in any manner prohibited above.
 ---------------------------------------------------------------
  

 Cite this work as:
 Gaussian 16, Revision A.03,
 M. J. Frisch, G. W. Trucks, H. B. Schlegel, G. E. Scuseria, 
 M. A. Robb, J. R. Cheeseman, G. Scalmani, V. Barone, 
 G. A. Petersson, H. Nakatsuji, X. Li, M. Caricato, A. V. Marenich, 
 J. Bloino, B. G. Janesko, R. Gomperts, B. Mennucci, H. P. Hratchian, 
 J. V. Ortiz, A. F. Izmaylov, J. L. Sonnenberg, D. Williams-Young, 
 F. Ding, F. Lipparini, F. Egidi, J. Goings, B. Peng, A. Petrone, 
 T. Henderson, D. Ranasinghe, V. G. Zakrzewski, J. Gao, N. Rega, 
 G. Zheng, W. Liang, M. Hada, M. Ehara, K. Toyota, R. Fukuda, 
 J. Hasegawa, M. Ishida, T. Nakajima, Y. Honda, O. Kitao, H. Nakai, 
 T. Vreven, K. Throssell, J. A. Montgomery, Jr., J. E. Peralta, 
 F. Ogliaro, M. J. Bearpark, J. J. Heyd, E. N. Brothers, K. N. Kudin, 
 V. N. Staroverov, T. A. Keith, R. Kobayashi, J. Normand, 
 K. Raghavachari, A. P. Rendell, J. C. Burant, S. S. Iyengar, 
 J. Tomasi, M. Cossi, J. M. Millam, M. Klene, C. Adamo, R. Cammi, 
 J. W. Ochterski, R. L. Martin, K. Morokuma, O. Farkas, 
 J. B. Foresman, and D. J. Fox, Gaussian, Inc., Wallingford CT, 2016.
 
 ******************************************
 Gaussian 16:  ES64L-G16RevA.03 25-Dec-2016
                19-Jul-2024 
 ******************************************
 %nprocshared=5
 Will use up to    5 processors via shared memory.
 %mem=10GB
 %Chk=SXJVFQLYZSNZBT-UHFFFAOYSA-N_conf_3_0.chk
 -------------------------------------------------------
 # opt=CalcFc B3LYP/6-31G** SCRF=(Solvent=water) scf=xqc
 -------------------------------------------------------
 1/10=4,18=20,19=15,26=3,38=1/1,3;
 2/9=110,12=2,17=6,18=5,40=1/2;
 3/5=1,6=6,7=101,11=2,25=1,30=1,70=2201,71=2,72=1,74=-5,140=1/1,2,3;
 4//1;
 5/5=2,8=3,13=1,38=5,53=1/2,8;
 8/6=4,10=90,11=11/1;
 11/6=1,8=1,9=11,15=111,16=1/1,2,10;
 10/6=1,13=1/2;
 6/7=2,8=2,9=2,10=2,28=1/1;
 7/10=1,18=20,25=1/1,2,3,16;
 1/10=4,18=20,19=15,26=3/3(2);
 2/9=110/2;
 99//99;
 2/9=110/2;
 3/5=1,6=6,7=101,11=2,25=1,30=1,70=2205,71=1,72=1,74=-5/1,2,3;
 4/5=5,16=3,69=1/1;
 5/5=2,8=3,13=1,38=5,53=1/2,8;
 7//1,2,3,16;
 1/18=20,19=15,26=3/3(-5);
 2/9=110/2;
 6/7=2,8=2,9=2,10=2,19=2,28=1/1;
 99/9=1/99;
 ----------------------------------
 SXJVFQLYZSNZBT-UHFFFAOYSA-N_conf_3
 ----------------------------------
 Symbolic Z-matrix:
 Charge =  0 Multiplicity = 1
 N                     5.08173   0.82696   0.46292 
 C                     4.2709   -0.02837   1.3208 
 C                     2.7815    0.06415   0.98029 
 C                     2.45392  -0.45925  -0.4224 
 C                     0.97171  -0.32441  -0.78927 
 C                     0.05246  -1.19813   0.06829 
 C                    -1.39105  -1.24205  -0.44385 
 C                    -2.10334   0.11134  -0.36989 
 C                    -3.57255  -0.01559  -0.786 
 C                    -4.31079   1.32453  -0.83303 
 N                    -4.43144   1.95722   0.47526 
 H                     6.05389   0.78658   0.76608 
 H                     4.78854   1.79718   0.5697 
 H                     4.42039   0.27058   2.36418 
 H                     4.61292  -1.06448   1.22473 
 H                     2.23109  -0.51782   1.7282 
 H                     2.44309   1.10344   1.0764 
 H                     2.75889  -1.50952  -0.50535 
 H                     3.03459   0.09755  -1.16748 
 H                     0.85437  -0.6072   -1.84267 
 H                     0.67746   0.7281   -0.70777 
 H                     0.0529   -0.84381   1.10525 
 H                     0.44128  -2.22374   0.0819 
 H                    -1.40341  -1.61174  -1.47641 
 H                    -1.94535  -1.97206   0.15914 
 H                    -2.03387   0.49812   0.65304 
 H                    -1.60652   0.83285  -1.02792 
 H                    -4.09195  -0.70026  -0.10368 
 H                    -3.62428  -0.469    -1.78385 
 H                    -5.31839   1.16198  -1.23102 
 H                    -3.8041    2.01147  -1.51962 
 H                    -3.50679   2.18627   0.83615 
 H                    -4.83782   1.29795   1.1379 
 

 GradGradGradGradGradGradGradGradGradGradGradGradGradGradGradGradGradGrad
 Berny optimization.
 Initialization pass.
                           ----------------------------
                           !    Initial Parameters    !
                           ! (Angstroms and Degrees)  !
 --------------------------                            --------------------------
 ! Name  Definition              Value          Derivative Info.                !
 --------------------------------------------------------------------------------
 ! R1    R(1,2)                  1.4577         calculate D2E/DX2 analytically  !
 ! R2    R(1,12)                 1.0191         calculate D2E/DX2 analytically  !
 ! R3    R(1,13)                 1.0192         calculate D2E/DX2 analytically  !
 ! R4    R(2,3)                  1.5306         calculate D2E/DX2 analytically  !
 ! R5    R(2,14)                 1.0956         calculate D2E/DX2 analytically  !
 ! R6    R(2,15)                 1.0953         calculate D2E/DX2 analytically  !
 ! R7    R(3,4)                  1.5326         calculate D2E/DX2 analytically  !
 ! R8    R(3,16)                 1.0959         calculate D2E/DX2 analytically  !
 ! R9    R(3,17)                 1.0972         calculate D2E/DX2 analytically  !
 ! R10   R(4,5)                  1.5329         calculate D2E/DX2 analytically  !
 ! R11   R(4,18)                 1.0968         calculate D2E/DX2 analytically  !
 ! R12   R(4,19)                 1.0965         calculate D2E/DX2 analytically  !
 ! R13   R(5,6)                  1.531          calculate D2E/DX2 analytically  !
 ! R14   R(5,20)                 1.097          calculate D2E/DX2 analytically  !
 ! R15   R(5,21)                 1.0959         calculate D2E/DX2 analytically  !
 ! R16   R(6,7)                  1.5323         calculate D2E/DX2 analytically  !
 ! R17   R(6,22)                 1.0958         calculate D2E/DX2 analytically  !
 ! R18   R(6,23)                 1.0969         calculate D2E/DX2 analytically  !
 ! R19   R(7,8)                  1.5312         calculate D2E/DX2 analytically  !
 ! R20   R(7,24)                 1.0968         calculate D2E/DX2 analytically  !
 ! R21   R(7,25)                 1.0972         calculate D2E/DX2 analytically  !
 ! R22   R(8,9)                  1.5323         calculate D2E/DX2 analytically  !
 ! R23   R(8,26)                 1.0958         calculate D2E/DX2 analytically  !
 ! R24   R(8,27)                 1.0956         calculate D2E/DX2 analytically  !
 ! R25   R(9,10)                 1.5307         calculate D2E/DX2 analytically  !
 ! R26   R(9,28)                 1.0973         calculate D2E/DX2 analytically  !
 ! R27   R(9,29)                 1.0972         calculate D2E/DX2 analytically  !
 ! R28   R(10,11)                1.4582         calculate D2E/DX2 analytically  !
 ! R29   R(10,30)                1.0955         calculate D2E/DX2 analytically  !
 ! R30   R(10,31)                1.0955         calculate D2E/DX2 analytically  !
 ! R31   R(11,32)                1.0187         calculate D2E/DX2 analytically  !
 ! R32   R(11,33)                1.0193         calculate D2E/DX2 analytically  !
 ! A1    A(2,1,12)             109.4073         calculate D2E/DX2 analytically  !
 ! A2    A(2,1,13)             109.6877         calculate D2E/DX2 analytically  !
 ! A3    A(12,1,13)            106.3181         calculate D2E/DX2 analytically  !
 ! A4    A(1,2,3)              112.0157         calculate D2E/DX2 analytically  !
 ! A5    A(1,2,14)             108.9327         calculate D2E/DX2 analytically  !
 ! A6    A(1,2,15)             109.2521         calculate D2E/DX2 analytically  !
 ! A7    A(3,2,14)             109.1554         calculate D2E/DX2 analytically  !
 ! A8    A(3,2,15)             109.9687         calculate D2E/DX2 analytically  !
 ! A9    A(14,2,15)            107.3998         calculate D2E/DX2 analytically  !
 ! A10   A(2,3,4)              113.0138         calculate D2E/DX2 analytically  !
 ! A11   A(2,3,16)             107.7455         calculate D2E/DX2 analytically  !
 ! A12   A(2,3,17)             109.7482         calculate D2E/DX2 analytically  !
 ! A13   A(4,3,16)             109.6278         calculate D2E/DX2 analytically  !
 ! A14   A(4,3,17)             109.7385         calculate D2E/DX2 analytically  !
 ! A15   A(16,3,17)            106.7582         calculate D2E/DX2 analytically  !
 ! A16   A(3,4,5)              113.3088         calculate D2E/DX2 analytically  !
 ! A17   A(3,4,18)             109.6834         calculate D2E/DX2 analytically  !
 ! A18   A(3,4,19)             109.5912         calculate D2E/DX2 analytically  !
 ! A19   A(5,4,18)             109.572          calculate D2E/DX2 analytically  !
 ! A20   A(5,4,19)             107.7435         calculate D2E/DX2 analytically  !
 ! A21   A(18,4,19)            106.715          calculate D2E/DX2 analytically  !
 ! A22   A(4,5,6)              113.3491         calculate D2E/DX2 analytically  !
 ! A23   A(4,5,20)             108.094          calculate D2E/DX2 analytically  !
 ! A24   A(4,5,21)             109.0452         calculate D2E/DX2 analytically  !
 ! A25   A(6,5,20)             109.059          calculate D2E/DX2 analytically  !
 ! A26   A(6,5,21)             110.1958         calculate D2E/DX2 analytically  !
 ! A27   A(20,5,21)            106.874          calculate D2E/DX2 analytically  !
 ! A28   A(5,6,7)              113.253          calculate D2E/DX2 analytically  !
 ! A29   A(5,6,22)             110.1993         calculate D2E/DX2 analytically  !
 ! A30   A(5,6,23)             109.13           calculate D2E/DX2 analytically  !
 ! A31   A(7,6,22)             109.0214         calculate D2E/DX2 analytically  !
 ! A32   A(7,6,23)             108.1361         calculate D2E/DX2 analytically  !
 ! A33   A(22,6,23)            106.8839         calculate D2E/DX2 analytically  !
 ! A34   A(6,7,8)              113.3759         calculate D2E/DX2 analytically  !
 ! A35   A(6,7,24)             109.5677         calculate D2E/DX2 analytically  !
 ! A36   A(6,7,25)             108.1387         calculate D2E/DX2 analytically  !
 ! A37   A(8,7,24)             109.7645         calculate D2E/DX2 analytically  !
 ! A38   A(8,7,25)             109.0591         calculate D2E/DX2 analytically  !
 ! A39   A(24,7,25)            106.7045         calculate D2E/DX2 analytically  !
 ! A40   A(7,8,9)              111.0826         calculate D2E/DX2 analytically  !
 ! A41   A(7,8,26)             109.1217         calculate D2E/DX2 analytically  !
 ! A42   A(7,8,27)             110.0058         calculate D2E/DX2 analytically  !
 ! A43   A(9,8,26)             110.0924         calculate D2E/DX2 analytically  !
 ! A44   A(9,8,27)             109.0409         calculate D2E/DX2 analytically  !
 ! A45   A(26,8,27)            107.4252         calculate D2E/DX2 analytically  !
 ! A46   A(8,9,10)             113.4693         calculate D2E/DX2 analytically  !
 ! A47   A(8,9,28)             109.6751         calculate D2E/DX2 analytically  !
 ! A48   A(8,9,29)             109.0509         calculate D2E/DX2 analytically  !
 ! A49   A(10,9,28)            109.6987         calculate D2E/DX2 analytically  !
 ! A50   A(10,9,29)            108.1246         calculate D2E/DX2 analytically  !
 ! A51   A(28,9,29)            106.5782         calculate D2E/DX2 analytically  !
 ! A52   A(9,10,11)            113.09           calculate D2E/DX2 analytically  !
 ! A53   A(9,10,30)            108.9565         calculate D2E/DX2 analytically  !
 ! A54   A(9,10,31)            110.1923         calculate D2E/DX2 analytically  !
 ! A55   A(11,10,30)           108.3143         calculate D2E/DX2 analytically  !
 ! A56   A(11,10,31)           109.1784         calculate D2E/DX2 analytically  !
 ! A57   A(30,10,31)           106.9044         calculate D2E/DX2 analytically  !
 ! A58   A(10,11,32)           109.8956         calculate D2E/DX2 analytically  !
 ! A59   A(10,11,33)           109.6105         calculate D2E/DX2 analytically  !
 ! A60   A(32,11,33)           106.0828         calculate D2E/DX2 analytically  !
 ! D1    D(12,1,2,3)           175.9559         calculate D2E/DX2 analytically  !
 ! D2    D(12,1,2,14)           55.1001         calculate D2E/DX2 analytically  !
 ! D3    D(12,1,2,15)          -61.9434         calculate D2E/DX2 analytically  !
 ! D4    D(13,1,2,3)            59.6957         calculate D2E/DX2 analytically  !
 ! D5    D(13,1,2,14)          -61.1601         calculate D2E/DX2 analytically  !
 ! D6    D(13,1,2,15)         -178.2036         calculate D2E/DX2 analytically  !
 ! D7    D(1,2,3,4)             64.6075         calculate D2E/DX2 analytically  !
 ! D8    D(1,2,3,16)          -174.1195         calculate D2E/DX2 analytically  !
 ! D9    D(1,2,3,17)           -58.2361         calculate D2E/DX2 analytically  !
 ! D10   D(14,2,3,4)          -174.6657         calculate D2E/DX2 analytically  !
 ! D11   D(14,2,3,16)          -53.3927         calculate D2E/DX2 analytically  !
 ! D12   D(14,2,3,17)           62.4906         calculate D2E/DX2 analytically  !
 ! D13   D(15,2,3,4)           -57.0829         calculate D2E/DX2 analytically  !
 ! D14   D(15,2,3,16)           64.1901         calculate D2E/DX2 analytically  !
 ! D15   D(15,2,3,17)         -179.9265         calculate D2E/DX2 analytically  !
 ! D16   D(2,3,4,5)           -177.9778         calculate D2E/DX2 analytically  !
 ! D17   D(2,3,4,18)            59.2348         calculate D2E/DX2 analytically  !
 ! D18   D(2,3,4,19)           -57.6082         calculate D2E/DX2 analytically  !
 ! D19   D(16,3,4,5)            61.8199         calculate D2E/DX2 analytically  !
 ! D20   D(16,3,4,18)          -60.9675         calculate D2E/DX2 analytically  !
 ! D21   D(16,3,4,19)         -177.8105         calculate D2E/DX2 analytically  !
 ! D22   D(17,3,4,5)           -55.1288         calculate D2E/DX2 analytically  !
 ! D23   D(17,3,4,18)         -177.9161         calculate D2E/DX2 analytically  !
 ! D24   D(17,3,4,19)           65.2408         calculate D2E/DX2 analytically  !
 ! D25   D(3,4,5,6)            -65.7542         calculate D2E/DX2 analytically  !
 ! D26   D(3,4,5,20)           173.2339         calculate D2E/DX2 analytically  !
 ! D27   D(3,4,5,21)            57.3949         calculate D2E/DX2 analytically  !
 ! D28   D(18,4,5,6)            57.0948         calculate D2E/DX2 analytically  !
 ! D29   D(18,4,5,20)          -63.9172         calculate D2E/DX2 analytically  !
 ! D30   D(18,4,5,21)         -179.7561         calculate D2E/DX2 analytically  !
 ! D31   D(19,4,5,6)           172.8328         calculate D2E/DX2 analytically  !
 ! D32   D(19,4,5,20)           51.8209         calculate D2E/DX2 analytically  !
 ! D33   D(19,4,5,21)          -64.0181         calculate D2E/DX2 analytically  !
 ! D34   D(4,5,6,7)           -170.4823         calculate D2E/DX2 analytically  !
 ! D35   D(4,5,6,22)            67.1008         calculate D2E/DX2 analytically  !
 ! D36   D(4,5,6,23)           -49.9752         calculate D2E/DX2 analytically  !
 ! D37   D(20,5,6,7)           -50.0158         calculate D2E/DX2 analytically  !
 ! D38   D(20,5,6,22)         -172.4326         calculate D2E/DX2 analytically  !
 ! D39   D(20,5,6,23)           70.4914         calculate D2E/DX2 analytically  !
 ! D40   D(21,5,6,7)            67.0043         calculate D2E/DX2 analytically  !
 ! D41   D(21,5,6,22)          -55.4125         calculate D2E/DX2 analytically  !
 ! D42   D(21,5,6,23)         -172.4886         calculate D2E/DX2 analytically  !
 ! D43   D(5,6,7,8)            -65.129          calculate D2E/DX2 analytically  !
 ! D44   D(5,6,7,24)            57.869          calculate D2E/DX2 analytically  !
 ! D45   D(5,6,7,25)           173.8103         calculate D2E/DX2 analytically  !
 ! D46   D(22,6,7,8)            57.9404         calculate D2E/DX2 analytically  !
 ! D47   D(22,6,7,24)         -179.0615         calculate D2E/DX2 analytically  !
 ! D48   D(22,6,7,25)          -63.1203         calculate D2E/DX2 analytically  !
 ! D49   D(23,6,7,8)           173.8014         calculate D2E/DX2 analytically  !
 ! D50   D(23,6,7,24)          -63.2006         calculate D2E/DX2 analytically  !
 ! D51   D(23,6,7,25)           52.7407         calculate D2E/DX2 analytically  !
 ! D52   D(6,7,8,9)           -175.3899         calculate D2E/DX2 analytically  !
 ! D53   D(6,7,8,26)           -53.8332         calculate D2E/DX2 analytically  !
 ! D54   D(6,7,8,27)            63.7821         calculate D2E/DX2 analytically  !
 ! D55   D(24,7,8,9)            61.7205         calculate D2E/DX2 analytically  !
 ! D56   D(24,7,8,26)         -176.7227         calculate D2E/DX2 analytically  !
 ! D57   D(24,7,8,27)          -59.1075         calculate D2E/DX2 analytically  !
 ! D58   D(25,7,8,9)           -54.8489         calculate D2E/DX2 analytically  !
 ! D59   D(25,7,8,26)           66.7079         calculate D2E/DX2 analytically  !
 ! D60   D(25,7,8,27)         -175.6769         calculate D2E/DX2 analytically  !
 ! D61   D(7,8,9,10)          -175.6755         calculate D2E/DX2 analytically  !
 ! D62   D(7,8,9,28)            61.2656         calculate D2E/DX2 analytically  !
 ! D63   D(7,8,9,29)           -55.0968         calculate D2E/DX2 analytically  !
 ! D64   D(26,8,9,10)           63.3371         calculate D2E/DX2 analytically  !
 ! D65   D(26,8,9,28)          -59.7218         calculate D2E/DX2 analytically  !
 ! D66   D(26,8,9,29)         -176.0841         calculate D2E/DX2 analytically  !
 ! D67   D(27,8,9,10)          -54.2806         calculate D2E/DX2 analytically  !
 ! D68   D(27,8,9,28)         -177.3395         calculate D2E/DX2 analytically  !
 ! D69   D(27,8,9,29)           66.2981         calculate D2E/DX2 analytically  !
 ! D70   D(8,9,10,11)          -65.0119         calculate D2E/DX2 analytically  !
 ! D71   D(8,9,10,30)          174.4827         calculate D2E/DX2 analytically  !
 ! D72   D(8,9,10,31)           57.4881         calculate D2E/DX2 analytically  !
 ! D73   D(28,9,10,11)          58.034          calculate D2E/DX2 analytically  !
 ! D74   D(28,9,10,30)         -62.4713         calculate D2E/DX2 analytically  !
 ! D75   D(28,9,10,31)        -179.466          calculate D2E/DX2 analytically  !
 ! D76   D(29,9,10,11)         173.8876         calculate D2E/DX2 analytically  !
 ! D77   D(29,9,10,30)          53.3822         calculate D2E/DX2 analytically  !
 ! D78   D(29,9,10,31)         -63.6124         calculate D2E/DX2 analytically  !
 ! D79   D(9,10,11,32)          63.5516         calculate D2E/DX2 analytically  !
 ! D80   D(9,10,11,33)         -52.6605         calculate D2E/DX2 analytically  !
 ! D81   D(30,10,11,32)       -175.5781         calculate D2E/DX2 analytically  !
 ! D82   D(30,10,11,33)         68.2098         calculate D2E/DX2 analytically  !
 ! D83   D(31,10,11,32)        -59.5117         calculate D2E/DX2 analytically  !
 ! D84   D(31,10,11,33)       -175.7238         calculate D2E/DX2 analytically  !
 --------------------------------------------------------------------------------
 Trust Radius=3.00D-01 FncErr=1.00D-07 GrdErr=1.00D-06 EigMax=2.50D+02 EigMin=1.00D-04
 Number of steps in this run=    186 maximum allowed number of steps=    198.
 GradGradGradGradGradGradGradGradGradGradGradGradGradGradGradGradGradGrad

                          Input orientation:                          
 ---------------------------------------------------------------------
 Center     Atomic      Atomic             Coordinates (Angstroms)
 Number     Number       Type             X           Y           Z
 ---------------------------------------------------------------------
      1          7           0        5.081735    0.826958    0.462917
      2          6           0        4.270899   -0.028367    1.320802
      3          6           0        2.781500    0.064152    0.980293
      4          6           0        2.453924   -0.459248   -0.422399
      5          6           0        0.971713   -0.324409   -0.789269
      6          6           0        0.052462   -1.198130    0.068288
      7          6           0       -1.391052   -1.242047   -0.443851
      8          6           0       -2.103343    0.111339   -0.369889
      9          6           0       -3.572546   -0.015590   -0.785999
     10          6           0       -4.310793    1.324533   -0.833029
     11          7           0       -4.431437    1.957219    0.475263
     12          1           0        6.053894    0.786579    0.766078
     13          1           0        4.788541    1.797182    0.569702
     14          1           0        4.420385    0.270583    2.364185
     15          1           0        4.612920   -1.064484    1.224729
     16          1           0        2.231095   -0.517825    1.728202
     17          1           0        2.443092    1.103439    1.076396
     18          1           0        2.758889   -1.509517   -0.505353
     19          1           0        3.034592    0.097549   -1.167483
     20          1           0        0.854374   -0.607200   -1.842671
     21          1           0        0.677455    0.728105   -0.707775
     22          1           0        0.052903   -0.843811    1.105247
     23          1           0        0.441283   -2.223740    0.081896
     24          1           0       -1.403407   -1.611736   -1.476414
     25          1           0       -1.945348   -1.972061    0.159136
     26          1           0       -2.033867    0.498117    0.653036
     27          1           0       -1.606524    0.832850   -1.027919
     28          1           0       -4.091950   -0.700262   -0.103682
     29          1           0       -3.624284   -0.468998   -1.783848
     30          1           0       -5.318395    1.161983   -1.231024
     31          1           0       -3.804102    2.011469   -1.519620
     32          1           0       -3.506792    2.186274    0.836149
     33          1           0       -4.837817    1.297949    1.137905
 ---------------------------------------------------------------------
                    Distance matrix (angstroms):
                    1          2          3          4          5
     1  N    0.000000
     2  C    1.457739   0.000000
     3  C    2.478030   1.530625   0.000000
     4  C    3.056714   2.554566   1.532579   0.000000
     5  C    4.448134   3.927426   2.560793   1.532881   0.000000
     6  C    5.436019   4.553279   3.142095   2.560028   1.530953
     7  C    6.855653   6.053488   4.598319   3.923911   2.558131
     8  C    7.268495   6.596129   5.068226   4.593148   3.133964
     9  C    8.784432   8.121478   6.595457   6.053707   4.554741
    10  C    9.494559   8.950686   7.428145   7.007988   5.534058
    11  N    9.580087   8.965943   7.474304   7.352095   5.999908
    12  H    1.019132   2.037383   3.358028   3.990532   5.429730
    13  H    1.019166   2.040768   2.683317   3.395022   4.573415
    14  H    2.088482   1.095611   2.154927   3.487789   4.710799
    15  H    2.092295   1.095330   2.165101   2.782194   4.226380
    16  H    3.396400   2.136901   1.095906   2.162907   2.821545
    17  H    2.723092   2.163700   1.097212   2.165293   2.772078
    18  H    3.433989   2.795501   2.164276   1.096791   2.163120
    19  H    2.716806   2.781344   2.162895   1.096516   2.139290
    20  H    5.024254   4.692042   3.483340   2.144207   1.096993
    21  H    4.558286   4.195261   2.778023   2.155710   1.095908
    22  H    5.337902   4.301500   2.878411   2.871670   2.168682
    23  H    5.566482   4.584813   3.393844   2.723686   2.155862
    24  H    7.194811   6.521444   5.133952   4.161512   2.787575
    25  H    7.570118   6.615825   5.211867   4.688324   3.481878
    26  H    7.125733   6.361852   4.845945   4.713106   3.433701
    27  H    6.852404   6.387667   4.886571   4.303883   2.836108
    28  H    9.317185   8.509868   7.000261   6.558059   5.123669
    29  H    9.084174   8.495111   6.997056   6.228824   4.704602
    30  H   10.542503   9.994163   8.467789   7.980677   6.478423
    31  H    9.181046   8.799691   7.308335   6.816980   5.366390
    32  H    8.703438   8.101358   6.638283   6.641751   5.385399
    33  H    9.953640   9.206589   7.720175   7.661056   6.332195
                    6          7          8          9         10
     6  C    0.000000
     7  C    1.532302   0.000000
     8  C    2.560118   1.531170   0.000000
     9  C    3.907542   2.525901   1.532258   0.000000
    10  C    5.119981   3.906876   2.561089   1.530736   0.000000
    11  N    5.497927   4.508216   3.088944   2.494083   1.458244
    12  H    6.359495   7.810664   8.263588   9.783699  10.501109
    13  H    5.626167   6.960716   7.157022   8.662092   9.218945
    14  H    5.148496   6.629172   7.075277   8.596074   9.357696
    15  H    4.706696   6.234049   7.002396   8.493824   9.464377
    16  H    2.822157   4.285121   4.856458   6.344737   7.262953
    17  H    3.468230   4.744799   4.872995   6.395986   7.022091
    18  H    2.784021   4.159006   5.127068   6.511347   7.623623
    19  H    3.478363   4.680222   5.199492   6.619108   7.454665
    20  H    2.155000   2.720600   3.381342   4.589572   5.606240
    21  H    2.168703   2.868776   2.868346   4.315288   5.025340
    22  H    1.095822   2.154833   2.781679   4.172127   5.244090
    23  H    1.096924   2.144198   3.483077   4.662616   6.000797
    24  H    2.162575   1.096818   2.164092   2.780201   4.181927
    25  H    2.144404   1.097159   2.155316   2.714559   4.176992
    26  H    2.751718   2.155119   1.095809   2.168467   2.841786
    27  H    2.842320   2.166278   1.095633   2.154905   2.755505
    28  H    4.177751   2.775625   2.164283   1.097321   2.163247
    29  H    4.180969   2.716711   2.156231   1.097250   2.142920
    30  H    6.008697   4.671511   3.490267   2.152374   1.095482
    31  H    5.262705   4.191116   2.797312   2.168129   1.095456
    32  H    4.971126   4.227072   2.780207   2.735671   2.043323
    33  H    5.593686   4.564397   3.340484   2.650981   2.040353
                   11         12         13         14         15
    11  N    0.000000
    12  H   10.554484   0.000000
    13  H    9.221850   1.631257   0.000000
    14  H    9.206927   2.342766   2.384578   0.000000
    15  H    9.565185   2.390231   2.940924   1.765739   0.000000
    16  H    7.216995   4.152222   3.638944   2.412271   2.495078
    17  H    6.953377   3.637937   2.497828   2.502346   3.070838
    18  H    8.042428   4.212559   4.026101   3.763453   2.574620
    19  H    7.867564   3.650973   2.997149   3.797768   3.092590
    20  H    6.315763   5.981906   5.203678   5.584315   4.872855
    21  H    5.386193   5.575102   4.435752   4.863721   4.736647
    22  H    5.324655   6.227768   5.448662   4.679925   4.566916
    23  H    6.432616   6.405586   5.941752   5.221469   4.478001
    24  H    5.071040   8.148131   7.358501   7.225641   6.617541
    25  H    4.660452   8.483298   7.727938   7.100299   6.705972
    26  H    2.812281   8.093693   6.945485   6.681105   6.851885
    27  H    3.391739   7.867819   6.661771   6.938742   6.881553
    28  H    2.740918  10.291032   9.249530   8.915871   8.813177
    29  H    3.411980  10.086909   9.024987   9.081291   8.789633
    30  H    2.080987  11.552415  10.285730  10.419402  10.469903
    31  H    2.091901  10.193373   8.845603   9.260497   9.372256
    32  H    1.018662   9.662855   8.308726   8.297283   8.754892
    33  H    1.019252  10.910048   9.656028   9.395401   9.741923
                   16         17         18         19         20
    16  H    0.000000
    17  H    1.760197   0.000000
    18  H    2.500158   3.070700   0.000000
    19  H    3.067456   2.529165   1.759855   0.000000
    20  H    3.828117   3.737815   2.495951   2.388703   0.000000
    21  H    3.146446   2.538034   3.062726   2.482947   1.761343
    22  H    2.288855   3.083118   3.218626   3.865478   3.064075
    23  H    2.970504   4.008290   2.495249   3.697915   2.547116
    24  H    4.967476   5.355798   4.275291   4.765808   2.498162
    25  H    4.692488   5.436771   4.773399   5.553648   3.702502
    26  H    4.514202   4.537490   5.323811   5.400371   3.973941
    27  H    4.914046   4.571734   4.981625   4.701074   2.965397
    28  H    6.585589   6.881330   6.910154   7.249536   5.243936
    29  H    6.828055   6.889601   6.592581   6.711297   4.481175
    30  H    8.280915   8.097425   8.538502   8.420774   6.450364
    31  H    7.305427   6.825778   7.516576   7.110191   5.353801
    32  H    6.405564   6.052386   7.397111   7.153112   5.830895
    33  H    7.322227   7.283767   8.263904   8.290392   6.701825
                   21         22         23         24         25
    21  H    0.000000
    22  H    2.479522   0.000000
    23  H    3.064758   1.761332   0.000000
    24  H    3.224229   3.061948   2.491137   0.000000
    25  H    3.862839   2.482153   2.401107   1.760272   0.000000
    26  H    3.042362   2.521879   3.723046   3.063252   2.520625
    27  H    2.308685   3.180454   3.842908   2.493672   3.064544
    28  H    5.015216   4.319945   4.785983   3.153322   2.508874
    29  H    4.593032   4.691381   4.805097   2.516477   2.975434
    30  H    6.034257   6.191301   6.808874   4.804254   4.809597
    31  H    4.731857   5.469829   6.206862   4.346586   4.705496
    32  H    4.692321   4.682442   5.966944   4.919050   4.493129
    33  H    5.843756   5.339228   6.433222   5.205391   4.474073
                   26         27         28         29         30
    26  H    0.000000
    27  H    1.766431   0.000000
    28  H    2.498888   3.063003   0.000000
    29  H    3.066454   2.517457   1.759304   0.000000
    30  H    3.844284   3.731965   2.498604   2.415725   0.000000
    31  H    3.185027   2.541704   3.072657   2.500973   1.760113
    32  H    2.247869   2.986223   3.091567   3.732111   2.933305
    33  H    2.955837   3.917699   2.467935   3.623727   2.421004
                   31         32         33
    31  H    0.000000
    32  H    2.380881   0.000000
    33  H    2.939407   1.628437   0.000000
 Stoichiometry    C9H22N2
 Framework group  C1[X(C9H22N2)]
 Deg. of freedom    93
 Full point group                 C1      NOp   1
 Largest Abelian subgroup         C1      NOp   1
 Largest concise Abelian subgroup C1      NOp   1
                         Standard orientation:                         
 ---------------------------------------------------------------------
 Center     Atomic      Atomic             Coordinates (Angstroms)
 Number     Number       Type             X           Y           Z
 ---------------------------------------------------------------------
      1          7           0       -5.027522    0.971896    0.611208
      2          6           0       -4.406474    0.504674   -0.622082
      3          6           0       -2.883236    0.417111   -0.500044
      4          6           0       -2.423187   -0.626029    0.524169
      5          6           0       -0.900188   -0.684960    0.687653
      6          6           0       -0.173465   -1.171971   -0.568734
      7          6           0        1.315127   -1.451456   -0.336503
      8          6           0        2.121314   -0.197593    0.013317
      9          6           0        3.616158   -0.516027    0.122195
     10          6           0        4.462386    0.677196    0.573051
     11          7           0        4.466427    1.771963   -0.390247
     12          1           0       -6.030469    1.079387    0.465701
     13          1           0       -4.671360    1.897560    0.845717
     14          1           0       -4.663053    1.195209   -1.433064
     15          1           0       -4.817701   -0.476023   -0.884519
     16          1           0       -2.482958    0.164103   -1.488363
     17          1           0       -2.475322    1.400823   -0.235863
     18          1           0       -2.800636   -1.615484    0.238756
     19          1           0       -2.855813   -0.394255    1.504712
     20          1           0       -0.672766   -1.363794    1.518831
     21          1           0       -0.532949    0.306253    0.976871
     22          1           0       -0.277347   -0.436931   -1.374804
     23          1           0       -0.644114   -2.098494   -0.919856
     24          1           0        1.428953   -2.199178    0.457830
     25          1           0        1.725578   -1.897759   -1.250888
     26          1           0        1.953675    0.563471   -0.757057
     27          1           0        1.774010    0.217689    0.965857
     28          1           0        3.985716   -0.888462   -0.841565
     29          1           0        3.757559   -1.327919    0.846621
     30          1           0        5.495753    0.344986    0.720938
     31          1           0        4.106126    1.049697    1.539666
     32          1           0        3.525284    2.148468   -0.491077
     33          1           0        4.728891    1.417966   -1.309308
 ---------------------------------------------------------------------
 Rotational constants (GHZ):           2.3161234           0.2756810           0.2609679
 Standard basis: 6-31G(d,p) (6D, 7F)
 There are   275 symmetry adapted cartesian basis functions of A   symmetry.
 There are   275 symmetry adapted basis functions of A   symmetry.
   275 basis functions,   462 primitive gaussians,   275 cartesian basis functions
    45 alpha electrons       45 beta electrons
       nuclear repulsion energy       624.5688498120 Hartrees.
 NAtoms=   33 NActive=   33 NUniq=   33 SFac= 1.00D+00 NAtFMM=   60 NAOKFM=F Big=F
 Integral buffers will be    131072 words long.
 Raffenetti 2 integral format.
 Two-electron integral symmetry is turned on.
 Force inversion solution in PCM.
 ------------------------------------------------------------------------------
 Polarizable Continuum Model (PCM)
 =================================
 Model                : PCM.
 Atomic radii         : UFF (Universal Force Field).
 Polarization charges : Total charges.
 Charge compensation  : None.
 Solution method      : Matrix inversion.
 Cavity type          : Scaled VdW (van der Waals Surface) (Alpha=1.100).
 Cavity algorithm     : GePol (No added spheres)
                        Default sphere list used, NSphG=   33.
                        Lebedev-Laikov grids with approx.  5.0 points / Ang**2.
                        Smoothing algorithm: York/Karplus (Gamma=1.0000).
                        Polarization charges: spherical gaussians, with
                                              point-specific exponents (IZeta= 3).
                        Self-potential: point-specific (ISelfS= 7).
                        Self-field    : sphere-specific E.n sum rule (ISelfD= 2).
 1st derivatives      : Analytical E(r).r(x)/FMM algorithm (CHGder, D1EAlg=3).
                        Cavity 1st derivative terms included.
 2nd derivatives      : Analytical E(r).r(xy)/FMM algorithm (CHGder, D2EAlg=3).
                        Cavity 2nd derivative terms included.
 Solvent              : Water, Eps=  78.355300 Eps(inf)=   1.777849
 ------------------------------------------------------------------------------
 One-electron integrals computed using PRISM.
 NBasis=   275 RedAO= T EigKep=  2.60D-03  NBF=   275
 NBsUse=   275 1.00D-06 EigRej= -1.00D+00 NBFU=   275
 ExpMin= 1.61D-01 ExpMax= 4.17D+03 ExpMxC= 6.27D+02 IAcc=3 IRadAn=         5 AccDes= 0.00D+00
 Harris functional with IExCor=  402 and IRadAn=       5 diagonalized for initial guess.
 HarFok:  IExCor=  402 AccDes= 0.00D+00 IRadAn=         5 IDoV= 1 UseB2=F ITyADJ=14
 ICtDFT=  3500011 ScaDFX=  1.000000  1.000000  1.000000  1.000000
 FoFCou: FMM=F IPFlag=           0 FMFlag=      100000 FMFlg1=           0
         NFxFlg=           0 DoJE=T BraDBF=F KetDBF=T FulRan=T
         wScrn=  0.000000 ICntrl=       500 IOpCl=  0 I1Cent=   200000004 NGrid=           0
         NMat0=    1 NMatS0=      1 NMatT0=    0 NMatD0=    1 NMtDS0=    0 NMtDT0=    0
 Petite list used in FoFCou.
 Requested convergence on RMS density matrix=1.00D-08 within  32 cycles.
 Requested convergence on MAX density matrix=1.00D-06.
 Requested convergence on             energy=1.00D-06.
 No special actions if energy rises.
 Inv3:  Mode=1 IEnd=    14825187.
 Iteration    1 A*A^-1 deviation from unit magnitude is 3.00D-15 for    628.
 Iteration    1 A*A^-1 deviation from orthogonality  is 2.55D-15 for   1982   1845.
 Iteration    1 A^-1*A deviation from unit magnitude is 3.44D-15 for    628.
 Iteration    1 A^-1*A deviation from orthogonality  is 4.07D-14 for   1983   1967.
 Error on total polarization charges =  0.01088
 SCF Done:  E(RB3LYP) =  -465.745630233     A.U. after   10 cycles
            NFock= 10  Conv=0.92D-08     -V/T= 2.0097
 QCSCF skips out because SCF is already converged.
 DoSCS=F DFT=T ScalE2(SS,OS)=  1.000000  1.000000
 Range of M.O.s used for correlation:     1   275
 NBasis=   275 NAE=    45 NBE=    45 NFC=     0 NFV=     0
 NROrb=    275 NOA=    45 NOB=    45 NVA=   230 NVB=   230
 Symmetrizing basis deriv contribution to polar:
 IMax=3 JMax=2 DiffMx= 0.00D+00
 G2DrvN: will do    34 centers at a time, making    1 passes.
 Calling FoFCou, ICntrl=  3107 FMM=F I1Cent=   0 AccDes= 0.00D+00.
 NEqPCM:  Using equilibrium solvation (IEInf=0, Eps=  78.3553, EpsInf=   1.7778)
 G2PCM: DoFxE=T DoFxN=T DoGrad=T DoDP/DQ/DG/TGxP=FFFF NFrqRd=   0 IEInf=0 SqF1=F DoCFld=F IF1Alg=4.
 End of G2Drv F.D. properties file   721 does not exist.
 End of G2Drv F.D. properties file   722 does not exist.
 End of G2Drv F.D. properties file   788 does not exist.
          IDoAtm=111111111111111111111111111111111
 NEqPCM:  Using equilibrium solvation (IEInf=0, Eps=  78.3553, EpsInf=   1.7778)
          Differentiating once with respect to nuclear coordinates.
 Keep R1 ints in memory in canonical form, NReq=732469181.
          There are   102 degrees of freedom in the 1st order CPHF.  IDoFFX=6 NUNeed=     0.
     96 vectors produced by pass  0 Test12= 1.04D-14 1.00D-09 XBig12= 6.90D-02 7.39D-02.
 AX will form    96 AO Fock derivatives at one time.
     96 vectors produced by pass  1 Test12= 1.04D-14 1.00D-09 XBig12= 3.97D-03 1.23D-02.
     96 vectors produced by pass  2 Test12= 1.04D-14 1.00D-09 XBig12= 4.19D-05 9.67D-04.
     96 vectors produced by pass  3 Test12= 1.04D-14 1.00D-09 XBig12= 1.20D-07 3.86D-05.
     96 vectors produced by pass  4 Test12= 1.04D-14 1.00D-09 XBig12= 9.28D-11 8.81D-07.
     37 vectors produced by pass  5 Test12= 1.04D-14 1.00D-09 XBig12= 5.42D-14 2.53D-08.
 InvSVY:  IOpt=1 It=  1 EMax= 3.33D-16
 Solved reduced A of dimension   517 with   102 vectors.
 End of Minotr F.D. properties file   721 does not exist.
 End of Minotr F.D. properties file   722 does not exist.
 End of Minotr F.D. properties file   788 does not exist.

 **********************************************************************

            Population analysis using the SCF density.

 **********************************************************************

 Orbital symmetries:
       Occupied  (A) (A) (A) (A) (A) (A) (A) (A) (A) (A) (A) (A)
                 (A) (A) (A) (A) (A) (A) (A) (A) (A) (A) (A) (A)
                 (A) (A) (A) (A) (A) (A) (A) (A) (A) (A) (A) (A)
                 (A) (A) (A) (A) (A) (A) (A) (A) (A)
       Virtual   (A) (A) (A) (A) (A) (A) (A) (A) (A) (A) (A) (A)
                 (A) (A) (A) (A) (A) (A) (A) (A) (A) (A) (A) (A)
                 (A) (A) (A) (A) (A) (A) (A) (A) (A) (A) (A) (A)
                 (A) (A) (A) (A) (A) (A) (A) (A) (A) (A) (A) (A)
                 (A) (A) (A) (A) (A) (A) (A) (A) (A) (A) (A) (A)
                 (A) (A) (A) (A) (A) (A) (A) (A) (A) (A) (A) (A)
                 (A) (A) (A) (A) (A) (A) (A) (A) (A) (A) (A) (A)
                 (A) (A) (A) (A) (A) (A) (A) (A) (A) (A) (A) (A)
                 (A) (A) (A) (A) (A) (A) (A) (A) (A) (A) (A) (A)
                 (A) (A) (A) (A) (A) (A) (A) (A) (A) (A) (A) (A)
                 (A) (A) (A) (A) (A) (A) (A) (A) (A) (A) (A) (A)
                 (A) (A) (A) (A) (A) (A) (A) (A) (A) (A) (A) (A)
                 (A) (A) (A) (A) (A) (A) (A) (A) (A) (A) (A) (A)
                 (A) (A) (A) (A) (A) (A) (A) (A) (A) (A) (A) (A)
                 (A) (A) (A) (A) (A) (A) (A) (A) (A) (A) (A) (A)
                 (A) (A) (A) (A) (A) (A) (A) (A) (A) (A) (A) (A)
                 (A) (A) (A) (A) (A) (A) (A) (A) (A) (A) (A) (A)
                 (A) (A) (A) (A) (A) (A) (A) (A) (A) (A) (A) (A)
                 (A) (A) (A) (A) (A) (A) (A) (A) (A) (A) (A) (A)
                 (A) (A)
 The electronic state is 1-A.
 Alpha  occ. eigenvalues --  -14.30608 -14.30416 -10.19829 -10.19747 -10.17253
 Alpha  occ. eigenvalues --  -10.17159 -10.17117 -10.16973 -10.16973 -10.16952
 Alpha  occ. eigenvalues --  -10.16859  -0.87607  -0.87390  -0.80371  -0.77426
 Alpha  occ. eigenvalues --   -0.73536  -0.69480  -0.65319  -0.60951  -0.58333
 Alpha  occ. eigenvalues --   -0.57266  -0.55096  -0.48775  -0.48190  -0.46486
 Alpha  occ. eigenvalues --   -0.45588  -0.43815  -0.43102  -0.42627  -0.41199
 Alpha  occ. eigenvalues --   -0.40531  -0.39876  -0.37867  -0.36848  -0.35074
 Alpha  occ. eigenvalues --   -0.34819  -0.34313  -0.32681  -0.32334  -0.32050
 Alpha  occ. eigenvalues --   -0.30889  -0.30467  -0.29651  -0.22930  -0.22657
 Alpha virt. eigenvalues --    0.08617   0.08725   0.10175   0.11380   0.11571
 Alpha virt. eigenvalues --    0.12462   0.13146   0.13511   0.15172   0.15451
 Alpha virt. eigenvalues --    0.15930   0.17055   0.17711   0.18252   0.18307
 Alpha virt. eigenvalues --    0.18998   0.19332   0.20017   0.20546   0.21370
 Alpha virt. eigenvalues --    0.21947   0.22647   0.23775   0.25268   0.25660
 Alpha virt. eigenvalues --    0.26634   0.27036   0.27509   0.27728   0.29835
 Alpha virt. eigenvalues --    0.30090   0.32032   0.50079   0.50928   0.51400
 Alpha virt. eigenvalues --    0.53506   0.53536   0.54552   0.55411   0.56573
 Alpha virt. eigenvalues --    0.57628   0.58143   0.59765   0.62751   0.63903
 Alpha virt. eigenvalues --    0.65116   0.66231   0.66982   0.69013   0.70241
 Alpha virt. eigenvalues --    0.71513   0.71968   0.72591   0.73998   0.74555
 Alpha virt. eigenvalues --    0.76805   0.78473   0.78876   0.80773   0.81761
 Alpha virt. eigenvalues --    0.83077   0.84698   0.85736   0.86766   0.87365
 Alpha virt. eigenvalues --    0.87619   0.87778   0.88694   0.89661   0.90690
 Alpha virt. eigenvalues --    0.91005   0.91941   0.92596   0.92818   0.93576
 Alpha virt. eigenvalues --    0.94443   0.95477   0.95882   0.97005   0.97716
 Alpha virt. eigenvalues --    0.98513   0.99210   1.00756   1.02902   1.04825
 Alpha virt. eigenvalues --    1.06026   1.12964   1.15592   1.16425   1.24782
 Alpha virt. eigenvalues --    1.27186   1.29702   1.31731   1.35620   1.36067
 Alpha virt. eigenvalues --    1.38404   1.41274   1.46625   1.50391   1.52201
 Alpha virt. eigenvalues --    1.53472   1.54216   1.56331   1.61144   1.63824
 Alpha virt. eigenvalues --    1.64886   1.66085   1.68905   1.71497   1.72449
 Alpha virt. eigenvalues --    1.74394   1.76788   1.78750   1.79898   1.81270
 Alpha virt. eigenvalues --    1.84532   1.85460   1.86975   1.88167   1.89088
 Alpha virt. eigenvalues --    1.90084   1.90881   1.93146   1.94202   1.96637
 Alpha virt. eigenvalues --    1.97903   2.00590   2.02477   2.04580   2.07259
 Alpha virt. eigenvalues --    2.07823   2.08689   2.11321   2.12036   2.13706
 Alpha virt. eigenvalues --    2.13949   2.15060   2.16482   2.17975   2.18929
 Alpha virt. eigenvalues --    2.19757   2.23687   2.23744   2.24586   2.25750
 Alpha virt. eigenvalues --    2.26638   2.27389   2.28952   2.29403   2.30456
 Alpha virt. eigenvalues --    2.30857   2.32092   2.32336   2.36308   2.36474
 Alpha virt. eigenvalues --    2.37328   2.39862   2.41135   2.42011   2.46288
 Alpha virt. eigenvalues --    2.46991   2.47813   2.51536   2.53274   2.55302
 Alpha virt. eigenvalues --    2.58855   2.59325   2.60091   2.62276   2.63184
 Alpha virt. eigenvalues --    2.63382   2.67789   2.68711   2.71298   2.72421
 Alpha virt. eigenvalues --    2.74661   2.75646   2.76971   2.78482   2.79152
 Alpha virt. eigenvalues --    2.82228   2.84765   2.85152   2.86303   2.87725
 Alpha virt. eigenvalues --    2.88881   2.90247   2.90790   2.91962   2.92391
 Alpha virt. eigenvalues --    2.92605   2.93217   2.95509   2.97044   2.97699
 Alpha virt. eigenvalues --    2.98994   3.00573   3.22604   3.24098   3.26753
 Alpha virt. eigenvalues --    3.28949   3.30134   3.30986   3.31379   3.32024
 Alpha virt. eigenvalues --    3.34461   3.35427   3.37321   3.40520   3.42149
 Alpha virt. eigenvalues --    3.44577   3.47259   3.48769   3.52757   3.55971
 Alpha virt. eigenvalues --    3.57434   3.59297   3.59965   3.60141   3.97801
 Alpha virt. eigenvalues --    4.00696   4.26963   4.34411   4.44383   4.51552
 Alpha virt. eigenvalues --    4.56326   4.59787   4.66468   4.71842   4.78794
          Condensed to atoms (all electrons):
               1          2          3          4          5          6
     1  N    6.806644   0.297976  -0.055864  -0.004379   0.000118  -0.000005
     2  C    0.297976   4.795702   0.372426  -0.039659   0.003963   0.000110
     3  C   -0.055864   0.372426   4.936173   0.375036  -0.041544  -0.005042
     4  C   -0.004379  -0.039659   0.375036   4.912809   0.368937  -0.040863
     5  C    0.000118   0.003963  -0.041544   0.368937   4.914618   0.379874
     6  C   -0.000005   0.000110  -0.005042  -0.040863   0.379874   4.922136
     7  C    0.000000  -0.000002   0.000223   0.003944  -0.040150   0.364796
     8  C   -0.000000   0.000000  -0.000032   0.000217  -0.005659  -0.042808
     9  C    0.000000   0.000000   0.000000  -0.000003   0.000182   0.003973
    10  C   -0.000000  -0.000000  -0.000000  -0.000000   0.000001  -0.000146
    11  N   -0.000000   0.000000   0.000000   0.000000   0.000000   0.000004
    12  H    0.339177  -0.033282   0.005875   0.000166   0.000002   0.000000
    13  H    0.340489  -0.039037  -0.005388  -0.000440  -0.000045   0.000001
    14  H   -0.054713   0.385353  -0.044310   0.005807  -0.000130  -0.000007
    15  H   -0.043992   0.384870  -0.031136  -0.008909   0.000036  -0.000011
    16  H    0.003984  -0.031939   0.377325  -0.037847  -0.004993   0.003059
    17  H   -0.005615  -0.036893   0.381749  -0.043393  -0.003586  -0.000906
    18  H   -0.000190  -0.003353  -0.041920   0.380105  -0.037953  -0.008306
    19  H    0.013423  -0.007199  -0.040736   0.376804  -0.033803   0.004731
    20  H    0.000002  -0.000163   0.004866  -0.034135   0.378257  -0.043955
    21  H    0.000003   0.000087  -0.008239  -0.037526   0.382363  -0.039703
    22  H   -0.000001  -0.000089   0.002234  -0.004112  -0.039360   0.382225
    23  H    0.000000  -0.000037  -0.001174  -0.004433  -0.043092   0.375990
    24  H   -0.000000   0.000000   0.000004   0.000007  -0.008012  -0.037807
    25  H   -0.000000  -0.000000   0.000003  -0.000162   0.004946  -0.033899
    26  H   -0.000000   0.000000  -0.000001  -0.000029  -0.001132  -0.002649
    27  H    0.000000  -0.000000   0.000007  -0.000070   0.003121  -0.004511
    28  H   -0.000000   0.000000   0.000000   0.000000   0.000003  -0.000017
    29  H   -0.000000   0.000000  -0.000000  -0.000000  -0.000025   0.000197
    30  H    0.000000   0.000000   0.000000   0.000000   0.000000   0.000002
    31  H   -0.000000   0.000000   0.000000   0.000000  -0.000003   0.000001
    32  H    0.000000   0.000000   0.000000  -0.000000   0.000001   0.000008
    33  H    0.000000   0.000000   0.000000   0.000000  -0.000000   0.000000
               7          8          9         10         11         12
     1  N    0.000000  -0.000000   0.000000  -0.000000  -0.000000   0.339177
     2  C   -0.000002   0.000000   0.000000  -0.000000   0.000000  -0.033282
     3  C    0.000223  -0.000032   0.000000  -0.000000   0.000000   0.005875
     4  C    0.003944   0.000217  -0.000003  -0.000000   0.000000   0.000166
     5  C   -0.040150  -0.005659   0.000182   0.000001   0.000000   0.000002
     6  C    0.364796  -0.042808   0.003973  -0.000146   0.000004   0.000000
     7  C    4.911716   0.378000  -0.036452   0.003737   0.000365  -0.000000
     8  C    0.378000   4.918859   0.373477  -0.039761  -0.007254   0.000000
     9  C   -0.036452   0.373477   5.005356   0.364145  -0.074205  -0.000000
    10  C    0.003737  -0.039761   0.364145   4.801456   0.329284   0.000000
    11  N    0.000365  -0.007254  -0.074205   0.329284   6.760309  -0.000000
    12  H   -0.000000   0.000000  -0.000000   0.000000  -0.000000   0.479082
    13  H   -0.000000   0.000000  -0.000000   0.000000  -0.000000  -0.032225
    14  H   -0.000000  -0.000000  -0.000000   0.000000   0.000000  -0.004553
    15  H   -0.000000  -0.000000   0.000000  -0.000000  -0.000000  -0.003268
    16  H   -0.000092   0.000008  -0.000000   0.000000   0.000000  -0.000252
    17  H   -0.000029  -0.000001   0.000000   0.000000  -0.000000   0.000014
    18  H    0.000007   0.000005   0.000000  -0.000000  -0.000000  -0.000027
    19  H   -0.000160   0.000004  -0.000000   0.000000  -0.000000  -0.000277
    20  H   -0.004218  -0.001272  -0.000037   0.000000  -0.000000  -0.000000
    21  H   -0.004234   0.002728  -0.000073   0.000005   0.000000  -0.000000
    22  H   -0.037070  -0.008051   0.000050   0.000000  -0.000004  -0.000000
    23  H   -0.032807   0.004999  -0.000153   0.000002  -0.000000  -0.000000
    24  H    0.381328  -0.039783  -0.004360  -0.000023  -0.000005   0.000000
    25  H    0.376928  -0.040841  -0.004972   0.000163  -0.000009   0.000000
    26  H   -0.038723   0.373855  -0.040899  -0.005137   0.007492   0.000000
    27  H   -0.038239   0.384983  -0.041620  -0.002694  -0.000512  -0.000000
    28  H   -0.003968  -0.041544   0.379184  -0.036295  -0.004833   0.000000
    29  H   -0.004141  -0.038840   0.352782  -0.029893   0.006159   0.000000
    30  H   -0.000133   0.004812  -0.043655   0.382290  -0.040753  -0.000000
    31  H    0.000081  -0.007719  -0.045269   0.387791  -0.038145   0.000000
    32  H   -0.000135   0.004182  -0.003816  -0.044899   0.350512  -0.000000
    33  H   -0.000004  -0.001059  -0.003191  -0.045693   0.347140  -0.000000
              13         14         15         16         17         18
     1  N    0.340489  -0.054713  -0.043992   0.003984  -0.005615  -0.000190
     2  C   -0.039037   0.385353   0.384870  -0.031939  -0.036893  -0.003353
     3  C   -0.005388  -0.044310  -0.031136   0.377325   0.381749  -0.041920
     4  C   -0.000440   0.005807  -0.008909  -0.037847  -0.043393   0.380105
     5  C   -0.000045  -0.000130   0.000036  -0.004993  -0.003586  -0.037953
     6  C    0.000001  -0.000007  -0.000011   0.003059  -0.000906  -0.008306
     7  C   -0.000000  -0.000000  -0.000000  -0.000092  -0.000029   0.000007
     8  C    0.000000  -0.000000  -0.000000   0.000008  -0.000001   0.000005
     9  C   -0.000000  -0.000000   0.000000  -0.000000   0.000000   0.000000
    10  C    0.000000   0.000000  -0.000000   0.000000   0.000000  -0.000000
    11  N   -0.000000   0.000000  -0.000000   0.000000  -0.000000  -0.000000
    12  H   -0.032225  -0.004553  -0.003268  -0.000252   0.000014  -0.000027
    13  H    0.482180  -0.004941   0.006714  -0.000117   0.005894   0.000065
    14  H   -0.004941   0.695254  -0.048764  -0.000976  -0.005290  -0.000003
    15  H    0.006714  -0.048764   0.638774  -0.003089   0.005946   0.005224
    16  H   -0.000117  -0.000976  -0.003089   0.632102  -0.037130  -0.005702
    17  H    0.005894  -0.005290   0.005946  -0.037130   0.641102   0.006098
    18  H    0.000065  -0.000003   0.005224  -0.005702   0.006098   0.649514
    19  H   -0.000251   0.000380  -0.000705   0.006059  -0.005359  -0.037526
    20  H    0.000000   0.000003   0.000000  -0.000013   0.000046  -0.003150
    21  H   -0.000002   0.000003   0.000009  -0.000113   0.005823   0.006080
    22  H    0.000000   0.000005   0.000012   0.001552   0.000601  -0.000143
    23  H   -0.000000   0.000001   0.000001   0.000796   0.000103   0.006438
    24  H   -0.000000   0.000000   0.000000  -0.000001   0.000001   0.000005
    25  H    0.000000   0.000000   0.000000   0.000009  -0.000000  -0.000011
    26  H    0.000000  -0.000000   0.000000  -0.000007   0.000008   0.000001
    27  H   -0.000000   0.000000  -0.000000   0.000002  -0.000006  -0.000002
    28  H    0.000000  -0.000000  -0.000000   0.000000  -0.000000  -0.000000
    29  H   -0.000000  -0.000000  -0.000000  -0.000000   0.000000   0.000000
    30  H   -0.000000  -0.000000   0.000000  -0.000000  -0.000000  -0.000000
    31  H   -0.000000  -0.000000  -0.000000  -0.000000  -0.000000  -0.000000
    32  H   -0.000000  -0.000000  -0.000000   0.000000  -0.000000  -0.000000
    33  H   -0.000000  -0.000000  -0.000000  -0.000000  -0.000000  -0.000000
              19         20         21         22         23         24
     1  N    0.013423   0.000002   0.000003  -0.000001   0.000000  -0.000000
     2  C   -0.007199  -0.000163   0.000087  -0.000089  -0.000037   0.000000
     3  C   -0.040736   0.004866  -0.008239   0.002234  -0.001174   0.000004
     4  C    0.376804  -0.034135  -0.037526  -0.004112  -0.004433   0.000007
     5  C   -0.033803   0.378257   0.382363  -0.039360  -0.043092  -0.008012
     6  C    0.004731  -0.043955  -0.039703   0.382225   0.375990  -0.037807
     7  C   -0.000160  -0.004218  -0.004234  -0.037070  -0.032807   0.381328
     8  C    0.000004  -0.001272   0.002728  -0.008051   0.004999  -0.039783
     9  C   -0.000000  -0.000037  -0.000073   0.000050  -0.000153  -0.004360
    10  C    0.000000   0.000000   0.000005   0.000000   0.000002  -0.000023
    11  N   -0.000000  -0.000000   0.000000  -0.000004  -0.000000  -0.000005
    12  H   -0.000277  -0.000000  -0.000000  -0.000000  -0.000000   0.000000
    13  H   -0.000251   0.000000  -0.000002   0.000000  -0.000000  -0.000000
    14  H    0.000380   0.000003   0.000003   0.000005   0.000001   0.000000
    15  H   -0.000705   0.000000   0.000009   0.000012   0.000001   0.000000
    16  H    0.006059  -0.000013  -0.000113   0.001552   0.000796  -0.000001
    17  H   -0.005359   0.000046   0.005823   0.000601   0.000103   0.000001
    18  H   -0.037526  -0.003150   0.006080  -0.000143   0.006438   0.000005
    19  H    0.641318  -0.004381  -0.003018  -0.000078   0.000117  -0.000011
    20  H   -0.004381   0.653811  -0.038927   0.006166  -0.004333   0.006353
    21  H   -0.003018  -0.038927   0.640449  -0.006744   0.006173  -0.000140
    22  H   -0.000078   0.006166  -0.006744   0.639815  -0.038943   0.006035
    23  H    0.000117  -0.004333   0.006173  -0.038943   0.654121  -0.003206
    24  H   -0.000011   0.006353  -0.000140   0.006035  -0.003206   0.644738
    25  H    0.000003   0.000107  -0.000082  -0.003252  -0.004643  -0.038947
    26  H   -0.000001   0.000115   0.000633   0.005894   0.000053   0.006021
    27  H    0.000008   0.000794   0.001372  -0.000146  -0.000042  -0.006281
    28  H    0.000000   0.000001  -0.000002   0.000004  -0.000006  -0.000457
    29  H   -0.000000   0.000000   0.000012   0.000007   0.000002   0.005113
    30  H   -0.000000  -0.000000  -0.000000  -0.000000  -0.000000  -0.000005
    31  H   -0.000000   0.000000  -0.000004   0.000000   0.000000   0.000004
    32  H   -0.000000  -0.000000   0.000001  -0.000003  -0.000000   0.000002
    33  H   -0.000000   0.000000  -0.000000   0.000000  -0.000000   0.000001
              25         26         27         28         29         30
     1  N   -0.000000  -0.000000   0.000000  -0.000000  -0.000000   0.000000
     2  C   -0.000000   0.000000  -0.000000   0.000000   0.000000   0.000000
     3  C    0.000003  -0.000001   0.000007   0.000000  -0.000000   0.000000
     4  C   -0.000162  -0.000029  -0.000070   0.000000  -0.000000   0.000000
     5  C    0.004946  -0.001132   0.003121   0.000003  -0.000025   0.000000
     6  C   -0.033899  -0.002649  -0.004511  -0.000017   0.000197   0.000002
     7  C    0.376928  -0.038723  -0.038239  -0.003968  -0.004141  -0.000133
     8  C   -0.040841   0.373855   0.384983  -0.041544  -0.038840   0.004812
     9  C   -0.004972  -0.040899  -0.041620   0.379184   0.352782  -0.043655
    10  C    0.000163  -0.005137  -0.002694  -0.036295  -0.029893   0.382290
    11  N   -0.000009   0.007492  -0.000512  -0.004833   0.006159  -0.040753
    12  H    0.000000   0.000000  -0.000000   0.000000   0.000000  -0.000000
    13  H    0.000000   0.000000  -0.000000   0.000000  -0.000000  -0.000000
    14  H    0.000000  -0.000000   0.000000  -0.000000  -0.000000  -0.000000
    15  H    0.000000   0.000000  -0.000000  -0.000000  -0.000000   0.000000
    16  H    0.000009  -0.000007   0.000002   0.000000  -0.000000  -0.000000
    17  H   -0.000000   0.000008  -0.000006  -0.000000   0.000000  -0.000000
    18  H   -0.000011   0.000001  -0.000002  -0.000000   0.000000  -0.000000
    19  H    0.000003  -0.000001   0.000008   0.000000  -0.000000  -0.000000
    20  H    0.000107   0.000115   0.000794   0.000001   0.000000  -0.000000
    21  H   -0.000082   0.000633   0.001372  -0.000002   0.000012  -0.000000
    22  H   -0.003252   0.005894  -0.000146   0.000004   0.000007  -0.000000
    23  H   -0.004643   0.000053  -0.000042  -0.000006   0.000002  -0.000000
    24  H   -0.038947   0.006021  -0.006281  -0.000457   0.005113  -0.000005
    25  H    0.653824  -0.005390   0.006083   0.005412  -0.000584   0.000003
    26  H   -0.005390   0.647630  -0.040792  -0.005946   0.006797   0.000069
    27  H    0.006083  -0.040792   0.634946   0.006019  -0.005141   0.000040
    28  H    0.005412  -0.005946   0.006019   0.640324  -0.035942  -0.003645
    29  H   -0.000584   0.006797  -0.005141  -0.035942   0.660910  -0.001165
    30  H    0.000003   0.000069   0.000040  -0.003645  -0.001165   0.640522
    31  H    0.000009   0.000067   0.005708   0.005772  -0.001178  -0.036628
    32  H    0.000010   0.004276   0.000324  -0.000173   0.000013   0.006580
    33  H   -0.000003   0.000998   0.000091   0.005938   0.000069  -0.004492
              31         32         33
     1  N   -0.000000   0.000000   0.000000
     2  C    0.000000   0.000000   0.000000
     3  C    0.000000   0.000000   0.000000
     4  C    0.000000  -0.000000   0.000000
     5  C   -0.000003   0.000001  -0.000000
     6  C    0.000001   0.000008   0.000000
     7  C    0.000081  -0.000135  -0.000004
     8  C   -0.007719   0.004182  -0.001059
     9  C   -0.045269  -0.003816  -0.003191
    10  C    0.387791  -0.044899  -0.045693
    11  N   -0.038145   0.350512   0.347140
    12  H    0.000000  -0.000000  -0.000000
    13  H   -0.000000  -0.000000  -0.000000
    14  H   -0.000000  -0.000000  -0.000000
    15  H   -0.000000  -0.000000  -0.000000
    16  H   -0.000000   0.000000  -0.000000
    17  H   -0.000000  -0.000000  -0.000000
    18  H   -0.000000  -0.000000  -0.000000
    19  H   -0.000000  -0.000000  -0.000000
    20  H    0.000000  -0.000000   0.000000
    21  H   -0.000004   0.000001  -0.000000
    22  H    0.000000  -0.000003   0.000000
    23  H    0.000000  -0.000000  -0.000000
    24  H    0.000004   0.000002   0.000001
    25  H    0.000009   0.000010  -0.000003
    26  H    0.000067   0.004276   0.000998
    27  H    0.005708   0.000324   0.000091
    28  H    0.005772  -0.000173   0.005938
    29  H   -0.001178   0.000013   0.000069
    30  H   -0.036628   0.006580  -0.004492
    31  H    0.627447  -0.006266   0.006600
    32  H   -0.006266   0.473269  -0.034937
    33  H    0.006600  -0.034937   0.480513
 Mulliken charges:
               1
     1  N   -0.637057
     2  C   -0.048836
     3  C   -0.180536
     4  C   -0.167872
     5  C   -0.176934
     6  C   -0.176471
     7  C   -0.180569
     8  C   -0.171506
     9  C   -0.180445
    10  C   -0.064334
    11  N   -0.635546
    12  H    0.249567
    13  H    0.247101
    14  H    0.076881
    15  H    0.098287
    16  H    0.097375
    17  H    0.090825
    18  H    0.084746
    19  H    0.090659
    20  H    0.084064
    21  H    0.093065
    22  H    0.093393
    23  H    0.084072
    24  H    0.089425
    25  H    0.085294
    26  H    0.086796
    27  H    0.096559
    28  H    0.090173
    29  H    0.084849
    30  H    0.096158
    31  H    0.101733
    32  H    0.251051
    33  H    0.248030
 Sum of Mulliken charges =  -0.00000
 Mulliken charges with hydrogens summed into heavy atoms:
               1
     1  N   -0.140389
     2  C    0.126332
     3  C    0.007665
     4  C    0.007533
     5  C    0.000195
     6  C    0.000995
     7  C   -0.005850
     8  C    0.011849
     9  C   -0.005423
    10  C    0.133558
    11  N   -0.136465
 APT charges:
               1
     1  N   -1.691767
     2  C   -0.813954
     3  C   -0.362819
     4  C   -0.869035
     5  C   -0.552203
     6  C   -0.667972
     7  C   -0.848433
     8  C   -0.368435
     9  C   -0.787990
    10  C   -1.122343
    11  N   -0.357998
    12  H    1.226354
    13  H    0.315677
    14  H    0.505674
    15  H    0.476115
    16  H    0.203982
    17  H    0.169710
    18  H    0.423218
    19  H    0.404203
    20  H    0.377335
    21  H    0.191176
    22  H    0.239715
    23  H    0.430347
    24  H    0.385788
    25  H    0.436613
    26  H    0.199216
    27  H    0.190514
    28  H    0.432731
    29  H    0.393464
    30  H    0.817504
    31  H    0.209110
    32  H   -0.146575
    33  H    0.561082
 Sum of APT charges =  -0.00000
 APT charges with hydrogens summed into heavy atoms:
               1
     1  N   -0.149737
     2  C    0.167835
     3  C    0.010873
     4  C   -0.041615
     5  C    0.016307
     6  C    0.002089
     7  C   -0.026032
     8  C    0.021295
     9  C    0.038205
    10  C   -0.095729
    11  N    0.056508
 Electronic spatial extent (au):  <R**2>=           4288.6997
 Charge=             -0.0000 electrons
 Dipole moment (field-independent basis, Debye):
    X=             -1.5300    Y=              0.0720    Z=             -1.6789  Tot=              2.2726
 Quadrupole moment (field-independent basis, Debye-Ang):
   XX=            -77.6979   YY=            -73.7846   ZZ=            -72.3993
   XY=            -13.8685   XZ=              2.2715   YZ=             -0.1705
 Traceless Quadrupole moment (field-independent basis, Debye-Ang):
   XX=             -3.0706   YY=              0.8427   ZZ=              2.2279
   XY=            -13.8685   XZ=              2.2715   YZ=             -0.1705
 Octapole moment (field-independent basis, Debye-Ang**2):
  XXX=           -112.1653  YYY=              2.1289  ZZZ=             -4.6293  XYY=            -42.0951
  XXY=            -13.9094  XXZ=            -35.9813  XZZ=             16.9842  YZZ=              4.5285
  YYZ=              1.6750  XYZ=             -7.4689
 Hexadecapole moment (field-independent basis, Debye-Ang**3):
 XXXX=          -4804.2466 YYYY=           -555.7264 ZZZZ=           -264.8289 XXXY=           -452.4279
 XXXZ=             32.9806 YYYX=            -95.3984 YYYZ=              3.7218 ZZZX=            -12.6738
 ZZZY=             -3.7021 XXYY=           -977.3449 XXZZ=           -862.4178 YYZZ=           -127.6485
 XXYZ=              6.1168 YYXZ=            -17.8062 ZZXY=              9.8131
 N-N= 6.245688498120D+02 E-N=-2.327581778082D+03  KE= 4.612924956932D+02
  Exact polarizability:   0.000   0.000   0.000   0.000   0.000   0.000
 Approx polarizability: 149.882  -1.412 147.308  -1.150   0.791 147.350
 D2PCM: PCM CHGder 2nd derivatives, FixD1E=F FixD2E=F DoIter=F DoCFld=F I1PDM=0
 Calling FoFJK, ICntrl=    100147 FMM=F ISym2X=0 I1Cent= 0 IOpClX= 0 NMat=1 NMatS=1 NMatT=0.
 ***** Axes restored to original set *****
 -------------------------------------------------------------------
 Center     Atomic                   Forces (Hartrees/Bohr)
 Number     Number              X              Y              Z
 -------------------------------------------------------------------
      1        7           0.006272033    0.001039017   -0.013668248
      2        6          -0.001472538    0.008095219    0.007834854
      3        6           0.004706367   -0.006581701   -0.002175308
      4        6          -0.002478394    0.006785108   -0.002565196
      5        6           0.003669467   -0.004324927    0.001462434
      6        6          -0.002745668   -0.001193673   -0.004519059
      7        6           0.003035795    0.001615878    0.006139260
      8        6          -0.004869379   -0.007210974   -0.003720826
      9        6           0.002698802    0.002859344   -0.008054901
     10        6          -0.001489012   -0.008466160    0.004670974
     11        7          -0.003283916    0.012221548    0.005197260
     12        1          -0.001618013    0.001286172   -0.000418994
     13        1           0.000789148   -0.001115797    0.001781524
     14        1          -0.003782191   -0.005091147    0.007848649
     15        1           0.000625658   -0.000828171   -0.000997641
     16        1          -0.000409184    0.000870467    0.000796239
     17        1           0.000021272    0.001402229    0.000477887
     18        1           0.000567807   -0.001320376    0.000241408
     19        1           0.002715143   -0.000748439    0.002044492
     20        1          -0.001923409    0.000291959   -0.001145051
     21        1          -0.000358412    0.000901228   -0.000715162
     22        1           0.000146079   -0.000449599    0.001126356
     23        1           0.002168607   -0.000562383    0.000909510
     24        1          -0.000347350   -0.000369752   -0.001051325
     25        1          -0.002036096   -0.000471203   -0.000653238
     26        1           0.000626346    0.001058484    0.000840659
     27        1           0.000514587    0.001423493    0.000186015
     28        1          -0.001324480   -0.000031309    0.000543102
     29        1           0.000774047   -0.002438697   -0.001034930
     30        1          -0.001380181    0.001135177   -0.000758997
     31        1           0.000626729    0.001147703    0.000125416
     32        1          -0.001470910   -0.001082964    0.000042175
     33        1           0.001031245    0.000154247   -0.000789337
 -------------------------------------------------------------------
 Cartesian Forces:  Max     0.013668248 RMS     0.003521139
 FormGI is forming the generalized inverse of G from B-inverse, IUseBI=4.

 GradGradGradGradGradGradGradGradGradGradGradGradGradGradGradGradGradGrad
 Berny optimization.
 Internal  Forces:  Max     0.015038375 RMS     0.002645319
 Search for a local minimum.
 Step number   1 out of a maximum of  186
 All quantities printed in internal units (Hartrees-Bohrs-Radians)
 Mixed Optimization -- RFO/linear search
 Second derivative matrix not updated -- analytic derivatives used.
 ITU=  0
     Eigenvalues ---    0.00150   0.00164   0.00196   0.00224   0.00252
     Eigenvalues ---    0.00282   0.00325   0.00358   0.00380   0.00388
     Eigenvalues ---    0.03169   0.03186   0.03332   0.03420   0.03546
     Eigenvalues ---    0.03691   0.03883   0.03926   0.03929   0.03963
     Eigenvalues ---    0.04011   0.04046   0.04079   0.04130   0.04214
     Eigenvalues ---    0.04326   0.04626   0.04639   0.05095   0.05240
     Eigenvalues ---    0.06735   0.06817   0.06914   0.07180   0.07230
     Eigenvalues ---    0.07329   0.07465   0.08341   0.08398   0.09422
     Eigenvalues ---    0.09772   0.10376   0.11370   0.12029   0.12138
     Eigenvalues ---    0.12525   0.13082   0.13500   0.14638   0.14949
     Eigenvalues ---    0.16980   0.17470   0.18482   0.18807   0.20307
     Eigenvalues ---    0.21450   0.22406   0.22753   0.23057   0.23982
     Eigenvalues ---    0.24676   0.27508   0.27591   0.28054   0.29016
     Eigenvalues ---    0.29976   0.31017   0.31923   0.32278   0.32467
     Eigenvalues ---    0.32739   0.32759   0.32805   0.32896   0.33014
     Eigenvalues ---    0.33081   0.33141   0.33165   0.33296   0.33317
     Eigenvalues ---    0.33477   0.33569   0.33706   0.33949   0.34105
     Eigenvalues ---    0.34174   0.34499   0.37870   0.38151   0.43969
     Eigenvalues ---    0.44099   0.44254   0.44456
 RFO step:  Lambda=-5.50824632D-03 EMin= 1.50378315D-03
 Linear search not attempted -- first point.
 Iteration  1 RMS(Cart)=  0.03967710 RMS(Int)=  0.00034881
 Iteration  2 RMS(Cart)=  0.00073839 RMS(Int)=  0.00013729
 Iteration  3 RMS(Cart)=  0.00000045 RMS(Int)=  0.00013728
 Variable       Old X    -DE/DX   Delta X   Delta X   Delta X     New X
                                 (Linear)    (Quad)   (Total)
    R1        2.75473   0.01099   0.00000   0.02560   0.02560   2.78033
    R2        1.92588  -0.00172   0.00000  -0.00167  -0.00167   1.92421
    R3        1.92595  -0.00110   0.00000   0.00041   0.00041   1.92635
    R4        2.89246   0.00112   0.00000   0.00362   0.00362   2.89608
    R5        2.07041   0.00557   0.00000   0.01406   0.01406   2.08447
    R6        2.06987   0.00107   0.00000   0.00461   0.00461   2.07448
    R7        2.89615   0.00213   0.00000   0.00409   0.00409   2.90024
    R8        2.07096   0.00029   0.00000   0.00171   0.00171   2.07267
    R9        2.07343   0.00136   0.00000   0.00608   0.00608   2.07951
   R10        2.89673   0.00569   0.00000   0.00842   0.00842   2.90515
   R11        2.07264   0.00141   0.00000   0.00586   0.00586   2.07849
   R12        2.07212  -0.00033   0.00000  -0.00189  -0.00189   2.07022
   R13        2.89308   0.00433   0.00000   0.01048   0.01048   2.90356
   R14        2.07302   0.00123   0.00000   0.00382   0.00382   2.07684
   R15        2.07097   0.00091   0.00000   0.00432   0.00432   2.07528
   R16        2.89563   0.00589   0.00000   0.00984   0.00984   2.90547
   R17        2.07080   0.00092   0.00000   0.00430   0.00430   2.07511
   R18        2.07289   0.00131   0.00000   0.00378   0.00378   2.07667
   R19        2.89349   0.00406   0.00000   0.00766   0.00766   2.90115
   R20        2.07269   0.00112   0.00000   0.00495   0.00495   2.07763
   R21        2.07333   0.00099   0.00000   0.00271   0.00271   2.07604
   R22        2.89555   0.00322   0.00000   0.00313   0.00313   2.89868
   R23        2.07078   0.00120   0.00000   0.00581   0.00581   2.07659
   R24        2.07045   0.00106   0.00000   0.00479   0.00479   2.07524
   R25        2.89267   0.00709   0.00000   0.01349   0.01349   2.90616
   R26        2.07364   0.00099   0.00000   0.00487   0.00487   2.07851
   R27        2.07350   0.00191   0.00000   0.00388   0.00388   2.07738
   R28        2.75568   0.00920   0.00000   0.02247   0.02247   2.77815
   R29        2.07016   0.00138   0.00000   0.00297   0.00297   2.07313
   R30        2.07011   0.00093   0.00000   0.00443   0.00443   2.07454
   R31        1.92499  -0.00156   0.00000  -0.00086  -0.00086   1.92414
   R32        1.92611  -0.00103   0.00000   0.00034   0.00034   1.92645
    A1        1.90952   0.00109   0.00000  -0.00539  -0.00554   1.90398
    A2        1.91441  -0.00210   0.00000  -0.01968  -0.01984   1.89458
    A3        1.85560  -0.00060   0.00000  -0.01834  -0.01868   1.83692
    A4        1.95504  -0.00222   0.00000  -0.00654  -0.00693   1.94811
    A5        1.90123   0.00740   0.00000   0.06602   0.06611   1.96734
    A6        1.90681  -0.00163   0.00000  -0.02384  -0.02396   1.88285
    A7        1.90512  -0.00276   0.00000  -0.01001  -0.01052   1.89460
    A8        1.91932   0.00053   0.00000  -0.01038  -0.01082   1.90850
    A9        1.87448  -0.00120   0.00000  -0.01482  -0.01471   1.85977
   A10        1.97246   0.00375   0.00000   0.01894   0.01884   1.99130
   A11        1.88051  -0.00084   0.00000   0.00228   0.00202   1.88253
   A12        1.91547  -0.00188   0.00000  -0.01487  -0.01483   1.90064
   A13        1.91337  -0.00051   0.00000   0.00853   0.00836   1.92172
   A14        1.91530  -0.00095   0.00000  -0.00537  -0.00525   1.91004
   A15        1.86328   0.00026   0.00000  -0.01098  -0.01099   1.85229
   A16        1.97761   0.00472   0.00000   0.01932   0.01930   1.99691
   A17        1.91434  -0.00145   0.00000  -0.01133  -0.01141   1.90293
   A18        1.91273  -0.00332   0.00000  -0.01891  -0.01929   1.89344
   A19        1.91239  -0.00174   0.00000  -0.00495  -0.00483   1.90757
   A20        1.88048   0.00116   0.00000   0.02275   0.02285   1.90333
   A21        1.86253   0.00042   0.00000  -0.00800  -0.00821   1.85432
   A22        1.97831   0.00523   0.00000   0.01946   0.01941   1.99772
   A23        1.88660  -0.00014   0.00000   0.00954   0.00955   1.89615
   A24        1.90320  -0.00192   0.00000  -0.00328  -0.00325   1.89995
   A25        1.90344  -0.00247   0.00000  -0.00929  -0.00948   1.89396
   A26        1.92328  -0.00122   0.00000  -0.00517  -0.00522   1.91806
   A27        1.86530   0.00028   0.00000  -0.01289  -0.01295   1.85236
   A28        1.97664   0.00494   0.00000   0.01994   0.01989   1.99652
   A29        1.92334  -0.00100   0.00000  -0.00394  -0.00400   1.91934
   A30        1.90468  -0.00256   0.00000  -0.01006  -0.01024   1.89444
   A31        1.90278  -0.00194   0.00000  -0.00382  -0.00381   1.89898
   A32        1.88733   0.00009   0.00000   0.00865   0.00867   1.89600
   A33        1.86548   0.00024   0.00000  -0.01238  -0.01244   1.85304
   A34        1.97878   0.00579   0.00000   0.02188   0.02183   2.00062
   A35        1.91232  -0.00192   0.00000  -0.00495  -0.00487   1.90745
   A36        1.88738  -0.00028   0.00000   0.00889   0.00887   1.89625
   A37        1.91575  -0.00181   0.00000  -0.00927  -0.00930   1.90645
   A38        1.90344  -0.00258   0.00000  -0.00835  -0.00858   1.89486
   A39        1.86234   0.00052   0.00000  -0.00985  -0.00992   1.85242
   A40        1.93876   0.00690   0.00000   0.03345   0.03332   1.97208
   A41        1.90453  -0.00225   0.00000  -0.00606  -0.00605   1.89848
   A42        1.91996  -0.00154   0.00000  -0.00059  -0.00076   1.91920
   A43        1.92148  -0.00184   0.00000  -0.00862  -0.00867   1.91280
   A44        1.90312  -0.00205   0.00000  -0.00278  -0.00301   1.90012
   A45        1.87492   0.00055   0.00000  -0.01713  -0.01722   1.85770
   A46        1.98041   0.00423   0.00000   0.01296   0.01290   1.99331
   A47        1.91419  -0.00052   0.00000  -0.00314  -0.00309   1.91110
   A48        1.90330  -0.00223   0.00000   0.00249   0.00236   1.90566
   A49        1.91460  -0.00268   0.00000  -0.01403  -0.01400   1.90061
   A50        1.88713   0.00061   0.00000   0.00664   0.00654   1.89367
   A51        1.86014   0.00037   0.00000  -0.00580  -0.00578   1.85436
   A52        1.97379   0.01504   0.00000   0.05639   0.05631   2.03010
   A53        1.90165  -0.00277   0.00000  -0.00080  -0.00107   1.90058
   A54        1.92322  -0.00425   0.00000  -0.01444  -0.01413   1.90909
   A55        1.89044  -0.00480   0.00000  -0.01145  -0.01205   1.87839
   A56        1.90552  -0.00558   0.00000  -0.02650  -0.02644   1.87908
   A57        1.86583   0.00169   0.00000  -0.00636  -0.00665   1.85918
   A58        1.91804   0.00029   0.00000  -0.00871  -0.00881   1.90923
   A59        1.91306  -0.00094   0.00000  -0.01116  -0.01125   1.90181
   A60        1.85149  -0.00034   0.00000  -0.01352  -0.01373   1.83776
    D1        3.07101   0.00025   0.00000   0.03120   0.03141   3.10242
    D2        0.96168   0.00014   0.00000   0.00333   0.00308   0.96476
    D3       -1.08112  -0.00169   0.00000  -0.00291  -0.00258  -1.08369
    D4        1.04189   0.00155   0.00000   0.06760   0.06761   1.10950
    D5       -1.06745   0.00144   0.00000   0.03973   0.03929  -1.02815
    D6       -3.11024  -0.00039   0.00000   0.03349   0.03363  -3.07661
    D7        1.12761  -0.00344   0.00000  -0.03803  -0.03796   1.08965
    D8       -3.03896  -0.00230   0.00000  -0.01376  -0.01365  -3.05261
    D9       -1.01641  -0.00346   0.00000  -0.03341  -0.03327  -1.04968
   D10       -3.04849   0.00255   0.00000   0.03394   0.03377  -3.01472
   D11       -0.93188   0.00370   0.00000   0.05820   0.05808  -0.87379
   D12        1.09067   0.00254   0.00000   0.03855   0.03847   1.12913
   D13       -0.99628  -0.00023   0.00000   0.00401   0.00399  -0.99230
   D14        1.12033   0.00091   0.00000   0.02828   0.02830   1.14863
   D15       -3.14031  -0.00024   0.00000   0.00863   0.00869  -3.13162
   D16       -3.10630  -0.00013   0.00000   0.01313   0.01324  -3.09306
   D17        1.03384  -0.00012   0.00000   0.01438   0.01453   1.04838
   D18       -1.00545   0.00215   0.00000   0.04162   0.04150  -0.96395
   D19        1.07896  -0.00117   0.00000  -0.00823  -0.00823   1.07073
   D20       -1.06408  -0.00116   0.00000  -0.00697  -0.00693  -1.07102
   D21       -3.10338   0.00111   0.00000   0.02026   0.02004  -3.08334
   D22       -0.96218  -0.00063   0.00000   0.00323   0.00330  -0.95888
   D23       -3.10522  -0.00062   0.00000   0.00448   0.00459  -3.10063
   D24        1.13867   0.00165   0.00000   0.03172   0.03156   1.17023
   D25       -1.14763  -0.00037   0.00000   0.00325   0.00341  -1.14422
   D26        3.02350  -0.00050   0.00000  -0.00417  -0.00412   3.01938
   D27        1.00173   0.00026   0.00000   0.00765   0.00778   1.00951
   D28        0.99649  -0.00022   0.00000  -0.00155  -0.00148   0.99501
   D29       -1.11557  -0.00036   0.00000  -0.00897  -0.00901  -1.12458
   D30       -3.13734   0.00040   0.00000   0.00285   0.00289  -3.13445
   D31        3.01650  -0.00000   0.00000  -0.00115  -0.00124   3.01527
[...]
    18    C    2  S      Ryd( 3S)     0.00221
    19    C    2  S      Ryd( 4S)     0.00003
    20    C    2  px     Val( 2p)     1.06379
    21    C    2  px     Ryd( 3p)     0.00214
    22    C    2  py     Val( 2p)     1.21742
    23    C    2  py     Ryd( 3p)     0.00431
    24    C    2  pz     Val( 2p)     0.99428
    25    C    2  pz     Ryd( 3p)     0.00554
    26    C    2  dxy    Ryd( 3d)     0.00084
    27    C    2  dxz    Ryd( 3d)     0.00105
    28    C    2  dyz    Ryd( 3d)     0.00089
    29    C    2  dx2y2  Ryd( 3d)     0.00069
    30    C    2  dz2    Ryd( 3d)     0.00093

    31    C    3  S      Cor( 1S)     1.99932
    32    C    3  S      Val( 2S)     1.04479
    33    C    3  S      Ryd( 3S)     0.00112
    34    C    3  S      Ryd( 4S)     0.00003
    35    C    3  px     Val( 2p)     1.05702
    36    C    3  px     Ryd( 3p)     0.00404
    37    C    3  py     Val( 2p)     1.16847
    38    C    3  py     Ryd( 3p)     0.00181
    39    C    3  pz     Val( 2p)     1.19675
    40    C    3  pz     Ryd( 3p)     0.00306
    41    C    3  dxy    Ryd( 3d)     0.00053
    42    C    3  dxz    Ryd( 3d)     0.00047
    43    C    3  dyz    Ryd( 3d)     0.00051
    44    C    3  dx2y2  Ryd( 3d)     0.00072
    45    C    3  dz2    Ryd( 3d)     0.00087

    46    C    4  S      Cor( 1S)     1.99933
    47    C    4  S      Val( 2S)     1.03689
    48    C    4  S      Ryd( 3S)     0.00084
    49    C    4  S      Ryd( 4S)     0.00002
    50    C    4  px     Val( 2p)     1.08620
    51    C    4  px     Ryd( 3p)     0.00239
    52    C    4  py     Val( 2p)     1.15517
    53    C    4  py     Ryd( 3p)     0.00262
    54    C    4  pz     Val( 2p)     1.17061
    55    C    4  pz     Ryd( 3p)     0.00396
    56    C    4  dxy    Ryd( 3d)     0.00059
    57    C    4  dxz    Ryd( 3d)     0.00067
    58    C    4  dyz    Ryd( 3d)     0.00054
    59    C    4  dx2y2  Ryd( 3d)     0.00074
    60    C    4  dz2    Ryd( 3d)     0.00066

    61    C    5  S      Cor( 1S)     1.99933
    62    C    5  S      Val( 2S)     1.03088
    63    C    5  S      Ryd( 3S)     0.00084
    64    C    5  S      Ryd( 4S)     0.00002
    65    C    5  px     Val( 2p)     1.05492
    66    C    5  px     Ryd( 3p)     0.00232
    67    C    5  py     Val( 2p)     1.23176
    68    C    5  py     Ryd( 3p)     0.00333
    69    C    5  pz     Val( 2p)     1.13565
    70    C    5  pz     Ryd( 3p)     0.00181
    71    C    5  dxy    Ryd( 3d)     0.00049
    72    C    5  dxz    Ryd( 3d)     0.00057
    73    C    5  dyz    Ryd( 3d)     0.00091
    74    C    5  dx2y2  Ryd( 3d)     0.00072
    75    C    5  dz2    Ryd( 3d)     0.00047

    76    C    6  S      Cor( 1S)     1.99933
    77    C    6  S      Val( 2S)     1.03183
    78    C    6  S      Ryd( 3S)     0.00081
    79    C    6  S      Ryd( 4S)     0.00002
    80    C    6  px     Val( 2p)     1.06126
    81    C    6  px     Ryd( 3p)     0.00302
    82    C    6  py     Val( 2p)     1.22498
    83    C    6  py     Ryd( 3p)     0.00350
    84    C    6  pz     Val( 2p)     1.13319
    85    C    6  pz     Ryd( 3p)     0.00138
    86    C    6  dxy    Ryd( 3d)     0.00054
    87    C    6  dxz    Ryd( 3d)     0.00056
    88    C    6  dyz    Ryd( 3d)     0.00096
    89    C    6  dx2y2  Ryd( 3d)     0.00067
    90    C    6  dz2    Ryd( 3d)     0.00045

    91    C    7  S      Cor( 1S)     1.99934
    92    C    7  S      Val( 2S)     1.03107
    93    C    7  S      Ryd( 3S)     0.00083
    94    C    7  S      Ryd( 4S)     0.00002
    95    C    7  px     Val( 2p)     1.05736
    96    C    7  px     Ryd( 3p)     0.00209
    97    C    7  py     Val( 2p)     1.12847
    98    C    7  py     Ryd( 3p)     0.00141
    99    C    7  pz     Val( 2p)     1.22894
   100    C    7  pz     Ryd( 3p)     0.00369
   101    C    7  dxy    Ryd( 3d)     0.00059
   102    C    7  dxz    Ryd( 3d)     0.00051
   103    C    7  dyz    Ryd( 3d)     0.00099
   104    C    7  dx2y2  Ryd( 3d)     0.00064
   105    C    7  dz2    Ryd( 3d)     0.00046

   106    C    8  S      Cor( 1S)     1.99933
   107    C    8  S      Val( 2S)     1.03104
   108    C    8  S      Ryd( 3S)     0.00094
   109    C    8  S      Ryd( 4S)     0.00002
   110    C    8  px     Val( 2p)     1.05918
   111    C    8  px     Ryd( 3p)     0.00238
   112    C    8  py     Val( 2p)     1.13640
   113    C    8  py     Ryd( 3p)     0.00177
   114    C    8  pz     Val( 2p)     1.23091
   115    C    8  pz     Ryd( 3p)     0.00273
   116    C    8  dxy    Ryd( 3d)     0.00055
   117    C    8  dxz    Ryd( 3d)     0.00048
   118    C    8  dyz    Ryd( 3d)     0.00100
   119    C    8  dx2y2  Ryd( 3d)     0.00065
   120    C    8  dz2    Ryd( 3d)     0.00049

   121    C    9  S      Cor( 1S)     1.99932
   122    C    9  S      Val( 2S)     1.04366
   123    C    9  S      Ryd( 3S)     0.00085
   124    C    9  S      Ryd( 4S)     0.00002
   125    C    9  px     Val( 2p)     1.05629
   126    C    9  px     Ryd( 3p)     0.00138
   127    C    9  py     Val( 2p)     1.13942
   128    C    9  py     Ryd( 3p)     0.00169
   129    C    9  pz     Val( 2p)     1.23148
   130    C    9  pz     Ryd( 3p)     0.00290
   131    C    9  dxy    Ryd( 3d)     0.00056
   132    C    9  dxz    Ryd( 3d)     0.00050
   133    C    9  dyz    Ryd( 3d)     0.00094
   134    C    9  dx2y2  Ryd( 3d)     0.00064
   135    C    9  dz2    Ryd( 3d)     0.00049

   136    C   10  S      Cor( 1S)     1.99936
   137    C   10  S      Val( 2S)     1.01968
   138    C   10  S      Ryd( 3S)     0.00136
   139    C   10  S      Ryd( 4S)     0.00004
   140    C   10  px     Val( 2p)     1.19274
   141    C   10  px     Ryd( 3p)     0.00360
   142    C   10  py     Val( 2p)     0.97349
   143    C   10  py     Ryd( 3p)     0.00484
   144    C   10  pz     Val( 2p)     1.06457
   145    C   10  pz     Ryd( 3p)     0.00128
   146    C   10  dxy    Ryd( 3d)     0.00089
   147    C   10  dxz    Ryd( 3d)     0.00054
   148    C   10  dyz    Ryd( 3d)     0.00128
   149    C   10  dx2y2  Ryd( 3d)     0.00109
   150    C   10  dz2    Ryd( 3d)     0.00106

   151    N   11  S      Cor( 1S)     1.99971
   152    N   11  S      Val( 2S)     1.44149
   153    N   11  S      Ryd( 3S)     0.00030
   154    N   11  S      Ryd( 4S)     0.00001
   155    N   11  px     Val( 2p)     1.54325
   156    N   11  px     Ryd( 3p)     0.00338
   157    N   11  py     Val( 2p)     1.56500
   158    N   11  py     Ryd( 3p)     0.00460
   159    N   11  pz     Val( 2p)     1.36222
   160    N   11  pz     Ryd( 3p)     0.00227
   161    N   11  dxy    Ryd( 3d)     0.00097
   162    N   11  dxz    Ryd( 3d)     0.00048
   163    N   11  dyz    Ryd( 3d)     0.00106
   164    N   11  dx2y2  Ryd( 3d)     0.00120
   165    N   11  dz2    Ryd( 3d)     0.00082

   166    H   12  S      Val( 1S)     0.74784
   167    H   12  S      Ryd( 2S)     0.08659
   168    H   12  px     Ryd( 2p)     0.00075
   169    H   12  py     Ryd( 2p)     0.00017
   170    H   12  pz     Ryd( 2p)     0.00023

   171    H   13  S      Val( 1S)     0.72914
   172    H   13  S      Ryd( 2S)     0.08639
   173    H   13  px     Ryd( 2p)     0.00027
   174    H   13  py     Ryd( 2p)     0.00071
   175    H   13  pz     Ryd( 2p)     0.00022

   176    H   14  S      Val( 1S)     0.71856
   177    H   14  S      Ryd( 2S)     0.03456
   178    H   14  px     Ryd( 2p)     0.00010
   179    H   14  py     Ryd( 2p)     0.00018
   180    H   14  pz     Ryd( 2p)     0.00027

   181    H   15  S      Val( 1S)     0.75907
   182    H   15  S      Ryd( 2S)     0.02445
   183    H   15  px     Ryd( 2p)     0.00010
   184    H   15  py     Ryd( 2p)     0.00032
   185    H   15  pz     Ryd( 2p)     0.00010

   186    H   16  S      Val( 1S)     0.77917
   187    H   16  S      Ryd( 2S)     0.01217
   188    H   16  px     Ryd( 2p)     0.00015
   189    H   16  py     Ryd( 2p)     0.00009
   190    H   16  pz     Ryd( 2p)     0.00030

   191    H   17  S      Val( 1S)     0.76954
   192    H   17  S      Ryd( 2S)     0.02040
   193    H   17  px     Ryd( 2p)     0.00016
   194    H   17  py     Ryd( 2p)     0.00030
   195    H   17  pz     Ryd( 2p)     0.00011

   196    H   18  S      Val( 1S)     0.76692
   197    H   18  S      Ryd( 2S)     0.00487
   198    H   18  px     Ryd( 2p)     0.00012
   199    H   18  py     Ryd( 2p)     0.00030
   200    H   18  pz     Ryd( 2p)     0.00013

   201    H   19  S      Val( 1S)     0.76784
   202    H   19  S      Ryd( 2S)     0.00703
   203    H   19  px     Ryd( 2p)     0.00014
   204    H   19  py     Ryd( 2p)     0.00011
   205    H   19  pz     Ryd( 2p)     0.00031

   206    H   20  S      Val( 1S)     0.76116
   207    H   20  S      Ryd( 2S)     0.00149
   208    H   20  px     Ryd( 2p)     0.00011
   209    H   20  py     Ryd( 2p)     0.00021
   210    H   20  pz     Ryd( 2p)     0.00024

   211    H   21  S      Val( 1S)     0.76888
   212    H   21  S      Ryd( 2S)     0.00197
   213    H   21  px     Ryd( 2p)     0.00014
   214    H   21  py     Ryd( 2p)     0.00029
   215    H   21  pz     Ryd( 2p)     0.00013

   216    H   22  S      Val( 1S)     0.77063
   217    H   22  S      Ryd( 2S)     0.00308
   218    H   22  px     Ryd( 2p)     0.00011
   219    H   22  py     Ryd( 2p)     0.00021
   220    H   22  pz     Ryd( 2p)     0.00024

   221    H   23  S      Val( 1S)     0.76388
   222    H   23  S      Ryd( 2S)     0.00179
   223    H   23  px     Ryd( 2p)     0.00014
   224    H   23  py     Ryd( 2p)     0.00028
   225    H   23  pz     Ryd( 2p)     0.00013

   226    H   24  S      Val( 1S)     0.77006
   227    H   24  S      Ryd( 2S)     0.00176
   228    H   24  px     Ryd( 2p)     0.00010
   229    H   24  py     Ryd( 2p)     0.00023
   230    H   24  pz     Ryd( 2p)     0.00023

   231    H   25  S      Val( 1S)     0.76337
   232    H   25  S      Ryd( 2S)     0.00151
   233    H   25  px     Ryd( 2p)     0.00014
   234    H   25  py     Ryd( 2p)     0.00014
   235    H   25  pz     Ryd( 2p)     0.00028

   236    H   26  S      Val( 1S)     0.77299
   237    H   26  S      Ryd( 2S)     0.00241
   238    H   26  px     Ryd( 2p)     0.00011
   239    H   26  py     Ryd( 2p)     0.00022
   240    H   26  pz     Ryd( 2p)     0.00023

   241    H   27  S      Val( 1S)     0.76884
   242    H   27  S      Ryd( 2S)     0.00155
   243    H   27  px     Ryd( 2p)     0.00014
   244    H   27  py     Ryd( 2p)     0.00013
   245    H   27  pz     Ryd( 2p)     0.00029

   246    H   28  S      Val( 1S)     0.77057
   247    H   28  S      Ryd( 2S)     0.00190
   248    H   28  px     Ryd( 2p)     0.00013
   249    H   28  py     Ryd( 2p)     0.00014
   250    H   28  pz     Ryd( 2p)     0.00028

   251    H   29  S      Val( 1S)     0.76299
   252    H   29  S      Ryd( 2S)     0.00185
   253    H   29  px     Ryd( 2p)     0.00010
   254    H   29  py     Ryd( 2p)     0.00023
   255    H   29  pz     Ryd( 2p)     0.00022

   256    H   30  S      Val( 1S)     0.76943
   257    H   30  S      Ryd( 2S)     0.00136
   258    H   30  px     Ryd( 2p)     0.00036
   259    H   30  py     Ryd( 2p)     0.00011
   260    H   30  pz     Ryd( 2p)     0.00008

   261    H   31  S      Val( 1S)     0.77486
   262    H   31  S      Ryd( 2S)     0.00160
   263    H   31  px     Ryd( 2p)     0.00012
   264    H   31  py     Ryd( 2p)     0.00012
   265    H   31  pz     Ryd( 2p)     0.00032

   266    H   32  S      Val( 1S)     0.61325
   267    H   32  S      Ryd( 2S)     0.00120
   268    H   32  px     Ryd( 2p)     0.00064
   269    H   32  py     Ryd( 2p)     0.00044
   270    H   32  pz     Ryd( 2p)     0.00034

   271    H   33  S      Val( 1S)     0.61436
   272    H   33  S      Ryd( 2S)     0.00155
   273    H   33  px     Ryd( 2p)     0.00042
   274    H   33  py     Ryd( 2p)     0.00044
   275    H   33  pz     Ryd( 2p)     0.00055


 Summary of Natural Population Analysis:                  
                                                          
                                       Natural Population 
                Natural  -----------------------------------------------
    Atom  No    Charge         Core      Valence    Rydberg      Total
 -----------------------------------------------------------------------
      N    1   -0.38282      1.99934     5.35825    0.02522     7.38282
      C    2   -0.35418      1.99931     4.33623    0.01863     6.35418
      C    3   -0.47952      1.99932     4.46704    0.01317     6.47952
      C    4   -0.46123      1.99933     4.44887    0.01303     6.46123
      C    5   -0.46401      1.99933     4.45320    0.01147     6.46401
      C    6   -0.46251      1.99933     4.45126    0.01192     6.46251
      C    7   -0.45641      1.99934     4.44584    0.01123     6.45641
      C    8   -0.46789      1.99933     4.45753    0.01102     6.46789
      C    9   -0.48013      1.99932     4.47083    0.00997     6.48013
      C   10   -0.26582      1.99936     4.25048    0.01598     6.26582
      N   11   -0.92677      1.99971     5.91197    0.01510     7.92677
      H   12    0.16442      0.00000     0.74784    0.08774     0.83558
      H   13    0.18326      0.00000     0.72914    0.08759     0.81674
      H   14    0.24633      0.00000     0.71856    0.03511     0.75367
      H   15    0.21596      0.00000     0.75907    0.02496     0.78404
      H   16    0.20811      0.00000     0.77917    0.01272     0.79189
      H   17    0.20950      0.00000     0.76954    0.02096     0.79050
      H   18    0.22766      0.00000     0.76692    0.00542     0.77234
      H   19    0.22458      0.00000     0.76784    0.00759     0.77542
      H   20    0.23680      0.00000     0.76116    0.00204     0.76320
      H   21    0.22859      0.00000     0.76888    0.00253     0.77141
      H   22    0.22574      0.00000     0.77063    0.00364     0.77426
      H   23    0.23377      0.00000     0.76388    0.00235     0.76623
      H   24    0.22762      0.00000     0.77006    0.00232     0.77238
      H   25    0.23456      0.00000     0.76337    0.00207     0.76544
      H   26    0.22404      0.00000     0.77299    0.00298     0.77596
      H   27    0.22906      0.00000     0.76884    0.00210     0.77094
      H   28    0.22698      0.00000     0.77057    0.00245     0.77302
      H   29    0.23461      0.00000     0.76299    0.00241     0.76539
      H   30    0.22867      0.00000     0.76943    0.00191     0.77133
      H   31    0.22300      0.00000     0.77486    0.00215     0.77700
      H   32    0.38412      0.00000     0.61325    0.00263     0.61588
      H   33    0.38267      0.00000     0.61436    0.00297     0.61733
 =======================================================================
   * Total *   -0.00124     21.99303    67.53482    0.47339    90.00124

                                 Natural Population      
 --------------------------------------------------------
   Core                      21.99303 ( 99.9683% of  22)
   Valence                   67.53482 ( 99.3159% of  68)
   Natural Minimal Basis     89.52785 ( 99.4754% of  90)
   Natural Rydberg Basis      0.47339 (  0.5260% of  90)
 --------------------------------------------------------

    Atom  No          Natural Electron Configuration
 ----------------------------------------------------------------------------
      N    1      [core]2S( 1.52)2p( 3.84)3S( 0.02)
      C    2      [core]2S( 1.06)2p( 3.28)3p( 0.01)
      C    3      [core]2S( 1.04)2p( 3.42)3p( 0.01)
      C    4      [core]2S( 1.04)2p( 3.41)3p( 0.01)
      C    5      [core]2S( 1.03)2p( 3.42)3p( 0.01)
      C    6      [core]2S( 1.03)2p( 3.42)3p( 0.01)
      C    7      [core]2S( 1.03)2p( 3.41)3p( 0.01)
      C    8      [core]2S( 1.03)2p( 3.43)3p( 0.01)
      C    9      [core]2S( 1.04)2p( 3.43)3p( 0.01)
      C   10      [core]2S( 1.02)2p( 3.23)3p( 0.01)
      N   11      [core]2S( 1.44)2p( 4.47)3p( 0.01)
      H   12            1S( 0.75)2S( 0.09)
      H   13            1S( 0.73)2S( 0.09)
      H   14            1S( 0.72)2S( 0.03)
      H   15            1S( 0.76)2S( 0.02)
      H   16            1S( 0.78)2S( 0.01)
      H   17            1S( 0.77)2S( 0.02)
      H   18            1S( 0.77)
      H   19            1S( 0.77)2S( 0.01)
      H   20            1S( 0.76)
      H   21            1S( 0.77)
      H   22            1S( 0.77)
      H   23            1S( 0.76)
      H   24            1S( 0.77)
      H   25            1S( 0.76)
      H   26            1S( 0.77)
      H   27            1S( 0.77)
      H   28            1S( 0.77)
      H   29            1S( 0.76)
      H   30            1S( 0.77)
      H   31            1S( 0.77)
      H   32            1S( 0.61)
      H   33            1S( 0.61)


 NBO analysis skipped by request.
 1\1\GINC-DRG2-W002\SP\RB3LYP TD-FC\6-31G(d,p)\C9H22N2\QDUEZ\19-Jul-202
 4\0\\# TD(NStates=10, Root=1) B3LYP/6-31G** SCRF=(Solvent=water) volum
 e pop=NPA density=current Geom=AllCheck Guess=Read\\SXJVFQLYZSNZBT-UHF
 FFAOYSA-N_conf_3\\0,1\N,0,5.0734674368,0.9052961278,0.4295110059\C,0,4
 .2954061338,0.0532785598,1.3444967844\C,0,2.8042044791,0.0581817211,0.
 9886364393\C,0,2.4901430457,-0.5329541351,-0.3923668446\C,0,1.01588964
 94,-0.4257634912,-0.8144197892\C,0,0.0450832241,-1.2524599776,0.042761
 1161\C,0,-1.4060156695,-1.2616624457,-0.4659298237\C,0,-2.1209541397,0
 .095155479,-0.3954738072\C,0,-3.5883640076,0.0268929261,-0.8365073246\
 C,0,-4.330231086,1.3738414995,-0.7822438573\N,0,-4.4865697455,1.990521
 4438,0.5441074484\H,0,6.0585600181,0.8502184784,0.6814382725\H,0,4.811
 7809078,1.8776084796,0.5883365528\H,0,4.4065375057,0.3409673891,2.4036
 811301\H,0,4.684476857,-0.9697190515,1.2587306154\H,0,2.2676563497,-0.
 4939796816,1.7698801134\H,0,2.4310038933,1.0925088338,1.0371894504\H,0
 ,2.795356762,-1.5897729424,-0.4069098761\H,0,3.1148757193,-0.024349809
 5,-1.134778673\H,0,0.9239888517,-0.7540073136,-1.8593128698\H,0,0.7187
 203225,0.6315201602,-0.8020754332\H,0,0.0558192854,-0.8880719418,1.078
 7540684\H,0,0.410184949,-2.2882945837,0.0818043612\H,0,-1.4241975329,-
 1.627012661,-1.5029592689\H,0,-1.9807605393,-1.9905343294,0.1217180551
 \H,0,-2.0630247251,0.4713700073,0.6356298278\H,0,-1.5957497013,0.82994
 1964,-1.0202728263\H,0,-4.1259424132,-0.7012173698,-0.2112636517\H,0,-
 3.639423447,-0.3567075102,-1.8654575738\H,0,-5.3331399457,1.2436721028
 ,-1.2073890838\H,0,-3.8140831227,2.0982588273,-1.4260841557\H,0,-3.567
 5261326,2.1676052011,0.9452044776\H,0,-4.9271731822,1.3185219149,1.171
 5651402\\Version=ES64L-G16RevA.03\State=1-A\HF=-465.7487147\RMSD=1.204
 e-09\Dipole=0.2687883,-0.8565157,0.1292754\Quadrupole=-5.0310448,-1.19
 92974,6.2303422,4.2789573,-0.449832,-1.0658133\PG=C01 [X(C9H22N2)]\\@


 I WOULD TAKE COUNSEL OF MYSELF.
 I WOULD STOP AND LOOK WITHIN
 AND LOOKING WITHIN, LOOK BACK, ALSO
 THAT I MAY LOOK AHEAD WITH CLEARER UNDERSTANDING
 OF THE WAY I HAVE BEEN MOVING, AND IN WHAT DIRECTION.
 I NEED TO KNOW IF I AM GOING FORWARD OR RETREATING,
 WHETHER I HAVE BEEN WASTING, OR ENJOYING
 THE PRECIOUS MOMENTS OF LIFE.  THERE HAVE BEEN FRICTIONS,
 ANNOYANCES AND SOMETIMES WRATH,
 BUT WERE THEY BECAUSE I WAS RIGHT AND OTHERS WRONG.....
 HAVE I HAD MY THOUGHTS TOO SHARPLY FOCUSED
 ON THAT WHICH PLEASED ME, SERVED MY SELF-ESTEEM,
 UNDERGIRDED MY SECURITY,
 OF WHICH I DID NOT INQUIRE WHETHER IT SERVED OR HAMPERED OTHERS.....
 HAVE I BEEN TRYING TO STOP THE CLOCK
 TO HOLD THE WORLD
 IN PERPETUATION OF WHAT WAS AN IS ALREADY SLIPPING AWAY.....
 HAVE I BEEN CRITICAL OF OTHERS FOR WHAT REALLY NEEDED CHANGING IN ME...
 LET ME INDEED TAKE COUNSEL OF MYSELF
 AND SET MY DIRECTIONS STRAIGHT.

                          R.T. WESTON AS ADAPTED BY D. OSBORN 1967
 Job cpu time:       0 days  0 hours 42 minutes 52.8 seconds.
 Elapsed time:       0 days  0 hours 14 minutes 20.2 seconds.
 File lengths (MBytes):  RWF=    645 Int=      0 D2E=      0 Chk=     42 Scr=      1
 Normal termination of Gaussian 16 at Fri Jul 19 10:17:17 2024.
