 Entering Gaussian System, Link 0=g16
 Initial command:
 /opt/sw/arch/manual/gaussian/G16_A03/g16/l1.exe "/scratch/1032029.jesse.materianova.be/Gau-72198.inp" -scrdir="/scratch/1032029.jesse.materianova.be/"
 Entering Link 1 = /opt/sw/arch/manual/gaussian/G16_A03/g16/l1.exe PID=     72204.
  
 Copyright (c) 1988,1990,1992,1993,1995,1998,2003,2009,2016,
            Gaussian, Inc.  All Rights Reserved.
  
 This is part of the Gaussian(R) 16 program.  It is based on
 the Gaussian(R) 09 system (copyright 2009, Gaussian, Inc.),
 the Gaussian(R) 03 system (copyright 2003, Gaussian, Inc.),
 the Gaussian(R) 98 system (copyright 1998, Gaussian, Inc.),
 the Gaussian(R) 94 system (copyright 1995, Gaussian, Inc.),
 the Gaussian 92(TM) system (copyright 1992, Gaussian, Inc.),
 the Gaussian 90(TM) system (copyright 1990, Gaussian, Inc.),
 the Gaussian 88(TM) system (copyright 1988, Gaussian, Inc.),
 the Gaussian 86(TM) system (copyright 1986, Carnegie Mellon
 University), and the Gaussian 82(TM) system (copyright 1983,
 Carnegie Mellon University). Gaussian is a federally registered
 trademark of Gaussian, Inc.
  
 This software contains proprietary and confidential information,
 including trade secrets, belonging to Gaussian, Inc.
  
 This software is provided under written license and may be
 used, copied, transmitted, or stored only in accord with that
 written license.
  
 The following legend is applicable only to US Government
 contracts under FAR:
  
                    RESTRICTED RIGHTS LEGEND
  
 Use, reproduction and disclosure by the US Government is
 subject to restrictions as set forth in subparagraphs (a)
 and (c) of the Commercial Computer Software - Restricted
 Rights clause in FAR 52.227-19.
  
 Gaussian, Inc.
 340 Quinnipiac St., Bldg. 40, Wallingford CT 06492
  
  
 ---------------------------------------------------------------
 Warning -- This program may not be used in any manner that
 competes with the business of Gaussian, Inc. or will provide
 assistance to any competitor of Gaussian, Inc.  The licensee
 of this program is prohibited from giving any competitor of
 Gaussian, Inc. access to this program.  By using this program,
 the user acknowledges that Gaussian, Inc. is engaged in the
 business of creating and licensing software in the field of
 computational chemistry and represents and warrants to the
 licensee that it is not a competitor of Gaussian, Inc. and that
 it will not use this program in any manner prohibited above.
 ---------------------------------------------------------------
  

 Cite this work as:
 Gaussian 16, Revision A.03,
 M. J. Frisch, G. W. Trucks, H. B. Schlegel, G. E. Scuseria, 
 M. A. Robb, J. R. Cheeseman, G. Scalmani, V. Barone, 
 G. A. Petersson, H. Nakatsuji, X. Li, M. Caricato, A. V. Marenich, 
 J. Bloino, B. G. Janesko, R. Gomperts, B. Mennucci, H. P. Hratchian, 
 J. V. Ortiz, A. F. Izmaylov, J. L. Sonnenberg, D. Williams-Young, 
 F. Ding, F. Lipparini, F. Egidi, J. Goings, B. Peng, A. Petrone, 
 T. Henderson, D. Ranasinghe, V. G. Zakrzewski, J. Gao, N. Rega, 
 G. Zheng, W. Liang, M. Hada, M. Ehara, K. Toyota, R. Fukuda, 
 J. Hasegawa, M. Ishida, T. Nakajima, Y. Honda, O. Kitao, H. Nakai, 
 T. Vreven, K. Throssell, J. A. Montgomery, Jr., J. E. Peralta, 
 F. Ogliaro, M. J. Bearpark, J. J. Heyd, E. N. Brothers, K. N. Kudin, 
 V. N. Staroverov, T. A. Keith, R. Kobayashi, J. Normand, 
 K. Raghavachari, A. P. Rendell, J. C. Burant, S. S. Iyengar, 
 J. Tomasi, M. Cossi, J. M. Millam, M. Klene, C. Adamo, R. Cammi, 
 J. W. Ochterski, R. L. Martin, K. Morokuma, O. Farkas, 
 J. B. Foresman, and D. J. Fox, Gaussian, Inc., Wallingford CT, 2016.
 
 ******************************************
 Gaussian 16:  EM64L-G16RevA.03 25-Dec-2016
                11-Jul-2024 
 ******************************************
 %nprocshared=4
 Will use up to    4 processors via shared memory.
 %mem=8GB
 %Chk=BEPGHZIEOVULBU-UHFFFAOYSA-N_conf_0_0.chk
 -------------------------------------------------------
 # opt=CalcFc B3LYP/6-31G** SCRF=(Solvent=water) scf=xqc
 -------------------------------------------------------
 1/10=4,18=20,19=15,26=3,38=1/1,3;
 2/9=110,12=2,17=6,18=5,40=1/2;
 3/5=1,6=6,7=101,11=2,25=1,30=1,70=2201,71=2,72=1,74=-5,140=1/1,2,3;
 4//1;
 5/5=2,8=3,13=1,38=5,53=1/2,8;
 8/6=4,10=90,11=11/1;
 11/6=1,8=1,9=11,15=111,16=1/1,2,10;
 10/6=1,13=1/2;
 6/7=2,8=2,9=2,10=2,28=1/1;
 7/10=1,18=20,25=1/1,2,3,16;
 1/10=4,18=20,19=15,26=3/3(2);
 2/9=110/2;
 99//99;
 2/9=110/2;
 3/5=1,6=6,7=101,11=2,25=1,30=1,70=2205,71=1,72=1,74=-5/1,2,3;
 4/5=5,16=3,69=1/1;
 5/5=2,8=3,13=1,38=5,53=1/2,8;
 7//1,2,3,16;
 1/18=20,19=15,26=3/3(-5);
 2/9=110/2;
 6/7=2,8=2,9=2,10=2,19=2,28=1/1;
 99/9=1/99;
 ----------------------------------
 BEPGHZIEOVULBU-UHFFFAOYSA-N_conf_0
 ----------------------------------
 Symbolic Z-matrix:
 Charge =  0 Multiplicity = 1
 C                     3.7169   -0.21938  -1.66157 
 C                     3.36401   0.77085  -0.56033 
 N                     1.92642   0.99444  -0.42105 
 C                     1.23401  -0.11858   0.22769 
 C                    -0.25355   0.21391   0.3836 
 C                    -0.99688  -0.93816   1.06637 
 N                    -2.40832  -0.65502   1.3486 
 C                    -3.23364  -0.52922   0.14668 
 C                    -3.61782   0.92263  -0.09352 
 H                     3.35986  -1.22754  -1.43099 
 H                     3.28905   0.08738  -2.62182 
 H                     4.80398  -0.27233  -1.78161 
 H                     3.82636   1.73397  -0.80512 
 H                     3.80338   0.45394   0.39264 
 H                     1.51149   1.18065  -1.33341 
 H                     1.33545  -1.03545  -0.3633 
 H                     1.66901  -0.30189   1.21725 
 H                    -0.36826   1.13038   0.97644 
 H                    -0.68367   0.40648  -0.60642 
 H                    -0.50969  -1.14462   2.0271 
 H                    -0.90937  -1.85629   0.47227 
 H                    -2.77452  -1.42156   1.91432 
 H                    -2.75308  -0.95615  -0.7412 
 H                    -4.15618  -1.10213   0.29977 
 H                    -2.74259   1.5529   -0.27567 
 H                    -4.16033   1.33352   0.76486 
 H                    -4.27205   0.99724  -0.96827 
 

 GradGradGradGradGradGradGradGradGradGradGradGradGradGradGradGradGradGrad
 Berny optimization.
 Initialization pass.
                           ----------------------------
                           !    Initial Parameters    !
                           ! (Angstroms and Degrees)  !
 --------------------------                            --------------------------
 ! Name  Definition              Value          Derivative Info.                !
 --------------------------------------------------------------------------------
 ! R1    R(1,2)                  1.5224         calculate D2E/DX2 analytically  !
 ! R2    R(1,10)                 1.0941         calculate D2E/DX2 analytically  !
 ! R3    R(1,11)                 1.0951         calculate D2E/DX2 analytically  !
 ! R4    R(1,12)                 1.095          calculate D2E/DX2 analytically  !
 ! R5    R(2,3)                  1.4615         calculate D2E/DX2 analytically  !
 ! R6    R(2,13)                 1.096          calculate D2E/DX2 analytically  !
 ! R7    R(2,14)                 1.0962         calculate D2E/DX2 analytically  !
 ! R8    R(3,4)                  1.4626         calculate D2E/DX2 analytically  !
 ! R9    R(3,15)                 1.0194         calculate D2E/DX2 analytically  !
 ! R10   R(4,5)                  1.5322         calculate D2E/DX2 analytically  !
 ! R11   R(4,16)                 1.0955         calculate D2E/DX2 analytically  !
 ! R12   R(4,17)                 1.0964         calculate D2E/DX2 analytically  !
 ! R13   R(5,6)                  1.5317         calculate D2E/DX2 analytically  !
 ! R14   R(5,18)                 1.0975         calculate D2E/DX2 analytically  !
 ! R15   R(5,19)                 1.0965         calculate D2E/DX2 analytically  !
 ! R16   R(6,7)                  1.467          calculate D2E/DX2 analytically  !
 ! R17   R(6,20)                 1.0968         calculate D2E/DX2 analytically  !
 ! R18   R(6,21)                 1.0971         calculate D2E/DX2 analytically  !
 ! R19   R(7,8)                  1.4634         calculate D2E/DX2 analytically  !
 ! R20   R(7,22)                 1.0206         calculate D2E/DX2 analytically  !
 ! R21   R(8,9)                  1.5209         calculate D2E/DX2 analytically  !
 ! R22   R(8,23)                 1.0961         calculate D2E/DX2 analytically  !
 ! R23   R(8,24)                 1.0967         calculate D2E/DX2 analytically  !
 ! R24   R(9,25)                 1.0938         calculate D2E/DX2 analytically  !
 ! R25   R(9,26)                 1.0954         calculate D2E/DX2 analytically  !
 ! R26   R(9,27)                 1.0949         calculate D2E/DX2 analytically  !
 ! A1    A(2,1,10)             111.7931         calculate D2E/DX2 analytically  !
 ! A2    A(2,1,11)             111.1926         calculate D2E/DX2 analytically  !
 ! A3    A(2,1,12)             109.9303         calculate D2E/DX2 analytically  !
 ! A4    A(10,1,11)            108.3864         calculate D2E/DX2 analytically  !
 ! A5    A(10,1,12)            107.6094         calculate D2E/DX2 analytically  !
 ! A6    A(11,1,12)            107.7763         calculate D2E/DX2 analytically  !
 ! A7    A(1,2,3)              113.3555         calculate D2E/DX2 analytically  !
 ! A8    A(1,2,13)             108.1932         calculate D2E/DX2 analytically  !
 ! A9    A(1,2,14)             110.3581         calculate D2E/DX2 analytically  !
 ! A10   A(3,2,13)             107.5645         calculate D2E/DX2 analytically  !
 ! A11   A(3,2,14)             110.8316         calculate D2E/DX2 analytically  !
 ! A12   A(13,2,14)            106.2087         calculate D2E/DX2 analytically  !
 ! A13   A(2,3,4)              113.0492         calculate D2E/DX2 analytically  !
 ! A14   A(2,3,15)             110.0605         calculate D2E/DX2 analytically  !
 ! A15   A(4,3,15)             110.0769         calculate D2E/DX2 analytically  !
 ! A16   A(3,4,5)              109.8539         calculate D2E/DX2 analytically  !
 ! A17   A(3,4,16)             110.7184         calculate D2E/DX2 analytically  !
 ! A18   A(3,4,17)             109.8614         calculate D2E/DX2 analytically  !
 ! A19   A(5,4,16)             109.05           calculate D2E/DX2 analytically  !
 ! A20   A(5,4,17)             109.247          calculate D2E/DX2 analytically  !
 ! A21   A(16,4,17)            108.0726         calculate D2E/DX2 analytically  !
 ! A22   A(4,5,6)              110.6897         calculate D2E/DX2 analytically  !
 ! A23   A(4,5,18)             109.7334         calculate D2E/DX2 analytically  !
 ! A24   A(4,5,19)             109.0919         calculate D2E/DX2 analytically  !
 ! A25   A(6,5,18)             109.6684         calculate D2E/DX2 analytically  !
 ! A26   A(6,5,19)             110.1345         calculate D2E/DX2 analytically  !
 ! A27   A(18,5,19)            107.4613         calculate D2E/DX2 analytically  !
 ! A28   A(5,6,7)              114.0497         calculate D2E/DX2 analytically  !
 ! A29   A(5,6,20)             108.4506         calculate D2E/DX2 analytically  !
 ! A30   A(5,6,21)             110.4491         calculate D2E/DX2 analytically  !
 ! A31   A(7,6,20)             107.1687         calculate D2E/DX2 analytically  !
 ! A32   A(7,6,21)             110.0267         calculate D2E/DX2 analytically  !
 ! A33   A(20,6,21)            106.3424         calculate D2E/DX2 analytically  !
 ! A34   A(6,7,8)              113.6529         calculate D2E/DX2 analytically  !
 ! A35   A(6,7,22)             107.8719         calculate D2E/DX2 analytically  !
 ! A36   A(8,7,22)             108.5084         calculate D2E/DX2 analytically  !
 ! A37   A(7,8,9)              110.7458         calculate D2E/DX2 analytically  !
 ! A38   A(7,8,23)             112.615          calculate D2E/DX2 analytically  !
 ! A39   A(7,8,24)             108.3515         calculate D2E/DX2 analytically  !
 ! A40   A(9,8,23)             110.7699         calculate D2E/DX2 analytically  !
 ! A41   A(9,8,24)             107.9531         calculate D2E/DX2 analytically  !
 ! A42   A(23,8,24)            106.1647         calculate D2E/DX2 analytically  !
 ! A43   A(8,9,25)             111.977          calculate D2E/DX2 analytically  !
 ! A44   A(8,9,26)             111.0641         calculate D2E/DX2 analytically  !
 ! A45   A(8,9,27)             110.0091         calculate D2E/DX2 analytically  !
 ! A46   A(25,9,26)            108.0965         calculate D2E/DX2 analytically  !
 ! A47   A(25,9,27)            107.8071         calculate D2E/DX2 analytically  !
 ! A48   A(26,9,27)            107.7317         calculate D2E/DX2 analytically  !
 ! D1    D(10,1,2,3)           -65.9584         calculate D2E/DX2 analytically  !
 ! D2    D(10,1,2,13)          174.8371         calculate D2E/DX2 analytically  !
 ! D3    D(10,1,2,14)           59.0294         calculate D2E/DX2 analytically  !
 ! D4    D(11,1,2,3)            55.3315         calculate D2E/DX2 analytically  !
 ! D5    D(11,1,2,13)          -63.873          calculate D2E/DX2 analytically  !
 ! D6    D(11,1,2,14)         -179.6807         calculate D2E/DX2 analytically  !
 ! D7    D(12,1,2,3)           174.5994         calculate D2E/DX2 analytically  !
 ! D8    D(12,1,2,13)           55.3949         calculate D2E/DX2 analytically  !
 ! D9    D(12,1,2,14)          -60.4128         calculate D2E/DX2 analytically  !
 ! D10   D(1,2,3,4)             74.9323         calculate D2E/DX2 analytically  !
 ! D11   D(1,2,3,15)           -48.6087         calculate D2E/DX2 analytically  !
 ! D12   D(13,2,3,4)          -165.5031         calculate D2E/DX2 analytically  !
 ! D13   D(13,2,3,15)           70.956          calculate D2E/DX2 analytically  !
 ! D14   D(14,2,3,4)           -49.8001         calculate D2E/DX2 analytically  !
 ! D15   D(14,2,3,15)         -173.3411         calculate D2E/DX2 analytically  !
 ! D16   D(2,3,4,5)            177.8724         calculate D2E/DX2 analytically  !
 ! D17   D(2,3,4,16)           -61.6243         calculate D2E/DX2 analytically  !
 ! D18   D(2,3,4,17)            57.6688         calculate D2E/DX2 analytically  !
 ! D19   D(15,3,4,5)           -58.5957         calculate D2E/DX2 analytically  !
 ! D20   D(15,3,4,16)           61.9076         calculate D2E/DX2 analytically  !
 ! D21   D(15,3,4,17)         -178.7993         calculate D2E/DX2 analytically  !
 ! D22   D(3,4,5,6)           -179.7932         calculate D2E/DX2 analytically  !
 ! D23   D(3,4,5,18)           -58.6153         calculate D2E/DX2 analytically  !
 ! D24   D(3,4,5,19)            58.8683         calculate D2E/DX2 analytically  !
 ! D25   D(16,4,5,6)            58.6993         calculate D2E/DX2 analytically  !
 ! D26   D(16,4,5,18)          179.8773         calculate D2E/DX2 analytically  !
 ! D27   D(16,4,5,19)          -62.6391         calculate D2E/DX2 analytically  !
 ! D28   D(17,4,5,6)           -59.2176         calculate D2E/DX2 analytically  !
 ! D29   D(17,4,5,18)           61.9604         calculate D2E/DX2 analytically  !
 ! D30   D(17,4,5,19)          179.444          calculate D2E/DX2 analytically  !
 ! D31   D(4,5,6,7)            175.4315         calculate D2E/DX2 analytically  !
 ! D32   D(4,5,6,20)            56.1137         calculate D2E/DX2 analytically  !
 ! D33   D(4,5,6,21)           -60.0526         calculate D2E/DX2 analytically  !
 ! D34   D(18,5,6,7)            54.2151         calculate D2E/DX2 analytically  !
 ! D35   D(18,5,6,20)          -65.1027         calculate D2E/DX2 analytically  !
 ! D36   D(18,5,6,21)          178.731          calculate D2E/DX2 analytically  !
 ! D37   D(19,5,6,7)           -63.8477         calculate D2E/DX2 analytically  !
 ! D38   D(19,5,6,20)          176.8345         calculate D2E/DX2 analytically  !
 ! D39   D(19,5,6,21)           60.6682         calculate D2E/DX2 analytically  !
 ! D40   D(5,6,7,8)             67.4652         calculate D2E/DX2 analytically  !
 ! D41   D(5,6,7,22)          -172.1798         calculate D2E/DX2 analytically  !
 ! D42   D(20,6,7,8)          -172.4943         calculate D2E/DX2 analytically  !
 ! D43   D(20,6,7,22)          -52.1393         calculate D2E/DX2 analytically  !
 ! D44   D(21,6,7,8)           -57.2762         calculate D2E/DX2 analytically  !
 ! D45   D(21,6,7,22)           63.0788         calculate D2E/DX2 analytically  !
 ! D46   D(6,7,8,9)           -107.304          calculate D2E/DX2 analytically  !
 ! D47   D(6,7,8,23)            17.3471         calculate D2E/DX2 analytically  !
 ! D48   D(6,7,8,24)           134.472          calculate D2E/DX2 analytically  !
 ! D49   D(22,7,8,9)           132.7007         calculate D2E/DX2 analytically  !
 ! D50   D(22,7,8,23)         -102.6482         calculate D2E/DX2 analytically  !
 ! D51   D(22,7,8,24)           14.4767         calculate D2E/DX2 analytically  !
 ! D52   D(7,8,9,25)            62.7164         calculate D2E/DX2 analytically  !
 ! D53   D(7,8,9,26)           -58.2393         calculate D2E/DX2 analytically  !
 ! D54   D(7,8,9,27)          -177.4213         calculate D2E/DX2 analytically  !
 ! D55   D(23,8,9,25)          -62.9763         calculate D2E/DX2 analytically  !
 ! D56   D(23,8,9,26)          176.0681         calculate D2E/DX2 analytically  !
 ! D57   D(23,8,9,27)           56.886          calculate D2E/DX2 analytically  !
 ! D58   D(24,8,9,25)         -178.8175         calculate D2E/DX2 analytically  !
 ! D59   D(24,8,9,26)           60.2269         calculate D2E/DX2 analytically  !
 ! D60   D(24,8,9,27)          -58.9551         calculate D2E/DX2 analytically  !
 --------------------------------------------------------------------------------
 Trust Radius=3.00D-01 FncErr=1.00D-07 GrdErr=1.00D-06 EigMax=2.50D+02 EigMin=1.00D-04
 Number of steps in this run=    144 maximum allowed number of steps=    162.
 GradGradGradGradGradGradGradGradGradGradGradGradGradGradGradGradGradGrad

                          Input orientation:                          
 ---------------------------------------------------------------------
 Center     Atomic      Atomic             Coordinates (Angstroms)
 Number     Number       Type             X           Y           Z
 ---------------------------------------------------------------------
      1          6           0        3.716904   -0.219381   -1.661573
      2          6           0        3.364013    0.770855   -0.560333
      3          7           0        1.926424    0.994443   -0.421048
      4          6           0        1.234009   -0.118576    0.227691
      5          6           0       -0.253545    0.213909    0.383599
      6          6           0       -0.996877   -0.938157    1.066372
      7          7           0       -2.408323   -0.655015    1.348604
      8          6           0       -3.233638   -0.529222    0.146677
      9          6           0       -3.617816    0.922626   -0.093522
     10          1           0        3.359862   -1.227544   -1.430994
     11          1           0        3.289050    0.087384   -2.621822
     12          1           0        4.803981   -0.272335   -1.781613
     13          1           0        3.826356    1.733974   -0.805122
     14          1           0        3.803376    0.453937    0.392641
     15          1           0        1.511489    1.180652   -1.333407
     16          1           0        1.335449   -1.035446   -0.363300
     17          1           0        1.669014   -0.301891    1.217250
     18          1           0       -0.368264    1.130381    0.976436
     19          1           0       -0.683667    0.406485   -0.606422
     20          1           0       -0.509688   -1.144620    2.027105
     21          1           0       -0.909371   -1.856292    0.472275
     22          1           0       -2.774522   -1.421555    1.914319
     23          1           0       -2.753078   -0.956150   -0.741195
     24          1           0       -4.156176   -1.102132    0.299773
     25          1           0       -2.742589    1.552903   -0.275665
     26          1           0       -4.160326    1.333525    0.764863
     27          1           0       -4.272048    0.997242   -0.968267
 ---------------------------------------------------------------------
                    Distance matrix (angstroms):
                    1          2          3          4          5
     1  C    0.000000
     2  C    1.522442   0.000000
     3  N    2.493610   1.461524   0.000000
     4  C    3.121577   2.439054   1.462571   0.000000
     5  C    4.487197   3.779937   2.451317   1.532212   0.000000
     6  C    5.493455   4.958251   3.806974   2.520308   1.531658
     7  N    6.838812   6.244758   4.964112   3.848480   2.515816
     8  C    7.188588   6.761587   5.410186   4.487211   3.080475
     9  C    7.586902   6.999063   5.554370   4.972674   3.471057
    10  H    1.094093   2.179832   2.830541   2.915527   4.292697
    11  H    1.095099   2.173129   2.742793   3.519281   4.647424
    12  H    1.094966   2.157145   3.425813   4.099468   5.522965
    13  H    2.135670   1.096030   2.074647   3.349464   4.513231
    14  H    2.163477   1.096192   2.115936   2.637541   4.064025
    15  H    2.632801   2.048761   1.019433   2.049882   2.645382
    16  H    2.832455   2.723347   2.114955   1.095541   2.154913
    17  H    3.533876   2.680225   2.104938   1.096385   2.158068
    18  H    5.046736   4.052259   2.690173   2.165131   1.097513
    19  H    4.568378   4.064309   2.681909   2.156135   1.096463
    20  H    5.685638   5.036808   4.062473   2.707607   2.147632
    21  H    5.351186   5.121522   4.119035   2.770118   2.173408
    22  H    7.508051   6.972243   5.778398   4.539911   3.372413
    23  H    6.576518   6.358779   5.079867   4.187737   2.980246
    24  H    8.161587   7.797506   6.474043   5.479660   4.119407
    25  H    6.840087   6.163054   4.704541   4.342873   2.902219
    26  H    8.387482   7.660837   6.210466   5.612130   4.081891
    27  H    8.110746   7.650300   6.222581   5.743869   4.311556
                    6          7          8          9         10
     6  C    0.000000
     7  N    1.466971   0.000000
     8  C    2.452787   1.463420   0.000000
     9  C    3.417190   2.455922   1.520905   0.000000
    10  H    5.030085   6.428523   6.815492   7.422941   0.000000
    11  H    5.746623   6.983946   7.112682   7.402346   1.775422
    12  H    6.496482   7.871596   8.269680   8.672038   1.766589
    13  H    5.822916   7.015485   7.474724   7.521992   3.062666
    14  H    5.043239   6.381915   7.109617   7.451853   2.519867
    15  H    4.066963   5.091933   5.256477   5.283338   3.037337
    16  H    2.737365   4.134147   4.625245   5.333072   2.296763
    17  H    2.744917   4.094707   5.023326   5.582843   3.275515
    18  H    2.163814   2.736419   3.413672   3.427472   5.025381
    19  H    2.168963   2.814844   2.818697   3.023027   4.438480
    20  H    1.096808   2.074823   3.366694   4.293137   5.190254
    21  H    1.097078   2.111368   2.696172   3.921503   4.716365
    22  H    2.027982   1.020646   2.032635   3.199649   6.989951
    23  H    2.520291   2.139346   1.096139   2.167268   6.157720
    24  H    3.255108   2.086852   1.096695   2.131703   7.713761
    25  H    3.324749   2.761320   2.180539   1.093822   6.804821
    26  H    3.906259   2.713772   2.170422   1.095436   8.242214
    27  H    4.314194   3.401664   2.156731   1.094882   7.963030
                   11         12         13         14         15
    11  H    0.000000
    12  H    1.769283   0.000000
    13  H    2.510051   2.436095   0.000000
    14  H    3.079916   2.501212   1.753186   0.000000
    15  H    2.452544   3.626646   2.438004   2.959747   0.000000
    16  H    3.190334   3.824221   3.750935   2.979995   2.425529
    17  H    4.185036   4.338441   3.590106   2.409721   2.954420
    18  H    5.235575   6.027151   4.597076   4.266259   2.978485
    19  H    4.466111   5.652977   4.705531   4.597166   2.438556
    20  H    6.128684   6.595626   5.925293   4.881534   4.559066
    21  H    5.565793   6.342816   6.078558   5.249140   4.282998
    22  H    7.721423   8.509660   7.805403   7.007261   5.974035
    23  H    6.413505   7.658930   7.108433   6.801546   4.806576
    24  H    8.085917   9.236078   8.543132   8.110760   6.324619
    25  H    6.635727   7.908862   6.592736   6.671133   4.399383
    26  H    8.277422   9.456327   8.149375   8.020771   6.049429
    27  H    7.793093   9.200416   8.133483   8.207297   5.797954
                   16         17         18         19         20
    16  H    0.000000
    17  H    1.774121   0.000000
    18  H    3.064039   2.501978   0.000000
    19  H    2.493011   3.059850   1.768882   0.000000
    20  H    3.021668   2.472407   2.509888   3.061316   0.000000
    21  H    2.532032   3.101486   3.076880   2.516880   1.756052
    22  H    4.714709   4.635144   3.630714   3.750671   2.284488
    23  H    4.106720   4.880416   3.604332   2.481411   3.568166
    24  H    5.531912   5.951049   4.448625   3.892997   4.035140
    25  H    4.830904   5.013113   2.717298   2.379671   4.191090
    26  H    6.090018   6.071280   3.803389   3.850582   4.589294
    27  H    5.995150   6.462232   4.363385   3.654641   5.264521
                   21         22         23         24         25
    21  H    0.000000
    22  H    2.397348   0.000000
    23  H    2.383699   2.696074   0.000000
    24  H    3.337702   2.148897   1.753171   0.000000
    25  H    3.942425   3.693840   2.551897   3.062445   0.000000
    26  H    4.563907   3.291226   3.080774   2.479668   1.772231
    27  H    4.639549   4.049996   2.484868   2.455346   1.768531
                   26         27
    26  H    0.000000
    27  H    1.768985   0.000000
 Stoichiometry    C7H18N2
 Framework group  C1[X(C7H18N2)]
 Deg. of freedom    75
 Full point group                 C1      NOp   1
 Largest Abelian subgroup         C1      NOp   1
 Largest concise Abelian subgroup C1      NOp   1
                         Standard orientation:                         
 ---------------------------------------------------------------------
 Center     Atomic      Atomic             Coordinates (Angstroms)
 Number     Number       Type             X           Y           Z
 ---------------------------------------------------------------------
      1          6           0       -3.992758    0.130098    0.946782
      2          6           0       -3.473297    0.235311   -0.480425
      3          7           0       -2.059988    0.599611   -0.557229
      4          6           0       -1.164565   -0.504156   -0.212224
      5          6           0        0.293440   -0.059450   -0.367569
      6          6           0        1.248678   -1.203817   -0.015544
      7          7           0        2.664263   -0.891546   -0.240510
      8          6           0        3.190207    0.132924    0.662509
      9          6           0        3.409028    1.443095   -0.078247
     10          1           0       -3.523919   -0.695937    1.489824
     11          1           0       -3.812063    1.055897    1.503098
     12          1           0       -5.072849   -0.049585    0.938569
     13          1           0       -4.044553    1.015883   -0.995842
     14          1           0       -3.666096   -0.695700   -1.026029
     15          1           0       -1.872780    1.402588    0.042291
     16          1           0       -1.330952   -0.829920    0.820444
     17          1           0       -1.354290   -1.358198   -0.873038
     18          1           0        0.473178    0.267489   -1.399723
     19          1           0        0.477668    0.800804    0.286841
     20          1           0        1.003402   -2.067117   -0.646053
     21          1           0        1.095235   -1.525763    1.021946
     22          1           0        3.199830   -1.749604   -0.104042
     23          1           0        2.554870    0.285417    1.542631
     24          1           0        4.161306   -0.207031    1.042164
     25          1           0        2.473461    1.853694   -0.468850
     26          1           0        4.099151    1.309828   -0.918456
     27          1           0        3.845082    2.186773    0.596709
 ---------------------------------------------------------------------
 Rotational constants (GHZ):           3.7596051           0.5046896           0.4818649
 Standard basis: 6-31G(d,p) (6D, 7F)
 There are   225 symmetry adapted cartesian basis functions of A   symmetry.
 There are   225 symmetry adapted basis functions of A   symmetry.
   225 basis functions,   378 primitive gaussians,   225 cartesian basis functions
    37 alpha electrons       37 beta electrons
       nuclear repulsion energy       471.0661968625 Hartrees.
 NAtoms=   27 NActive=   27 NUniq=   27 SFac= 1.00D+00 NAtFMM=   60 NAOKFM=F Big=F
 Integral buffers will be    131072 words long.
 Raffenetti 2 integral format.
 Two-electron integral symmetry is turned on.
 Force inversion solution in PCM.
 ------------------------------------------------------------------------------
 Polarizable Continuum Model (PCM)
 =================================
 Model                : PCM.
 Atomic radii         : UFF (Universal Force Field).
 Polarization charges : Total charges.
 Charge compensation  : None.
 Solution method      : Matrix inversion.
 Cavity type          : Scaled VdW (van der Waals Surface) (Alpha=1.100).
 Cavity algorithm     : GePol (No added spheres)
                        Default sphere list used, NSphG=   27.
                        Lebedev-Laikov grids with approx.  5.0 points / Ang**2.
                        Smoothing algorithm: York/Karplus (Gamma=1.0000).
                        Polarization charges: spherical gaussians, with
                                              point-specific exponents (IZeta= 3).
                        Self-potential: point-specific (ISelfS= 7).
                        Self-field    : sphere-specific E.n sum rule (ISelfD= 2).
 1st derivatives      : Analytical E(r).r(x)/FMM algorithm (CHGder, D1EAlg=3).
                        Cavity 1st derivative terms included.
 2nd derivatives      : Analytical E(r).r(xy)/FMM algorithm (CHGder, D2EAlg=3).
                        Cavity 2nd derivative terms included.
 Solvent              : Water, Eps=  78.355300 Eps(inf)=   1.777849
 ------------------------------------------------------------------------------
 One-electron integrals computed using PRISM.
 NBasis=   225 RedAO= T EigKep=  2.76D-03  NBF=   225
 NBsUse=   225 1.00D-06 EigRej= -1.00D+00 NBFU=   225
 ExpMin= 1.61D-01 ExpMax= 4.17D+03 ExpMxC= 6.27D+02 IAcc=3 IRadAn=         5 AccDes= 0.00D+00
 Harris functional with IExCor=  402 and IRadAn=       5 diagonalized for initial guess.
 HarFok:  IExCor=  402 AccDes= 0.00D+00 IRadAn=         5 IDoV= 1 UseB2=F ITyADJ=14
 ICtDFT=  3500011 ScaDFX=  1.000000  1.000000  1.000000  1.000000
 FoFCou: FMM=F IPFlag=           0 FMFlag=      100000 FMFlg1=           0
         NFxFlg=           0 DoJE=T BraDBF=F KetDBF=T FulRan=T
         wScrn=  0.000000 ICntrl=       500 IOpCl=  0 I1Cent=   200000004 NGrid=           0
         NMat0=    1 NMatS0=      1 NMatT0=    0 NMatD0=    1 NMtDS0=    0 NMtDT0=    0
 Petite list used in FoFCou.
 Keep R1 ints in memory in canonical form, NReq=329001147.
 Requested convergence on RMS density matrix=1.00D-08 within  32 cycles.
 Requested convergence on MAX density matrix=1.00D-06.
 Requested convergence on             energy=1.00D-06.
 No special actions if energy rises.
 Inv3:  Mode=1 IEnd=    10367643.
 Iteration    1 A*A^-1 deviation from unit magnitude is 6.77D-15 for    676.
 Iteration    1 A*A^-1 deviation from orthogonality  is 4.24D-15 for   1492    445.
 Iteration    1 A^-1*A deviation from unit magnitude is 6.44D-15 for    676.
 Iteration    1 A^-1*A deviation from orthogonality  is 2.01D-10 for   1655   1644.
 Iteration    2 A*A^-1 deviation from unit magnitude is 4.22D-15 for    226.
 Iteration    2 A*A^-1 deviation from orthogonality  is 6.58D-15 for   1613     38.
 Iteration    2 A^-1*A deviation from unit magnitude is 2.66D-15 for    196.
 Iteration    2 A^-1*A deviation from orthogonality  is 1.98D-15 for   1021    390.
 Error on total polarization charges =  0.01063
 SCF Done:  E(RB3LYP) =  -387.097921091     A.U. after   11 cycles
            NFock= 11  Conv=0.32D-08     -V/T= 2.0096
 QCSCF skips out because SCF is already converged.
 DoSCS=F DFT=T ScalE2(SS,OS)=  1.000000  1.000000
 Range of M.O.s used for correlation:     1   225
 NBasis=   225 NAE=    37 NBE=    37 NFC=     0 NFV=     0
 NROrb=    225 NOA=    37 NOB=    37 NVA=   188 NVB=   188
 Symmetrizing basis deriv contribution to polar:
 IMax=3 JMax=2 DiffMx= 0.00D+00
 G2DrvN: will do    28 centers at a time, making    1 passes.
 Calling FoFCou, ICntrl=  3107 FMM=F I1Cent=   0 AccDes= 0.00D+00.
 NEqPCM:  Using equilibrium solvation (IEInf=0, Eps=  78.3553, EpsInf=   1.7778)
 G2PCM: DoFxE=T DoFxN=T DoGrad=T DoDP/DQ/DG/TGxP=FFFF NFrqRd=   0 IEInf=0 SqF1=F DoCFld=F IF1Alg=4.
 End of G2Drv F.D. properties file   721 does not exist.
 End of G2Drv F.D. properties file   722 does not exist.
 End of G2Drv F.D. properties file   788 does not exist.
          IDoAtm=111111111111111111111111111
 NEqPCM:  Using equilibrium solvation (IEInf=0, Eps=  78.3553, EpsInf=   1.7778)
          Differentiating once with respect to nuclear coordinates.
 Keep R1 ints in memory in canonical form, NReq=332349252.
          There are    84 degrees of freedom in the 1st order CPHF.  IDoFFX=6 NUNeed=     0.
     78 vectors produced by pass  0 Test12= 8.28D-15 1.19D-09 XBig12= 7.70D-02 5.53D-02.
 AX will form    78 AO Fock derivatives at one time.
     78 vectors produced by pass  1 Test12= 8.28D-15 1.19D-09 XBig12= 5.36D-03 9.15D-03.
     78 vectors produced by pass  2 Test12= 8.28D-15 1.19D-09 XBig12= 4.15D-05 1.17D-03.
     78 vectors produced by pass  3 Test12= 8.28D-15 1.19D-09 XBig12= 7.41D-08 3.01D-05.
     78 vectors produced by pass  4 Test12= 8.28D-15 1.19D-09 XBig12= 6.76D-11 8.34D-07.
     29 vectors produced by pass  5 Test12= 8.28D-15 1.19D-09 XBig12= 4.47D-14 2.26D-08.
 InvSVY:  IOpt=1 It=  1 EMax= 5.00D-16
 Solved reduced A of dimension   419 with    84 vectors.
 End of Minotr F.D. properties file   721 does not exist.
 End of Minotr F.D. properties file   722 does not exist.
 End of Minotr F.D. properties file   788 does not exist.

 **********************************************************************

            Population analysis using the SCF density.

 **********************************************************************

 Orbital symmetries:
       Occupied  (A) (A) (A) (A) (A) (A) (A) (A) (A) (A) (A) (A)
                 (A) (A) (A) (A) (A) (A) (A) (A) (A) (A) (A) (A)
                 (A) (A) (A) (A) (A) (A) (A) (A) (A) (A) (A) (A)
                 (A)
       Virtual   (A) (A) (A) (A) (A) (A) (A) (A) (A) (A) (A) (A)
                 (A) (A) (A) (A) (A) (A) (A) (A) (A) (A) (A) (A)
                 (A) (A) (A) (A) (A) (A) (A) (A) (A) (A) (A) (A)
                 (A) (A) (A) (A) (A) (A) (A) (A) (A) (A) (A) (A)
                 (A) (A) (A) (A) (A) (A) (A) (A) (A) (A) (A) (A)
                 (A) (A) (A) (A) (A) (A) (A) (A) (A) (A) (A) (A)
                 (A) (A) (A) (A) (A) (A) (A) (A) (A) (A) (A) (A)
                 (A) (A) (A) (A) (A) (A) (A) (A) (A) (A) (A) (A)
                 (A) (A) (A) (A) (A) (A) (A) (A) (A) (A) (A) (A)
                 (A) (A) (A) (A) (A) (A) (A) (A) (A) (A) (A) (A)
                 (A) (A) (A) (A) (A) (A) (A) (A) (A) (A) (A) (A)
                 (A) (A) (A) (A) (A) (A) (A) (A) (A) (A) (A) (A)
                 (A) (A) (A) (A) (A) (A) (A) (A) (A) (A) (A) (A)
                 (A) (A) (A) (A) (A) (A) (A) (A) (A) (A) (A) (A)
                 (A) (A) (A) (A) (A) (A) (A) (A) (A) (A) (A) (A)
                 (A) (A) (A) (A) (A) (A) (A) (A)
 The electronic state is 1-A.
 Alpha  occ. eigenvalues --  -14.30914 -14.30804 -10.19979 -10.19975 -10.19892
 Alpha  occ. eigenvalues --  -10.19868 -10.17467 -10.16760 -10.16511  -0.89795
 Alpha  occ. eigenvalues --   -0.89176  -0.76965  -0.73634  -0.71320  -0.64524
 Alpha  occ. eigenvalues --   -0.60271  -0.59387  -0.57015  -0.49348  -0.47885
 Alpha  occ. eigenvalues --   -0.45950  -0.44957  -0.43835  -0.42545  -0.40486
 Alpha  occ. eigenvalues --   -0.39334  -0.38664  -0.36873  -0.36627  -0.35627
 Alpha  occ. eigenvalues --   -0.34488  -0.34207  -0.33097  -0.32352  -0.31625
 Alpha  occ. eigenvalues --   -0.21963  -0.20946
 Alpha virt. eigenvalues --    0.08742   0.08972   0.10792   0.11590   0.12800
 Alpha virt. eigenvalues --    0.13422   0.14539   0.15114   0.16370   0.17182
 Alpha virt. eigenvalues --    0.17516   0.17674   0.17834   0.18714   0.19384
 Alpha virt. eigenvalues --    0.20644   0.21744   0.23147   0.23325   0.23978
 Alpha virt. eigenvalues --    0.24946   0.26286   0.26510   0.27694   0.29019
 Alpha virt. eigenvalues --    0.33667   0.49634   0.51270   0.53082   0.53610
 Alpha virt. eigenvalues --    0.54290   0.55841   0.56458   0.57228   0.58010
 Alpha virt. eigenvalues --    0.59804   0.60930   0.63340   0.64790   0.65768
 Alpha virt. eigenvalues --    0.66895   0.67708   0.68793   0.72044   0.76117
 Alpha virt. eigenvalues --    0.77516   0.78460   0.79838   0.81797   0.83178
 Alpha virt. eigenvalues --    0.84127   0.85956   0.86877   0.87464   0.87508
 Alpha virt. eigenvalues --    0.88262   0.89257   0.90312   0.90690   0.91872
 Alpha virt. eigenvalues --    0.93375   0.93857   0.95515   0.95564   0.96693
 Alpha virt. eigenvalues --    0.98727   0.99716   1.01209   1.03552   1.04816
 Alpha virt. eigenvalues --    1.09515   1.13628   1.16871   1.20939   1.28568
 Alpha virt. eigenvalues --    1.29609   1.34233   1.35615   1.41627   1.43753
 Alpha virt. eigenvalues --    1.49251   1.51292   1.55793   1.58267   1.61435
 Alpha virt. eigenvalues --    1.63650   1.65427   1.66856   1.67988   1.69878
 Alpha virt. eigenvalues --    1.72255   1.76511   1.79741   1.86296   1.87252
 Alpha virt. eigenvalues --    1.87714   1.89484   1.89862   1.90532   1.93452
 Alpha virt. eigenvalues --    1.96389   1.98162   2.01332   2.02669   2.02903
 Alpha virt. eigenvalues --    2.05155   2.06052   2.07319   2.08496   2.08648
 Alpha virt. eigenvalues --    2.10596   2.11762   2.13442   2.14529   2.15495
 Alpha virt. eigenvalues --    2.18114   2.20361   2.21853   2.23188   2.25936
 Alpha virt. eigenvalues --    2.27036   2.28072   2.29560   2.30985   2.32914
 Alpha virt. eigenvalues --    2.36205   2.38047   2.38925   2.40012   2.41597
 Alpha virt. eigenvalues --    2.43392   2.47021   2.49389   2.54136   2.55933
 Alpha virt. eigenvalues --    2.56239   2.60069   2.61053   2.64602   2.66776
 Alpha virt. eigenvalues --    2.68740   2.71968   2.72737   2.74194   2.76022
 Alpha virt. eigenvalues --    2.77484   2.78144   2.81108   2.82241   2.83008
 Alpha virt. eigenvalues --    2.85966   2.88798   2.89771   2.90519   2.92339
 Alpha virt. eigenvalues --    2.92981   2.94442   2.95187   2.96918   2.97311
 Alpha virt. eigenvalues --    3.01844   3.19964   3.20968   3.24515   3.28429
 Alpha virt. eigenvalues --    3.29966   3.32247   3.32701   3.36407   3.38950
 Alpha virt. eigenvalues --    3.40615   3.44796   3.46833   3.47287   3.49535
 Alpha virt. eigenvalues --    3.53543   3.56336   3.56690   3.59096   4.07527
 Alpha virt. eigenvalues --    4.13949   4.35076   4.37822   4.40165   4.52970
 Alpha virt. eigenvalues --    4.63012   4.63889   4.73050
          Condensed to atoms (all electrons):
               1          2          3          4          5          6
     1  C    5.013102   0.361420  -0.069491  -0.005061   0.000025   0.000014
     2  C    0.361420   4.759181   0.330544  -0.050593   0.004578  -0.000118
     3  N   -0.069491   0.330544   6.848770   0.302987  -0.046680   0.003172
     4  C   -0.005061  -0.050593   0.302987   4.806438   0.363394  -0.033959
     5  C    0.000025   0.004578  -0.046680   0.363394   4.993916   0.351156
     6  C    0.000014  -0.000118   0.003172  -0.033959   0.351156   4.820151
     7  N   -0.000000   0.000001  -0.000041   0.002795  -0.055665   0.303375
     8  C    0.000000  -0.000000   0.000003  -0.000197  -0.002073  -0.043019
     9  C    0.000000   0.000000   0.000000   0.000081   0.000274   0.000199
    10  H    0.386627  -0.034317  -0.002457   0.002032  -0.000139   0.000003
    11  H    0.386458  -0.034169  -0.003907  -0.000298  -0.000028  -0.000000
    12  H    0.357341  -0.023689   0.005280   0.000163   0.000001  -0.000000
    13  H   -0.053946   0.389383  -0.042395   0.005723  -0.000241   0.000001
    14  H   -0.046316   0.391951  -0.035507  -0.007769   0.000147  -0.000004
    15  H   -0.006085  -0.041029   0.343015  -0.039805  -0.003954  -0.000122
    16  H    0.005678  -0.000885  -0.057893   0.372332  -0.048632   0.001114
    17  H   -0.001370  -0.005458  -0.042091   0.385120  -0.030039  -0.005511
    18  H    0.000015   0.000111   0.005243  -0.033923   0.361616  -0.031511
    19  H   -0.000041   0.000079  -0.003971  -0.035683   0.386210  -0.036849
    20  H    0.000000   0.000001   0.000028  -0.005762  -0.036426   0.384372
    21  H   -0.000003   0.000008  -0.000047  -0.000537  -0.055994   0.374150
    22  H    0.000000  -0.000000   0.000001  -0.000163   0.005815  -0.034354
    23  H   -0.000000   0.000000   0.000002   0.000033  -0.002880  -0.007391
    24  H   -0.000000   0.000000  -0.000000   0.000001   0.000052   0.004220
    25  H    0.000000   0.000000  -0.000003   0.000038   0.001343   0.000121
    26  H   -0.000000  -0.000000   0.000000  -0.000002  -0.000101   0.000120
    27  H   -0.000000   0.000000  -0.000000  -0.000000  -0.000110  -0.000123
               7          8          9         10         11         12
     1  C   -0.000000   0.000000   0.000000   0.386627   0.386458   0.357341
     2  C    0.000001  -0.000000   0.000000  -0.034317  -0.034169  -0.023689
     3  N   -0.000041   0.000003   0.000000  -0.002457  -0.003907   0.005280
     4  C    0.002795  -0.000197   0.000081   0.002032  -0.000298   0.000163
     5  C   -0.055665  -0.002073   0.000274  -0.000139  -0.000028   0.000001
     6  C    0.303375  -0.043019   0.000199   0.000003  -0.000000  -0.000000
     7  N    6.875373   0.291831  -0.075211  -0.000000   0.000000   0.000000
     8  C    0.291831   4.800842   0.376632   0.000000  -0.000000  -0.000000
     9  C   -0.075211   0.376632   4.976633  -0.000000   0.000000   0.000000
    10  H   -0.000000   0.000000  -0.000000   0.599044  -0.033371  -0.029157
    11  H    0.000000  -0.000000   0.000000  -0.033371   0.602516  -0.029210
    12  H    0.000000  -0.000000   0.000000  -0.029157  -0.029210   0.621718
    13  H   -0.000000   0.000000  -0.000000   0.005617  -0.005008  -0.001297
    14  H    0.000000  -0.000000   0.000000  -0.005450   0.005170  -0.000601
    15  H    0.000001  -0.000003  -0.000002  -0.000186   0.005864   0.000050
    16  H   -0.000019  -0.000005  -0.000002   0.001219   0.000253  -0.000492
    17  H   -0.000045   0.000010  -0.000004   0.000383   0.000051   0.000031
    18  H    0.005680  -0.001691  -0.000197  -0.000002   0.000001  -0.000000
    19  H   -0.003243   0.005111  -0.002574   0.000020  -0.000005   0.000000
    20  H   -0.037581   0.006360  -0.000283   0.000001  -0.000000  -0.000000
    21  H   -0.051626  -0.012895  -0.000607  -0.000007   0.000000   0.000000
    22  H    0.339329  -0.035579   0.005548   0.000000   0.000000  -0.000000
    23  H   -0.044433   0.379797  -0.056583  -0.000000  -0.000000  -0.000000
    24  H   -0.031769   0.387795  -0.045311  -0.000000  -0.000000  -0.000000
    25  H   -0.000585  -0.035797   0.386579   0.000000  -0.000000  -0.000000
    26  H    0.002375  -0.032392   0.380178   0.000000  -0.000000  -0.000000
    27  H    0.005307  -0.028677   0.353987  -0.000000  -0.000000   0.000000
              13         14         15         16         17         18
     1  C   -0.053946  -0.046316  -0.006085   0.005678  -0.001370   0.000015
     2  C    0.389383   0.391951  -0.041029  -0.000885  -0.005458   0.000111
     3  N   -0.042395  -0.035507   0.343015  -0.057893  -0.042091   0.005243
     4  C    0.005723  -0.007769  -0.039805   0.372332   0.385120  -0.033923
     5  C   -0.000241   0.000147  -0.003954  -0.048632  -0.030039   0.361616
     6  C    0.000001  -0.000004  -0.000122   0.001114  -0.005511  -0.031511
     7  N   -0.000000   0.000000   0.000001  -0.000019  -0.000045   0.005680
     8  C    0.000000  -0.000000  -0.000003  -0.000005   0.000010  -0.001691
     9  C   -0.000000   0.000000  -0.000002  -0.000002  -0.000004  -0.000197
    10  H    0.005617  -0.005450  -0.000186   0.001219   0.000383  -0.000002
    11  H   -0.005008   0.005170   0.005864   0.000253   0.000051   0.000001
    12  H   -0.001297  -0.000601   0.000050  -0.000492   0.000031  -0.000000
    13  H    0.647109  -0.036417  -0.001762  -0.000356   0.000313  -0.000020
    14  H   -0.036417   0.617631   0.006176  -0.000935   0.006775  -0.000006
    15  H   -0.001762   0.006176   0.488088  -0.005364   0.006417  -0.000652
    16  H   -0.000356  -0.000935  -0.005364   0.699905  -0.052944   0.007048
    17  H    0.000313   0.006775   0.006417  -0.052944   0.633649  -0.007784
    18  H   -0.000020  -0.000006  -0.000652   0.007048  -0.007784   0.637911
    19  H    0.000011   0.000007   0.005463  -0.007800   0.005745  -0.042042
    20  H    0.000000  -0.000005   0.000013  -0.000685   0.005508  -0.006523
    21  H   -0.000000   0.000001   0.000008   0.005666  -0.000588   0.007069
    22  H    0.000000  -0.000000  -0.000000   0.000008  -0.000006  -0.000038
    23  H    0.000000  -0.000000  -0.000001   0.000035  -0.000000   0.000520
    24  H   -0.000000   0.000000   0.000000  -0.000000   0.000000   0.000001
    25  H   -0.000000   0.000000   0.000004   0.000003   0.000002   0.001477
    26  H    0.000000  -0.000000   0.000000   0.000000   0.000000   0.000123
    27  H    0.000000  -0.000000   0.000000   0.000000   0.000000   0.000053
              19         20         21         22         23         24
     1  C   -0.000041   0.000000  -0.000003   0.000000  -0.000000  -0.000000
     2  C    0.000079   0.000001   0.000008  -0.000000   0.000000   0.000000
     3  N   -0.003971   0.000028  -0.000047   0.000001   0.000002  -0.000000
     4  C   -0.035683  -0.005762  -0.000537  -0.000163   0.000033   0.000001
     5  C    0.386210  -0.036426  -0.055994   0.005815  -0.002880   0.000052
     6  C   -0.036849   0.384372   0.374150  -0.034354  -0.007391   0.004220
     7  N   -0.003243  -0.037581  -0.051626   0.339329  -0.044433  -0.031769
     8  C    0.005111   0.006360  -0.012895  -0.035579   0.379797   0.387795
     9  C   -0.002574  -0.000283  -0.000607   0.005548  -0.056583  -0.045311
    10  H    0.000020   0.000001  -0.000007   0.000000  -0.000000  -0.000000
    11  H   -0.000005  -0.000000   0.000000   0.000000  -0.000000  -0.000000
    12  H    0.000000  -0.000000   0.000000  -0.000000  -0.000000  -0.000000
    13  H    0.000011   0.000000  -0.000000   0.000000   0.000000  -0.000000
    14  H    0.000007  -0.000005   0.000001  -0.000000  -0.000000   0.000000
    15  H    0.005463   0.000013   0.000008  -0.000000  -0.000001   0.000000
    16  H   -0.007800  -0.000685   0.005666   0.000008   0.000035  -0.000000
    17  H    0.005745   0.005508  -0.000588  -0.000006  -0.000000   0.000000
    18  H   -0.042042  -0.006523   0.007069  -0.000038   0.000520   0.000001
    19  H    0.625802   0.005934  -0.007116  -0.000047   0.001144  -0.000058
    20  H    0.005934   0.641905  -0.045828  -0.005224   0.000188  -0.000333
    21  H   -0.007116  -0.045828   0.698418  -0.003739   0.012077   0.000716
    22  H   -0.000047  -0.005224  -0.003739   0.487662   0.002838  -0.012018
    23  H    0.001144   0.000188   0.012077   0.002838   0.656314  -0.035300
    24  H   -0.000058  -0.000333   0.000716  -0.012018  -0.035300   0.636029
    25  H    0.001412  -0.000075   0.000139  -0.000121  -0.004702   0.005577
    26  H    0.000015   0.000016   0.000033   0.000222   0.005709  -0.005378
    27  H    0.000118   0.000004   0.000065  -0.000298   0.002218  -0.001506
              25         26         27
     1  C    0.000000  -0.000000  -0.000000
     2  C    0.000000  -0.000000   0.000000
     3  N   -0.000003   0.000000  -0.000000
     4  C    0.000038  -0.000002  -0.000000
     5  C    0.001343  -0.000101  -0.000110
     6  C    0.000121   0.000120  -0.000123
     7  N   -0.000585   0.002375   0.005307
     8  C   -0.035797  -0.032392  -0.028677
     9  C    0.386579   0.380178   0.353987
    10  H    0.000000   0.000000  -0.000000
    11  H   -0.000000  -0.000000  -0.000000
    12  H   -0.000000  -0.000000   0.000000
    13  H   -0.000000   0.000000   0.000000
    14  H    0.000000  -0.000000  -0.000000
    15  H    0.000004   0.000000   0.000000
    16  H    0.000003   0.000000   0.000000
    17  H    0.000002   0.000000   0.000000
    18  H    0.001477   0.000123   0.000053
    19  H    0.001412   0.000015   0.000118
    20  H   -0.000075   0.000016   0.000004
    21  H    0.000139   0.000033   0.000065
    22  H   -0.000121   0.000222  -0.000298
    23  H   -0.004702   0.005709   0.002218
    24  H    0.005577  -0.005378  -0.001506
    25  H    0.600280  -0.031611  -0.029575
    26  H   -0.031611   0.608058  -0.028837
    27  H   -0.029575  -0.028837   0.636368
 Mulliken charges:
               1
     1  C   -0.328368
     2  C   -0.047000
     3  N   -0.534562
     4  C   -0.027384
     5  C   -0.185564
     6  C   -0.049205
     7  N   -0.525850
     8  C   -0.056053
     9  C   -0.299337
    10  H    0.110140
    11  H    0.105683
    12  H    0.099863
    13  H    0.093285
    14  H    0.105153
    15  H    0.243867
    16  H    0.082751
    17  H    0.101833
    18  H    0.097522
    19  H    0.102360
    20  H    0.094396
    21  H    0.080635
    22  H    0.250163
    23  H    0.090415
    24  H    0.097282
    25  H    0.105497
    26  H    0.101472
    27  H    0.091006
 Sum of Mulliken charges =  -0.00000
 Mulliken charges with hydrogens summed into heavy atoms:
               1
     1  C   -0.012682
     2  C    0.151438
     3  N   -0.290696
     4  C    0.157200
     5  C    0.014317
     6  C    0.125826
     7  N   -0.275687
     8  C    0.131644
     9  C   -0.001361
 APT charges:
               1
     1  C   -1.198026
     2  C   -0.951721
     3  N   -0.567854
     4  C   -0.501937
     5  C   -0.562414
     6  C   -0.571502
     7  N   -1.002919
     8  C   -0.779124
     9  C   -1.077383
    10  H    0.122532
    11  H    0.300282
    12  H    0.783850
    13  H    0.567738
    14  H    0.427571
    15  H    0.368112
    16  H    0.279510
    17  H    0.379722
    18  H    0.317747
    19  H    0.261336
    20  H    0.379754
    21  H    0.304788
    22  H    0.784480
    23  H    0.122302
    24  H    0.696567
    25  H   -0.021830
    26  H    0.576169
    27  H    0.562251
 Sum of APT charges =  -0.00000
 APT charges with hydrogens summed into heavy atoms:
               1
     1  C    0.008638
     2  C    0.043588
     3  N   -0.199742
     4  C    0.157295
     5  C    0.016669
     6  C    0.113040
     7  N   -0.218439
     8  C    0.039745
     9  C    0.039207
 Electronic spatial extent (au):  <R**2>=           2451.5203
 Charge=              0.0000 electrons
 Dipole moment (field-independent basis, Debye):
    X=             -0.2592    Y=             -0.9219    Z=              2.3887  Tot=              2.5735
 Quadrupole moment (field-independent basis, Debye-Ang):
   XX=            -56.2542   YY=            -56.2902   ZZ=            -62.6740
   XY=             -2.2278   XZ=              1.9659   YZ=              1.6593
 Traceless Quadrupole moment (field-independent basis, Debye-Ang):
   XX=              2.1520   YY=              2.1159   ZZ=             -4.2679
   XY=             -2.2278   XZ=              1.9659   YZ=              1.6593
 Octapole moment (field-independent basis, Debye-Ang**2):
  XXX=              1.6950  YYY=             -5.6148  ZZZ=              2.1107  XYY=              3.5939
  XXY=             -9.8446  XXZ=             11.4562  XZZ=              1.5491  YZZ=             -1.4878
  YYZ=              1.0072  XYZ=             -4.9934
 Hexadecapole moment (field-independent basis, Debye-Ang**3):
 XXXX=          -2668.3915 YYYY=           -328.8472 ZZZZ=           -213.8013 XXXY=            -48.1164
 XXXZ=             44.7362 YYYX=            -36.1161 YYYZ=              6.7188 ZZZX=              2.4902
 ZZZY=              2.4804 XXYY=           -493.5992 XXZZ=           -516.1007 YYZZ=            -91.5931
 XXYZ=              2.3470 YYXZ=              1.0031 ZZXY=              3.6073
 N-N= 4.710661968625D+02 E-N=-1.838849304962D+03  KE= 3.834017457495D+02
  Exact polarizability:   0.000   0.000   0.000   0.000   0.000   0.000
 Approx polarizability: 124.930   0.217 120.891   1.494   3.432 113.108
 D2PCM: PCM CHGder 2nd derivatives, FixD1E=F FixD2E=F DoIter=F DoCFld=F I1PDM=0
 Calling FoFJK, ICntrl=    100147 FMM=F ISym2X=0 I1Cent= 0 IOpClX= 0 NMat=1 NMatS=1 NMatT=0.
 ***** Axes restored to original set *****
 -------------------------------------------------------------------
 Center     Atomic                   Forces (Hartrees/Bohr)
 Number     Number              X              Y              Z
 -------------------------------------------------------------------
      1        6           0.008515053   -0.005775421   -0.000761294
      2        6          -0.001403067    0.007241806   -0.011769501
      3        7           0.003138727    0.004353450    0.017550404
      4        6          -0.009226212    0.007689639   -0.009622828
      5        6           0.000245780   -0.006086537    0.003394176
      6        6          -0.003464553    0.000649482    0.006605358
      7        7           0.003096267   -0.003750686    0.005200997
      8        6          -0.009599380    0.002052579    0.005977689
      9        6          -0.003843859    0.004535272   -0.006908240
     10        1          -0.000280090   -0.000551738   -0.001009228
     11        1          -0.000378334    0.000464177   -0.000019157
     12        1           0.000979111   -0.001737622   -0.001634312
     13        1           0.001575614    0.001634293    0.000607470
     14        1          -0.004403143    0.000005068    0.001533273
     15        1           0.001661934   -0.002249535    0.001144089
     16        1          -0.000891261   -0.007978259    0.002202124
     17        1           0.002764569    0.001257986   -0.000941867
     18        1           0.000133678   -0.000900119   -0.000690498
     19        1          -0.000076328    0.000696266   -0.000367637
     20        1           0.000455320   -0.000191014    0.000622648
     21        1           0.004751328   -0.002749460   -0.005234753
     22        1           0.003119774    0.002707932   -0.001932153
     23        1           0.002620894   -0.001120496   -0.002199119
     24        1          -0.000128383   -0.000832419   -0.001013376
     25        1           0.000217878    0.000055619    0.000562462
     26        1           0.001181272   -0.001069364    0.000210071
     27        1          -0.000762590    0.001649102   -0.001506799
 -------------------------------------------------------------------
 Cartesian Forces:  Max     0.017550404 RMS     0.004262852
 FormGI is forming the generalized inverse of G from B-inverse, IUseBI=4.

 GradGradGradGradGradGradGradGradGradGradGradGradGradGradGradGradGradGrad
 Berny optimization.
 Internal  Forces:  Max     0.012554067 RMS     0.003097488
 Search for a local minimum.
 Step number   1 out of a maximum of  144
 All quantities printed in internal units (Hartrees-Bohrs-Radians)
 Mixed Optimization -- RFO/linear search
 Second derivative matrix not updated -- analytic derivatives used.
 ITU=  0
     Eigenvalues ---    0.00127   0.00156   0.00245   0.00276   0.00284
     Eigenvalues ---    0.00359   0.00388   0.00606   0.02076   0.02385
     Eigenvalues ---    0.03605   0.03990   0.04412   0.04440   0.04467
     Eigenvalues ---    0.04544   0.04598   0.04643   0.04652   0.04744
     Eigenvalues ---    0.04866   0.05169   0.05335   0.05392   0.06573
     Eigenvalues ---    0.08147   0.08351   0.08472   0.08811   0.09689
     Eigenvalues ---    0.10594   0.11026   0.11915   0.11962   0.12393
     Eigenvalues ---    0.12440   0.13179   0.13537   0.13788   0.14088
     Eigenvalues ---    0.16016   0.16245   0.16995   0.21721   0.23315
     Eigenvalues ---    0.24091   0.24646   0.24801   0.25917   0.27583
     Eigenvalues ---    0.29241   0.29827   0.30147   0.31602   0.32202
     Eigenvalues ---    0.32630   0.32719   0.32805   0.32877   0.33089
     Eigenvalues ---    0.33162   0.33607   0.33652   0.33686   0.33778
     Eigenvalues ---    0.33838   0.33928   0.34581   0.34594   0.35707
     Eigenvalues ---    0.36266   0.39537   0.40442   0.43118   0.43595
 RFO step:  Lambda=-6.06361074D-03 EMin= 1.27435301D-03
 Linear search not attempted -- first point.
 Iteration  1 RMS(Cart)=  0.05715669 RMS(Int)=  0.00126326
 Iteration  2 RMS(Cart)=  0.00332447 RMS(Int)=  0.00021832
 Iteration  3 RMS(Cart)=  0.00000728 RMS(Int)=  0.00021831
 Iteration  4 RMS(Cart)=  0.00000000 RMS(Int)=  0.00021831
 Variable       Old X    -DE/DX   Delta X   Delta X   Delta X     New X
                                 (Linear)    (Quad)   (Total)
    R1        2.87700   0.00947   0.00000   0.02382   0.02382   2.90082
    R2        2.06754   0.00039   0.00000   0.00085   0.00085   2.06839
    R3        2.06944   0.00029   0.00000   0.00222   0.00222   2.07166
    R4        2.06918   0.00124   0.00000   0.00129   0.00129   2.07048
    R5        2.76188   0.00558   0.00000   0.00927   0.00927   2.77116
    R6        2.07120   0.00197   0.00000   0.00278   0.00278   2.07397
    R7        2.07150  -0.00043   0.00000   0.00205   0.00205   2.07355
    R8        2.76386   0.00453   0.00000   0.00604   0.00604   2.76990
    R9        1.92645  -0.00211   0.00000  -0.00035  -0.00035   1.92610
   R10        2.89546   0.00133   0.00000  -0.00252  -0.00252   2.89294
   R11        2.07027   0.00541   0.00000   0.01675   0.01675   2.08703
   R12        2.07187   0.00004   0.00000   0.00374   0.00374   2.07560
   R13        2.89441  -0.00014   0.00000  -0.00064  -0.00064   2.89377
   R14        2.07400  -0.00114   0.00000  -0.00238  -0.00238   2.07162
   R15        2.07202   0.00048   0.00000   0.00290   0.00290   2.07491
   R16        2.77217   0.00445   0.00000   0.00212   0.00212   2.77429
   R17        2.07267   0.00078   0.00000   0.00119   0.00119   2.07385
   R18        2.07318   0.00552   0.00000   0.01750   0.01750   2.09067
   R19        2.76546   0.01028   0.00000   0.02143   0.02143   2.78689
   R20        1.92874  -0.00422   0.00000  -0.00998  -0.00998   1.91876
   R21        2.87409   0.00695   0.00000   0.01896   0.01896   2.89305
   R22        2.07140   0.00337   0.00000   0.01162   0.01162   2.08302
   R23        2.07245   0.00040   0.00000  -0.00061  -0.00061   2.07184
   R24        2.06702   0.00011   0.00000   0.00032   0.00032   2.06734
   R25        2.07007  -0.00082   0.00000  -0.00133  -0.00133   2.06875
   R26        2.06903   0.00177   0.00000   0.00211   0.00211   2.07114
    A1        1.95116   0.00095   0.00000   0.00339   0.00334   1.95450
    A2        1.94068  -0.00166   0.00000  -0.00888  -0.00887   1.93181
    A3        1.91865   0.00337   0.00000   0.01232   0.01229   1.93094
    A4        1.89170  -0.00032   0.00000  -0.00667  -0.00669   1.88501
    A5        1.87814  -0.00163   0.00000   0.00041   0.00034   1.87848
    A6        1.88105  -0.00082   0.00000  -0.00063  -0.00060   1.88046
    A7        1.97843   0.01255   0.00000   0.04971   0.04947   2.02790
    A8        1.88833  -0.00245   0.00000   0.01151   0.01085   1.89918
    A9        1.92611  -0.00201   0.00000  -0.01046  -0.00977   1.91634
   A10        1.87735  -0.00212   0.00000   0.00022  -0.00092   1.87643
   A11        1.93438  -0.00822   0.00000  -0.05593  -0.05571   1.87867
   A12        1.85369   0.00171   0.00000   0.00429   0.00409   1.85778
   A13        1.97308   0.01036   0.00000   0.02863   0.02872   2.00180
   A14        1.92092  -0.00397   0.00000  -0.02334  -0.02319   1.89773
   A15        1.92120  -0.00393   0.00000  -0.02601  -0.02587   1.89533
   A16        1.91731   0.00438   0.00000   0.01688   0.01642   1.93374
   A17        1.93240   0.00351   0.00000   0.04426   0.04399   1.97639
   A18        1.91744  -0.00505   0.00000  -0.03768  -0.03742   1.88003
   A19        1.90328  -0.00314   0.00000  -0.00196  -0.00288   1.90040
   A20        1.90672   0.00098   0.00000   0.00582   0.00591   1.91263
   A21        1.88622  -0.00079   0.00000  -0.02811  -0.02774   1.85848
   A22        1.93190   0.00534   0.00000   0.02881   0.02877   1.96067
   A23        1.91521  -0.00162   0.00000  -0.00484  -0.00491   1.91030
   A24        1.90401  -0.00169   0.00000  -0.00541  -0.00542   1.89859
   A25        1.91407  -0.00157   0.00000  -0.00435  -0.00442   1.90966
   A26        1.92221  -0.00129   0.00000  -0.00689  -0.00693   1.91528
   A27        1.87555   0.00066   0.00000  -0.00852  -0.00860   1.86695
   A28        1.99054  -0.00175   0.00000  -0.01195  -0.01192   1.97863
   A29        1.89282   0.00056   0.00000   0.00380   0.00379   1.89661
   A30        1.92770  -0.00337   0.00000  -0.02739  -0.02727   1.90043
   A31        1.87045   0.00009   0.00000  -0.00100  -0.00108   1.86937
   A32        1.92033   0.00447   0.00000   0.03437   0.03424   1.95457
   A33        1.85602   0.00017   0.00000   0.00358   0.00340   1.85943
   A34        1.98362   0.00720   0.00000   0.02535   0.02537   2.00898
   A35        1.88272  -0.00296   0.00000  -0.01001  -0.01000   1.87272
   A36        1.89383  -0.00150   0.00000  -0.00565  -0.00560   1.88823
   A37        1.93288   0.00948   0.00000   0.03656   0.03646   1.96933
   A38        1.96550  -0.00424   0.00000  -0.02557  -0.02541   1.94009
   A39        1.89109  -0.00182   0.00000  -0.00031  -0.00083   1.89026
   A40        1.93330  -0.00324   0.00000  -0.01752  -0.01726   1.91604
   A41        1.88414  -0.00163   0.00000   0.00731   0.00699   1.89113
   A42        1.85292   0.00113   0.00000  -0.00049  -0.00053   1.85240
   A43        1.95437  -0.00047   0.00000  -0.00500  -0.00505   1.94931
   A44        1.93843  -0.00205   0.00000  -0.01035  -0.01040   1.92804
   A45        1.92002   0.00275   0.00000   0.01011   0.01012   1.93015
   A46        1.88664   0.00040   0.00000  -0.00435  -0.00445   1.88219
   A47        1.88159  -0.00075   0.00000   0.00236   0.00237   1.88396
   A48        1.88027   0.00014   0.00000   0.00787   0.00789   1.88816
    D1       -1.15119   0.00288   0.00000   0.04471   0.04494  -1.10625
    D2        3.05148  -0.00057   0.00000   0.00590   0.00565   3.05714
    D3        1.03026  -0.00012   0.00000  -0.00011  -0.00005   1.03020
    D4        0.96572   0.00197   0.00000   0.03227   0.03250   0.99821
    D5       -1.11479  -0.00148   0.00000  -0.00654  -0.00679  -1.12158
    D6       -3.13602  -0.00103   0.00000  -0.01255  -0.01249   3.13467
    D7        3.04733   0.00208   0.00000   0.03385   0.03404   3.08137
    D8        0.96682  -0.00137   0.00000  -0.00496  -0.00525   0.96157
    D9       -1.05440  -0.00093   0.00000  -0.01097  -0.01096  -1.06536
   D10        1.30781  -0.00163   0.00000  -0.09629  -0.09662   1.21119
   D11       -0.84838  -0.00099   0.00000  -0.06543  -0.06573  -0.91411
   D12       -2.88857   0.00153   0.00000  -0.05150  -0.05159  -2.94017
   D13        1.23842   0.00217   0.00000  -0.02065  -0.02070   1.21772
   D14       -0.86918  -0.00204   0.00000  -0.07614  -0.07577  -0.94494
   D15       -3.02537  -0.00139   0.00000  -0.04528  -0.04488  -3.07025
   D16        3.10446   0.00029   0.00000  -0.00520  -0.00557   3.09889
   D17       -1.07555   0.00148   0.00000   0.03177   0.03232  -1.04323
   D18        1.00651  -0.00051   0.00000   0.00067   0.00058   1.00709
   D19       -1.02269  -0.00038   0.00000  -0.03458  -0.03500  -1.05769
   D20        1.08049   0.00082   0.00000   0.00239   0.00289   1.08338
   D21       -3.12064  -0.00118   0.00000  -0.02870  -0.02886   3.13369
   D22       -3.13798   0.00268   0.00000   0.02268   0.02267  -3.11532
   D23       -1.02303   0.00311   0.00000   0.03273   0.03271  -0.99032
   D24        1.02745   0.00199   0.00000   0.01648   0.01646   1.04391
   D25        1.02450  -0.00240   0.00000  -0.04126  -0.04123   0.98326
   D26        3.13945  -0.00198   0.00000  -0.03122  -0.03119   3.10826
   D27       -1.09326  -0.00309   0.00000  -0.04747  -0.04744  -1.14069
   D28       -1.03354  -0.00020   0.00000  -0.00958  -0.00960  -1.04314
   D29        1.08141   0.00022   0.00000   0.00046   0.00045   1.08186
   D30        3.13189  -0.00089   0.00000  -0.01579  -0.01580   3.11609
   D31        3.06186  -0.00086   0.00000  -0.00391  -0.00395   3.05791
   D32        0.97937  -0.00026   0.00000   0.00227   0.00229   0.98166
   D33       -1.04812   0.00109   0.00000   0.01096   0.01101  -1.03710
   D34        0.94623  -0.00125   0.00000  -0.01364  -0.01368   0.93255
   D35       -1.13626  -0.00065   0.00000  -0.00746  -0.00745  -1.14370
   D36        3.11944   0.00069   0.00000   0.00123   0.00128   3.12072
   D37       -1.11435  -0.00034   0.00000   0.00355   0.00349  -1.11087
   D38        3.08634   0.00027   0.00000   0.00973   0.00972   3.09607
   D39        1.05886   0.00161   0.00000   0.01842   0.01845   1.07731
   D40        1.17749  -0.00028   0.00000   0.05118   0.05110   1.22859
   D41       -3.00510   0.00030   0.00000   0.05306   0.05296  -2.95215
   D42       -3.01059  -0.00059   0.00000   0.04791   0.04785  -2.96274
   D43       -0.91000  -0.00001   0.00000   0.04979   0.04971  -0.86030
   D44       -0.99966   0.00196   0.00000   0.06923   0.06940  -0.93026
   D45        1.10093   0.00253   0.00000   0.07111   0.07125   1.17218
   D46       -1.87281   0.00104   0.00000   0.03407   0.03419  -1.83861
   D47        0.30276   0.00089   0.00000   0.01996   0.01987   0.32263
   D48        2.34698  -0.00137   0.00000   0.00417   0.00417   2.35115
   D49        2.31606   0.00124   0.00000   0.03448   0.03458   2.35065
   D50       -1.79155   0.00109   0.00000   0.02037   0.02026  -1.77129
   D51        0.25267  -0.00117   0.00000   0.00458   0.00456   0.25722
   D52        1.09461  -0.00172   0.00000  -0.02258  -0.02269   1.07192
   D53       -1.01647  -0.00047   0.00000  -0.00629  -0.00646  -1.02293
   D54       -3.09659  -0.00111   0.00000  -0.01605  -0.01618  -3.11276
   D55       -1.09914  -0.00083   0.00000  -0.00343  -0.00339  -1.10253
   D56        3.07297   0.00042   0.00000   0.01286   0.01284   3.08580
   D57        0.99285  -0.00022   0.00000   0.00311   0.00312   0.99597
   D58       -3.12095   0.00053   0.00000   0.00246   0.00261  -3.11834
   D59        1.05116   0.00178   0.00000   0.01875   0.01884   1.07000
   D60       -1.02896   0.00113   0.00000   0.00899   0.00912  -1.01984
         Item               Value     Threshold  Converged?
 Maximum Force            0.012554     0.000450     NO 
 RMS     Force            0.003097     0.000300     NO 
 Maximum Displacement     0.190590     0.001800     NO 
 RMS     Displacement     0.058890     0.001200     NO 
 Predicted change in Energy=-3.293686D-03
 GradGradGradGradGradGradGradGradGradGradGradGradGradGradGradGradGradGrad

                          Input orientation:                          
 ---------------------------------------------------------------------
 Center     Atomic      Atomic             Coordinates (Angstroms)
 Number     Number       Type             X           Y           Z
 ---------------------------------------------------------------------
      1          6           0        3.790810   -0.213298   -1.655359
      2          6           0        3.375763    0.804423   -0.583749
      3          7           0        1.933997    1.000290   -0.401075
      4          6           0        1.231711   -0.140042    0.194671
      5          6           0       -0.250804    0.181709    0.400127
      6          6           0       -1.011819   -0.974178    1.055652
      7          7           0       -2.409706   -0.649627    1.365285
      8          6           0       -3.295131   -0.514963    0.193618
      9          6           0       -3.646554    0.941453   -0.121224
     10          1           0        3.453081   -1.225540   -1.411780
     11          1           0        3.370803    0.058478   -2.630832
     12          1           0        4.881245   -0.242998   -1.757912
     13          1           0        3.812461    1.779742   -0.833855
     14          1           0        3.797625    0.514947    0.386949
     15          1           0        1.513861    1.203393   -1.307223
     16          1           0        1.317300   -1.064978   -0.402726
     17          1           0        1.700539   -0.351390    1.165203
     18          1           0       -0.346768    1.079911    1.021249
     19          1           0       -0.699941    0.416226   -0.573976
     20          1           0       -0.520760   -1.224690    2.004583
     21          1           0       -0.927374   -1.869591    0.411381
     22          1           0       -2.770462   -1.396481    1.950972
     23          1           0       -2.853266   -0.992798   -0.696026
     24          1           0       -4.225092   -1.057500    0.400629
     25          1           0       -2.755672    1.529734   -0.360120
     26          1           0       -4.138202    1.410749    0.736963
     27          1           0       -4.327645    0.997020   -0.978103
 ---------------------------------------------------------------------
                    Distance matrix (angstroms):
                    1          2          3          4          5
     1  C    0.000000
     2  C    1.535047   0.000000
     3  N    2.548290   1.466432   0.000000
     4  C    3.158634   2.468788   1.465769   0.000000
     5  C    4.551450   3.808907   2.466851   1.530877   0.000000
     6  C    5.567205   5.010184   3.833851   2.543717   1.531317
     7  N    6.910939   6.275719   4.970917   3.858748   2.506693
     8  C    7.329412   6.844407   5.476626   4.542341   3.129845
     9  C    7.681237   7.038866   5.587873   5.006684   3.518542
    10  H    1.094544   2.193710   2.878100   2.948470   4.356847
    11  H    1.096273   2.178763   2.814824   3.549450   4.724186
    12  H    1.095649   2.177665   3.474628   4.140324   5.583496
    13  H    2.155817   1.097500   2.079296   3.376938   4.537240
    14  H    2.168273   1.097277   2.080781   2.655164   4.062142
    15  H    2.704202   2.036976   1.019250   2.034727   2.659497
    16  H    2.900466   2.786521   2.155377   1.104407   2.158182
    17  H    3.513385   2.683489   2.082011   1.098362   2.162701
    18  H    5.094721   4.063146   2.689096   2.159424   1.096252
    19  H    4.661817   4.094161   2.703452   2.152099   1.097997
    20  H    5.745236   5.098986   4.094333   2.742881   2.150607
    21  H    5.410729   5.163103   4.133249   2.774878   2.160024
    22  H    7.579963   7.003204   5.780014   4.547594   3.353279
    23  H    6.758084   6.484090   5.193966   4.267033   3.058403
    24  H    8.318321   7.887253   6.543058   5.537224   4.163004
    25  H    6.897263   6.178235   4.719638   4.358345   2.944404
    26  H    8.439785   7.653207   6.191543   5.615603   4.090949
    27  H    8.236071   7.715900   6.288174   5.794372   4.380056
                    6          7          8          9         10
     6  C    0.000000
     7  N    1.468092   0.000000
     8  C    2.483444   1.474760   0.000000
     9  C    3.463597   2.504204   1.530937   0.000000
    10  H    5.107518   6.512760   6.972847   7.534335   0.000000
    11  H    5.819271   7.062907   7.262302   7.504736   1.772445
    12  H    6.571071   7.942146   8.410443   8.763847   1.767724
    13  H    5.867538   7.032313   7.539180   7.539726   3.081375
    14  H    5.078918   6.390957   7.169747   7.473683   2.526545
    15  H    4.087059   5.096113   5.322750   5.301423   3.109859
    16  H    2.749529   4.145957   4.683232   5.361422   2.367600
    17  H    2.785095   4.125905   5.091901   5.649578   3.236724
    18  H    2.159342   2.713922   3.452744   3.494710   5.066912
    19  H    2.164758   2.796440   2.862049   3.027107   4.543666
    20  H    1.097436   2.075455   3.388280   4.356812   5.240511
    21  H    1.106336   2.143724   2.736551   3.947097   4.788226
    22  H    2.018108   1.015364   2.034858   3.244606   7.076002
    23  H    2.541584   2.136239   1.102287   2.168185   6.351102
    24  H    3.280414   2.095840   1.096370   2.145425   7.890970
    25  H    3.363779   2.801131   2.185962   1.093991   6.873583
    26  H    3.945086   2.761818   2.171258   1.094734   8.318335
    27  H    4.360789   3.446941   2.173731   1.095999   8.103552
                   11         12         13         14         15
    11  H    0.000000
    12  H    1.770399   0.000000
    13  H    2.527239   2.467318   0.000000
    14  H    3.081808   2.519750   1.757922   0.000000
    15  H    2.551667   3.692485   2.416572   2.925706   0.000000
    16  H    3.231638   3.900498   3.808429   3.044957   2.449950
    17  H    4.167452   4.321254   3.605299   2.398747   2.926618
    18  H    5.310495   6.066791   4.607643   4.230546   2.983115
    19  H    4.574887   5.743336   4.721068   4.600132   2.461341
    20  H    6.186910   6.655956   5.988335   4.928643   4.582939
    21  H    5.607748   6.410280   6.110179   5.292658   4.284444
    22  H    7.799036   8.581081   7.821670   7.017085   5.977508
    23  H    6.602098   7.842988   7.220658   6.905106   4.926319
    24  H    8.254259   9.394045   8.612558   8.175375   6.400311
    25  H    6.697344   7.963599   6.589940   6.673350   4.385478
    26  H    8.340014   9.503141   8.112747   7.993892   6.013942
    27  H    7.929595   9.324666   8.178924   8.253228   5.854409
                   16         17         18         19         20
    16  H    0.000000
    17  H    1.764789   0.000000
    18  H    3.065514   2.502162   0.000000
    19  H    2.508495   3.062071   1.763506   0.000000
    20  H    3.033004   2.530095   2.511653   3.061646   0.000000
    21  H    2.519670   3.127156   3.067345   2.499523   1.766218
    22  H    4.728592   4.658271   3.587644   3.734745   2.256888
    23  H    4.181490   4.961121   3.678000   2.576248   3.575982
    24  H    5.600316   6.016333   4.471587   3.943148   4.040135
    25  H    4.829435   5.071790   2.813066   2.347694   4.263039
    26  H    6.098410   6.113871   3.816443   3.811729   4.651696
    27  H    6.037242   6.538423   4.455520   3.696063   5.322103
                   21         22         23         24         25
    21  H    0.000000
    22  H    2.447681   0.000000
    23  H    2.388342   2.678882   0.000000
    24  H    3.396255   2.152770   1.757482   0.000000
    25  H    3.936153   3.728820   2.546670   3.071110   0.000000
    26  H    4.601744   3.350384   3.079213   2.492574   1.768936
    27  H    4.659396   4.090617   2.492536   2.476383   1.771098
                   26         27
    26  H    0.000000
    27  H    1.774404   0.000000
 Stoichiometry    C7H18N2
 Framework group  C1[X(C7H18N2)]
 Deg. of freedom    75
 Full point group                 C1      NOp   1
 Largest Abelian subgroup         C1      NOp   1
 Largest concise Abelian subgroup C1      NOp   1
                         Standard orientation:                         
 ---------------------------------------------------------------------
 Center     Atomic      Atomic             Coordinates (Angstroms)
 Number     Number       Type             X           Y           Z
 ---------------------------------------------------------------------
      1          6           0       -4.064548    0.095834    0.933041
      2          6           0       -3.493323    0.286440   -0.478958
      3          7           0       -2.064259    0.604860   -0.561454
      4          6           0       -1.169451   -0.493124   -0.184325
      5          6           0        0.295551   -0.085174   -0.360199
      6          6           0        1.261853   -1.220507   -0.010609
      7          7           0        2.667541   -0.891594   -0.277354
      8          6           0        3.258537    0.110570    0.628906
      9          6           0        3.428917    1.481328   -0.031218
     10          1           0       -3.611514   -0.758064    1.446506
     11          1           0       -3.892037    0.989301    1.544411
     12          1           0       -5.145693   -0.077063    0.892088
     13          1           0       -4.041483    1.096913   -0.976109
     14          1           0       -3.667468   -0.617881   -1.075527
     15          1           0       -1.871422    1.403204    0.042145
     16          1           0       -1.321245   -0.842503    0.852307
     17          1           0       -1.394740   -1.347187   -0.837182
     18          1           0        0.464574    0.231222   -1.396101
     19          1           0        0.499286    0.784845    0.277891
     20          1           0        1.012864   -2.095302   -0.624697
     21          1           0        1.098688   -1.518178    1.042362
     22          1           0        3.200615   -1.751340   -0.189985
     23          1           0        2.664160    0.212174    1.551635
     24          1           0        4.246677   -0.247580    0.940891
     25          1           0        2.468503    1.901664   -0.343851
     26          1           0        4.065302    1.402496   -0.918484
     27          1           0        3.896745    2.188212    0.663524
 ---------------------------------------------------------------------
 Rotational constants (GHZ):           3.7175835           0.4952364           0.4717111
 Standard basis: 6-31G(d,p) (6D, 7F)
 There are   225 symmetry adapted cartesian basis functions of A   symmetry.
 There are   225 symmetry adapted basis functions of A   symmetry.
   225 basis functions,   378 primitive gaussians,   225 cartesian basis functions
    37 alpha electrons       37 beta electrons
       nuclear repulsion energy       468.0282057239 Hartrees.
 NAtoms=   27 NActive=   27 NUniq=   27 SFac= 1.00D+00 NAtFMM=   60 NAOKFM=F Big=F
 Integral buffers will be    131072 words long.
 Raffenetti 2 integral format.
 Two-electron integral symmetry is turned on.
 ------------------------------------------------------------------------------
 Polarizable Continuum Model (PCM)
 =================================
 Model                : PCM.
 Atomic radii         : UFF (Universal Force Field).
 Polarization charges : Total charges.
 Charge compensation  : None.
 Solution method      : Matrix inversion.
 Cavity type          : Scaled VdW (van der Waals Surface) (Alpha=1.100).
 Cavity algorithm     : GePol (No added spheres)
                        Default sphere list used, NSphG=   27.
                        Lebedev-Laikov grids with approx.  5.0 points / Ang**2.
                        Smoothing algorithm: York/Karplus (Gamma=1.0000).
                        Polarization charges: spherical gaussians, with
                                              point-specific exponents (IZeta= 3).
                        Self-potential: point-specific (ISelfS= 7).
                        Self-field    : sphere-specific E.n sum rule (ISelfD= 2).
 1st derivatives      : Analytical E(r).r(x)/FMM algorithm (CHGder, D1EAlg=3).
                        Cavity 1st derivative terms included.
[...]
    21  H    0.138499
    22  H   -0.133996
    23  H    0.126999
    24  H   -0.053594
    25  H    0.121688
    26  H    0.116229
    27  H    0.103146
 Sum of Mulliken charges =  -0.00000
 Mulliken charges with hydrogens summed into heavy atoms:
               1
     1  C   -0.004952
     2  C    0.155637
     3  N   -0.275226
     4  C    0.161463
     5  C    0.026633
     6  C    0.095542
     7  N   -0.242400
     8  C    0.057853
     9  C    0.025451
 Electronic spatial extent (au):  <R**2>=           2525.6039
 Charge=             -0.0000 electrons
 Dipole moment (field-independent basis, Debye):
    X=             -2.8244    Y=              2.1082    Z=              1.8417  Tot=              3.9766
 Quadrupole moment (field-independent basis, Debye-Ang):
   XX=            -69.1354   YY=            -64.7360   ZZ=            -61.5876
   XY=              8.0457   XZ=             -1.0610   YZ=              0.5322
 Traceless Quadrupole moment (field-independent basis, Debye-Ang):
   XX=             -3.9824   YY=              0.4170   ZZ=              3.5654
   XY=              8.0457   XZ=             -1.0610   YZ=              0.5322
 Octapole moment (field-independent basis, Debye-Ang**2):
  XXX=            -85.9209  YYY=             22.4510  ZZZ=              2.1466  XYY=            -22.5618
  XXY=             33.7368  XXZ=              0.0226  XZZ=              1.3709  YZZ=              1.0438
  YYZ=              4.9144  XYZ=             -4.8810
 Hexadecapole moment (field-independent basis, Debye-Ang**3):
 XXXX=          -3149.3119 YYYY=           -404.9834 ZZZZ=           -204.0970 XXXY=            121.0547
 XXXZ=             -9.8454 YYYX=             44.0194 YYYZ=             -6.3359 ZZZX=             -0.2258
 ZZZY=              0.1253 XXYY=           -601.6115 XXZZ=           -529.8568 YYZZ=            -97.8271
 XXYZ=              4.3368 YYXZ=              4.3676 ZZXY=             10.4337
 N-N= 4.674592546099D+02 E-N=-1.829607863821D+03  KE= 3.834061385740D+02
 Evaluate density.
 Using the total density.
 Monte-Carlo method of calculating molar volume:
 based on  0.001 e/bohr**3 density envelope.
 Number of points per bohr**3 =   20 CutOff= 1.00D-04
 Using the CI density.
 There are       394 points.  Will hold       394 in memory.
 LenV=  1073600748 MDV=  1073741824.
 Box volume = 7678.594 fraction occupied=0.203
 Integrated density= 4.7585920848228724D+01 error=-2.6414079151771276D+01
 Molar volume = 1559.105 bohr**3/mol (139.133 cm**3/mol)
 Recommended a0 for SCRF calculation =  4.69 angstrom (  8.86 bohr)
 ******************************Gaussian NBO Version 3.1******************************
             N A T U R A L   A T O M I C   O R B I T A L   A N D
          N A T U R A L   B O N D   O R B I T A L   A N A L Y S I S
 ******************************Gaussian NBO Version 3.1******************************
       /RESON  / : Allow strongly delocalized NBO set

 Analyzing the CI density

 Job title: BEPGHZIEOVULBU-UHFFFAOYSA-N_conf_0                              

 Storage needed:    154314 in NPA (1073737909 available)
 GSVD:  LWork=       26433 too small for GESVD, short by       20979 words or       20979 for optimal perf.


 NATURAL POPULATIONS:  Natural atomic orbital occupancies 
                                                          
   NAO  Atom  No  lang   Type(AO)    Occupancy
 --------------------------------------------
     1    C    1  S      Cor( 1S)     1.99946
     2    C    1  S      Val( 2S)     1.11557
     3    C    1  S      Ryd( 3S)     0.00039
     4    C    1  S      Ryd( 4S)     0.00001
     5    C    1  px     Val( 2p)     1.22658
     6    C    1  px     Ryd( 3p)     0.00113
     7    C    1  py     Val( 2p)     1.23819
     8    C    1  py     Ryd( 3p)     0.00106
     9    C    1  pz     Val( 2p)     1.12602
    10    C    1  pz     Ryd( 3p)     0.00086
    11    C    1  dxy    Ryd( 3d)     0.00033
    12    C    1  dxz    Ryd( 3d)     0.00028
    13    C    1  dyz    Ryd( 3d)     0.00088
    14    C    1  dx2y2  Ryd( 3d)     0.00071
    15    C    1  dz2    Ryd( 3d)     0.00054

    16    C    2  S      Cor( 1S)     1.99939
    17    C    2  S      Val( 2S)     1.02046
    18    C    2  S      Ryd( 3S)     0.00123
    19    C    2  S      Ryd( 4S)     0.00004
    20    C    2  px     Val( 2p)     0.90088
    21    C    2  px     Ryd( 3p)     0.00316
    22    C    2  py     Val( 2p)     1.22353
    23    C    2  py     Ryd( 3p)     0.00434
    24    C    2  pz     Val( 2p)     1.10934
    25    C    2  pz     Ryd( 3p)     0.00189
    26    C    2  dxy    Ryd( 3d)     0.00092
    27    C    2  dxz    Ryd( 3d)     0.00120
    28    C    2  dyz    Ryd( 3d)     0.00097
    29    C    2  dx2y2  Ryd( 3d)     0.00107
    30    C    2  dz2    Ryd( 3d)     0.00068

    31    N    3  S      Cor( 1S)     1.99956
    32    N    3  S      Val( 2S)     1.35056
    33    N    3  S      Ryd( 3S)     0.00072
    34    N    3  S      Ryd( 4S)     0.00001
    35    N    3  px     Val( 2p)     1.24632
    36    N    3  px     Ryd( 3p)     0.00176
    37    N    3  py     Val( 2p)     1.34366
    38    N    3  py     Ryd( 3p)     0.00223
    39    N    3  pz     Val( 2p)     1.73788
    40    N    3  pz     Ryd( 3p)     0.00587
    41    N    3  dxy    Ryd( 3d)     0.00050
    42    N    3  dxz    Ryd( 3d)     0.00082
    43    N    3  dyz    Ryd( 3d)     0.00131
    44    N    3  dx2y2  Ryd( 3d)     0.00054
    45    N    3  dz2    Ryd( 3d)     0.00106

    46    C    4  S      Cor( 1S)     1.99934
    47    C    4  S      Val( 2S)     1.01369
    48    C    4  S      Ryd( 3S)     0.00208
    49    C    4  S      Ryd( 4S)     0.00004
    50    C    4  px     Val( 2p)     0.98496
    51    C    4  px     Ryd( 3p)     0.00363
    52    C    4  py     Val( 2p)     1.04025
    53    C    4  py     Ryd( 3p)     0.00225
    54    C    4  pz     Val( 2p)     1.21699
    55    C    4  pz     Ryd( 3p)     0.00318
    56    C    4  dxy    Ryd( 3d)     0.00102
    57    C    4  dxz    Ryd( 3d)     0.00061
    58    C    4  dyz    Ryd( 3d)     0.00136
    59    C    4  dx2y2  Ryd( 3d)     0.00090
    60    C    4  dz2    Ryd( 3d)     0.00091

    61    C    5  S      Cor( 1S)     1.99931
    62    C    5  S      Val( 2S)     1.04550
    63    C    5  S      Ryd( 3S)     0.00102
    64    C    5  S      Ryd( 4S)     0.00002
    65    C    5  px     Val( 2p)     1.04109
    66    C    5  px     Ryd( 3p)     0.00587
    67    C    5  py     Val( 2p)     1.14411
    68    C    5  py     Ryd( 3p)     0.00350
    69    C    5  pz     Val( 2p)     1.24290
    70    C    5  pz     Ryd( 3p)     0.00301
    71    C    5  dxy    Ryd( 3d)     0.00060
    72    C    5  dxz    Ryd( 3d)     0.00039
    73    C    5  dyz    Ryd( 3d)     0.00075
    74    C    5  dx2y2  Ryd( 3d)     0.00067
    75    C    5  dz2    Ryd( 3d)     0.00074

    76    C    6  S      Cor( 1S)     1.99930
    77    C    6  S      Val( 2S)     1.04758
    78    C    6  S      Ryd( 3S)     0.00215
    79    C    6  S      Ryd( 4S)     0.00003
    80    C    6  px     Val( 2p)     0.87804
    81    C    6  px     Ryd( 3p)     0.00722
    82    C    6  py     Val( 2p)     1.16645
    83    C    6  py     Ryd( 3p)     0.00165
    84    C    6  pz     Val( 2p)     1.22008
    85    C    6  pz     Ryd( 3p)     0.00397
    86    C    6  dxy    Ryd( 3d)     0.00085
    87    C    6  dxz    Ryd( 3d)     0.00060
    88    C    6  dyz    Ryd( 3d)     0.00074
    89    C    6  dx2y2  Ryd( 3d)     0.00131
    90    C    6  dz2    Ryd( 3d)     0.00090

    91    N    7  S      Cor( 1S)     1.99934
    92    N    7  S      Val( 2S)     1.41821
    93    N    7  S      Ryd( 3S)     0.00775
    94    N    7  S      Ryd( 4S)     0.00005
    95    N    7  px     Val( 2p)     1.29574
    96    N    7  px     Ryd( 3p)     0.00151
    97    N    7  py     Val( 2p)     1.35395
    98    N    7  py     Ryd( 3p)     0.00313
    99    N    7  pz     Val( 2p)     1.13524
   100    N    7  pz     Ryd( 3p)     0.00080
   101    N    7  dxy    Ryd( 3d)     0.00078
   102    N    7  dxz    Ryd( 3d)     0.00081
   103    N    7  dyz    Ryd( 3d)     0.00030
   104    N    7  dx2y2  Ryd( 3d)     0.00060
   105    N    7  dz2    Ryd( 3d)     0.00060

   106    C    8  S      Cor( 1S)     1.99933
   107    C    8  S      Val( 2S)     1.05626
   108    C    8  S      Ryd( 3S)     0.00199
   109    C    8  S      Ryd( 4S)     0.00003
   110    C    8  px     Val( 2p)     1.20586
   111    C    8  px     Ryd( 3p)     0.00715
   112    C    8  py     Val( 2p)     0.98505
   113    C    8  py     Ryd( 3p)     0.00259
   114    C    8  pz     Val( 2p)     1.07113
   115    C    8  pz     Ryd( 3p)     0.00283
   116    C    8  dxy    Ryd( 3d)     0.00091
   117    C    8  dxz    Ryd( 3d)     0.00085
   118    C    8  dyz    Ryd( 3d)     0.00102
   119    C    8  dx2y2  Ryd( 3d)     0.00079
   120    C    8  dz2    Ryd( 3d)     0.00074

   121    C    9  S      Cor( 1S)     1.99943
   122    C    9  S      Val( 2S)     1.11353
   123    C    9  S      Ryd( 3S)     0.00043
   124    C    9  S      Ryd( 4S)     0.00001
   125    C    9  px     Val( 2p)     1.25347
   126    C    9  px     Ryd( 3p)     0.00139
   127    C    9  py     Val( 2p)     1.08629
   128    C    9  py     Ryd( 3p)     0.00261
   129    C    9  pz     Val( 2p)     1.23185
   130    C    9  pz     Ryd( 3p)     0.00158
   131    C    9  dxy    Ryd( 3d)     0.00060
   132    C    9  dxz    Ryd( 3d)     0.00064
   133    C    9  dyz    Ryd( 3d)     0.00049
   134    C    9  dx2y2  Ryd( 3d)     0.00051
   135    C    9  dz2    Ryd( 3d)     0.00053

   136    H   10  S      Val( 1S)     0.76756
   137    H   10  S      Ryd( 2S)     0.00097
   138    H   10  px     Ryd( 2p)     0.00014
   139    H   10  py     Ryd( 2p)     0.00026
   140    H   10  pz     Ryd( 2p)     0.00012

   141    H   11  S      Val( 1S)     0.76880
   142    H   11  S      Ryd( 2S)     0.00146
   143    H   11  px     Ryd( 2p)     0.00009
   144    H   11  py     Ryd( 2p)     0.00023
   145    H   11  pz     Ryd( 2p)     0.00020

   146    H   12  S      Val( 1S)     0.75872
   147    H   12  S      Ryd( 2S)     0.00111
   148    H   12  px     Ryd( 2p)     0.00034
   149    H   12  py     Ryd( 2p)     0.00009
   150    H   12  pz     Ryd( 2p)     0.00008

   151    H   13  S      Val( 1S)     0.76538
   152    H   13  S      Ryd( 2S)     0.00216
   153    H   13  px     Ryd( 2p)     0.00014
   154    H   13  py     Ryd( 2p)     0.00027
   155    H   13  pz     Ryd( 2p)     0.00014

   156    H   14  S      Val( 1S)     0.77088
   157    H   14  S      Ryd( 2S)     0.00160
   158    H   14  px     Ryd( 2p)     0.00007
   159    H   14  py     Ryd( 2p)     0.00025
   160    H   14  pz     Ryd( 2p)     0.00023

   161    H   15  S      Val( 1S)     0.60990
   162    H   15  S      Ryd( 2S)     0.00368
   163    H   15  px     Ryd( 2p)     0.00028
   164    H   15  py     Ryd( 2p)     0.00049
   165    H   15  pz     Ryd( 2p)     0.00063

   166    H   16  S      Val( 1S)     0.79029
   167    H   16  S      Ryd( 2S)     0.00256
   168    H   16  px     Ryd( 2p)     0.00012
   169    H   16  py     Ryd( 2p)     0.00010
   170    H   16  pz     Ryd( 2p)     0.00036

   171    H   17  S      Val( 1S)     0.76961
   172    H   17  S      Ryd( 2S)     0.00288
   173    H   17  px     Ryd( 2p)     0.00011
   174    H   17  py     Ryd( 2p)     0.00025
   175    H   17  pz     Ryd( 2p)     0.00020

   176    H   18  S      Val( 1S)     0.74933
   177    H   18  S      Ryd( 2S)     0.00362
   178    H   18  px     Ryd( 2p)     0.00008
   179    H   18  py     Ryd( 2p)     0.00011
   180    H   18  pz     Ryd( 2p)     0.00034

   181    H   19  S      Val( 1S)     0.75896
   182    H   19  S      Ryd( 2S)     0.00460
   183    H   19  px     Ryd( 2p)     0.00014
   184    H   19  py     Ryd( 2p)     0.00026
   185    H   19  pz     Ryd( 2p)     0.00017

   186    H   20  S      Val( 1S)     0.81313
   187    H   20  S      Ryd( 2S)     0.04119
   188    H   20  px     Ryd( 2p)     0.00009
   189    H   20  py     Ryd( 2p)     0.00027
   190    H   20  pz     Ryd( 2p)     0.00014

   191    H   21  S      Val( 1S)     0.72048
   192    H   21  S      Ryd( 2S)     0.01328
   193    H   21  px     Ryd( 2p)     0.00008
   194    H   21  py     Ryd( 2p)     0.00012
   195    H   21  pz     Ryd( 2p)     0.00035

   196    H   22  S      Val( 1S)     0.81833
   197    H   22  S      Ryd( 2S)     0.10603
   198    H   22  px     Ryd( 2p)     0.00031
   199    H   22  py     Ryd( 2p)     0.00054
   200    H   22  pz     Ryd( 2p)     0.00017

   201    H   23  S      Val( 1S)     0.73460
   202    H   23  S      Ryd( 2S)     0.01196
   203    H   23  px     Ryd( 2p)     0.00014
   204    H   23  py     Ryd( 2p)     0.00008
   205    H   23  pz     Ryd( 2p)     0.00032

   206    H   24  S      Val( 1S)     0.83422
   207    H   24  S      Ryd( 2S)     0.05350
   208    H   24  px     Ryd( 2p)     0.00033
   209    H   24  py     Ryd( 2p)     0.00010
   210    H   24  pz     Ryd( 2p)     0.00008

   211    H   25  S      Val( 1S)     0.75964
   212    H   25  S      Ryd( 2S)     0.00212
   213    H   25  px     Ryd( 2p)     0.00030
   214    H   25  py     Ryd( 2p)     0.00014
   215    H   25  pz     Ryd( 2p)     0.00009

   216    H   26  S      Val( 1S)     0.75878
   217    H   26  S      Ryd( 2S)     0.00375
   218    H   26  px     Ryd( 2p)     0.00015
   219    H   26  py     Ryd( 2p)     0.00008
   220    H   26  pz     Ryd( 2p)     0.00028

   221    H   27  S      Val( 1S)     0.76330
   222    H   27  S      Ryd( 2S)     0.00652
   223    H   27  px     Ryd( 2p)     0.00014
   224    H   27  py     Ryd( 2p)     0.00018
   225    H   27  pz     Ryd( 2p)     0.00018


 Summary of Natural Population Analysis:                  
                                                          
                                       Natural Population 
                Natural  -----------------------------------------------
    Atom  No    Charge         Core      Valence    Rydberg      Total
 -----------------------------------------------------------------------
      C    1   -0.71200      1.99946     4.70636    0.00619     6.71200
      C    2   -0.26908      1.99939     4.25420    0.01549     6.26908
      N    3   -0.69279      1.99956     5.67841    0.01481     7.69279
      C    4   -0.27120      1.99934     4.25590    0.01596     6.27120
      C    5   -0.48945      1.99931     4.47360    0.01654     6.48945
      C    6   -0.33087      1.99930     4.31215    0.01942     6.33087
      N    7   -0.21882      1.99934     5.20315    0.01633     7.21882
      C    8   -0.33654      1.99933     4.31830    0.01890     6.33654
      C    9   -0.69337      1.99943     4.68514    0.00879     6.69337
      H   10    0.23094      0.00000     0.76756    0.00149     0.76906
      H   11    0.22923      0.00000     0.76880    0.00197     0.77077
      H   12    0.23965      0.00000     0.75872    0.00163     0.76035
      H   13    0.23191      0.00000     0.76538    0.00271     0.76809
      H   14    0.22697      0.00000     0.77088    0.00215     0.77303
      H   15    0.38502      0.00000     0.60990    0.00508     0.61498
      H   16    0.20658      0.00000     0.79029    0.00313     0.79342
      H   17    0.22694      0.00000     0.76961    0.00345     0.77306
      H   18    0.24652      0.00000     0.74933    0.00415     0.75348
      H   19    0.23586      0.00000     0.75896    0.00518     0.76414
      H   20    0.14517      0.00000     0.81313    0.04169     0.85483
      H   21    0.26569      0.00000     0.72048    0.01382     0.73431
      H   22    0.07461      0.00000     0.81833    0.10706     0.92539
      H   23    0.25290      0.00000     0.73460    0.01250     0.74710
      H   24    0.11177      0.00000     0.83422    0.05401     0.88823
      H   25    0.23771      0.00000     0.75964    0.00266     0.76229
      H   26    0.23696      0.00000     0.75878    0.00426     0.76304
      H   27    0.22966      0.00000     0.76330    0.00703     0.77034
 =======================================================================
   * Total *   -0.00000     17.99445    55.59915    0.40639    74.00000

                                 Natural Population      
 --------------------------------------------------------
   Core                      17.99445 ( 99.9692% of  18)
   Valence                   55.59915 ( 99.2842% of  56)
   Natural Minimal Basis     73.59361 ( 99.4508% of  74)
   Natural Rydberg Basis      0.40639 (  0.5492% of  74)
 --------------------------------------------------------

    Atom  No          Natural Electron Configuration
 ----------------------------------------------------------------------------
      C    1      [core]2S( 1.12)2p( 3.59)
      C    2      [core]2S( 1.02)2p( 3.23)3p( 0.01)
      N    3      [core]2S( 1.35)2p( 4.33)3p( 0.01)
      C    4      [core]2S( 1.01)2p( 3.24)3p( 0.01)
      C    5      [core]2S( 1.05)2p( 3.43)3p( 0.01)
      C    6      [core]2S( 1.05)2p( 3.26)3p( 0.01)
      N    7      [core]2S( 1.42)2p( 3.78)3S( 0.01)3p( 0.01)
      C    8      [core]2S( 1.06)2p( 3.26)3p( 0.01)
      C    9      [core]2S( 1.11)2p( 3.57)3p( 0.01)
      H   10            1S( 0.77)
      H   11            1S( 0.77)
      H   12            1S( 0.76)
      H   13            1S( 0.77)
      H   14            1S( 0.77)
      H   15            1S( 0.61)
      H   16            1S( 0.79)
      H   17            1S( 0.77)
      H   18            1S( 0.75)
      H   19            1S( 0.76)
      H   20            1S( 0.81)2S( 0.04)
      H   21            1S( 0.72)2S( 0.01)
      H   22            1S( 0.82)2S( 0.11)
      H   23            1S( 0.73)2S( 0.01)
      H   24            1S( 0.83)2S( 0.05)
      H   25            1S( 0.76)
      H   26            1S( 0.76)
      H   27            1S( 0.76)2S( 0.01)


 NBO analysis skipped by request.
 1\1\GINC-CN33\SP\RB3LYP TD-FC\6-31G(d,p)\C7H18N2\QDUEZ\11-Jul-2024\0\\
 # TD(NStates=10, Root=1) B3LYP/6-31G** SCRF=(Solvent=water) volume pop
 =NPA density=current Geom=AllCheck Guess=Read\\BEPGHZIEOVULBU-UHFFFAOY
 SA-N_conf_0\\0,1\C,0,3.8176603307,-0.2392217929,-1.5958351966\C,0,3.38
 57471703,0.8351840817,-0.5863162198\N,0,1.9428544963,1.0266062124,-0.4
 026180466\C,0,1.2323964837,-0.1292471531,0.1515759022\C,0,-0.240120247
 4,0.2040392567,0.4047041402\C,0,-1.016324243,-0.9842055267,0.982025386
 \N,0,-2.3962720634,-0.6569740466,1.3613622031\C,0,-3.3482481028,-0.528
 8872523,0.2434018966\C,0,-3.6510801772,0.9254104424,-0.1298101244\H,0,
 3.4822330791,-1.2379975584,-1.2997537687\H,0,3.4086588138,-0.026461757
 7,-2.5904673158\H,0,4.9094997568,-0.2680221653,-1.6822742712\H,0,3.807
 5042924,1.8008049458,-0.8918399306\H,0,3.8165531859,0.6069658557,0.397
 4677168\H,0,1.5280480989,1.2628096448,-1.3032477711\H,0,1.2939958658,-
 1.0305267322,-0.4840705141\H,0,1.7171644036,-0.3915788689,1.102255836\
 H,0,-0.3109397947,1.0543564191,1.0928191322\H,0,-0.6981449436,0.521914
 5941,-0.5411856965\H,0,-0.5056658446,-1.3284651778,1.8902236376\H,0,-0
 .9733359106,-1.8217984753,0.2599375008\H,0,-2.7244801394,-1.3980489758
 ,1.9726432731\H,0,-2.9914268304,-1.0739592264,-0.6471917224\H,0,-4.287
 0687456,-1.0106512018,0.540245293\H,0,-2.7548851428,1.4542060447,-0.46
 67590267\H,0,-4.053588549,1.465306923,0.7333607726\H,0,-4.3907352429,0
 .9684414905,-0.9373313768\\Version=EM64L-G16RevA.03\State=1-A\HF=-387.
 1015164\RMSD=6.820e-09\Dipole=0.8298817,0.3047928,-1.2907787\Quadrupol
 e=-0.7406069,0.0036671,0.7369397,-5.06215,3.5494961,2.3948922\PG=C01 [
 X(C7H18N2)]\\@


 THOSE WITH THE GOLD MAKE THE RULES.

             -- PETER'S GOLDEN RULE
 Job cpu time:       0 days  1 hours  6 minutes 51.9 seconds.
 Elapsed time:       0 days  0 hours 28 minutes 25.4 seconds.
 File lengths (MBytes):  RWF=    458 Int=      0 D2E=      0 Chk=     29 Scr=      1
 Normal termination of Gaussian 16 at Thu Jul 11 18:47:54 2024.
