 Entering Gaussian System, Link 0=g16
 Initial command:
 /opt/sw/arch/manual/gaussian/G16_A03/g16/l1.exe "/scratch/1032032.jesse.materianova.be/Gau-72291.inp" -scrdir="/scratch/1032032.jesse.materianova.be/"
 Entering Link 1 = /opt/sw/arch/manual/gaussian/G16_A03/g16/l1.exe PID=     72294.
  
 Copyright (c) 1988,1990,1992,1993,1995,1998,2003,2009,2016,
            Gaussian, Inc.  All Rights Reserved.
  
 This is part of the Gaussian(R) 16 program.  It is based on
 the Gaussian(R) 09 system (copyright 2009, Gaussian, Inc.),
 the Gaussian(R) 03 system (copyright 2003, Gaussian, Inc.),
 the Gaussian(R) 98 system (copyright 1998, Gaussian, Inc.),
 the Gaussian(R) 94 system (copyright 1995, Gaussian, Inc.),
 the Gaussian 92(TM) system (copyright 1992, Gaussian, Inc.),
 the Gaussian 90(TM) system (copyright 1990, Gaussian, Inc.),
 the Gaussian 88(TM) system (copyright 1988, Gaussian, Inc.),
 the Gaussian 86(TM) system (copyright 1986, Carnegie Mellon
 University), and the Gaussian 82(TM) system (copyright 1983,
 Carnegie Mellon University). Gaussian is a federally registered
 trademark of Gaussian, Inc.
  
 This software contains proprietary and confidential information,
 including trade secrets, belonging to Gaussian, Inc.
  
 This software is provided under written license and may be
 used, copied, transmitted, or stored only in accord with that
 written license.
  
 The following legend is applicable only to US Government
 contracts under FAR:
  
                    RESTRICTED RIGHTS LEGEND
  
 Use, reproduction and disclosure by the US Government is
 subject to restrictions as set forth in subparagraphs (a)
 and (c) of the Commercial Computer Software - Restricted
 Rights clause in FAR 52.227-19.
  
 Gaussian, Inc.
 340 Quinnipiac St., Bldg. 40, Wallingford CT 06492
  
  
 ---------------------------------------------------------------
 Warning -- This program may not be used in any manner that
 competes with the business of Gaussian, Inc. or will provide
 assistance to any competitor of Gaussian, Inc.  The licensee
 of this program is prohibited from giving any competitor of
 Gaussian, Inc. access to this program.  By using this program,
 the user acknowledges that Gaussian, Inc. is engaged in the
 business of creating and licensing software in the field of
 computational chemistry and represents and warrants to the
 licensee that it is not a competitor of Gaussian, Inc. and that
 it will not use this program in any manner prohibited above.
 ---------------------------------------------------------------
  

 Cite this work as:
 Gaussian 16, Revision A.03,
 M. J. Frisch, G. W. Trucks, H. B. Schlegel, G. E. Scuseria, 
 M. A. Robb, J. R. Cheeseman, G. Scalmani, V. Barone, 
 G. A. Petersson, H. Nakatsuji, X. Li, M. Caricato, A. V. Marenich, 
 J. Bloino, B. G. Janesko, R. Gomperts, B. Mennucci, H. P. Hratchian, 
 J. V. Ortiz, A. F. Izmaylov, J. L. Sonnenberg, D. Williams-Young, 
 F. Ding, F. Lipparini, F. Egidi, J. Goings, B. Peng, A. Petrone, 
 T. Henderson, D. Ranasinghe, V. G. Zakrzewski, J. Gao, N. Rega, 
 G. Zheng, W. Liang, M. Hada, M. Ehara, K. Toyota, R. Fukuda, 
 J. Hasegawa, M. Ishida, T. Nakajima, Y. Honda, O. Kitao, H. Nakai, 
 T. Vreven, K. Throssell, J. A. Montgomery, Jr., J. E. Peralta, 
 F. Ogliaro, M. J. Bearpark, J. J. Heyd, E. N. Brothers, K. N. Kudin, 
 V. N. Staroverov, T. A. Keith, R. Kobayashi, J. Normand, 
 K. Raghavachari, A. P. Rendell, J. C. Burant, S. S. Iyengar, 
 J. Tomasi, M. Cossi, J. M. Millam, M. Klene, C. Adamo, R. Cammi, 
 J. W. Ochterski, R. L. Martin, K. Morokuma, O. Farkas, 
 J. B. Foresman, and D. J. Fox, Gaussian, Inc., Wallingford CT, 2016.
 
 ******************************************
 Gaussian 16:  EM64L-G16RevA.03 25-Dec-2016
                11-Jul-2024 
 ******************************************
 %nprocshared=4
 Will use up to    4 processors via shared memory.
 %mem=8GB
 %Chk=BEPGHZIEOVULBU-UHFFFAOYSA-N_conf_3_0.chk
 -------------------------------------------------------
 # opt=CalcFc B3LYP/6-31G** SCRF=(Solvent=water) scf=xqc
 -------------------------------------------------------
 1/10=4,18=20,19=15,26=3,38=1/1,3;
 2/9=110,12=2,17=6,18=5,40=1/2;
 3/5=1,6=6,7=101,11=2,25=1,30=1,70=2201,71=2,72=1,74=-5,140=1/1,2,3;
 4//1;
 5/5=2,8=3,13=1,38=5,53=1/2,8;
 8/6=4,10=90,11=11/1;
 11/6=1,8=1,9=11,15=111,16=1/1,2,10;
 10/6=1,13=1/2;
 6/7=2,8=2,9=2,10=2,28=1/1;
 7/10=1,18=20,25=1/1,2,3,16;
 1/10=4,18=20,19=15,26=3/3(2);
 2/9=110/2;
 99//99;
 2/9=110/2;
 3/5=1,6=6,7=101,11=2,25=1,30=1,70=2205,71=1,72=1,74=-5/1,2,3;
 4/5=5,16=3,69=1/1;
 5/5=2,8=3,13=1,38=5,53=1/2,8;
 7//1,2,3,16;
 1/18=20,19=15,26=3/3(-5);
 2/9=110/2;
 6/7=2,8=2,9=2,10=2,19=2,28=1/1;
 99/9=1/99;
 ----------------------------------
 BEPGHZIEOVULBU-UHFFFAOYSA-N_conf_3
 ----------------------------------
 Symbolic Z-matrix:
 Charge =  0 Multiplicity = 1
 C                     3.97085  -0.67474   0.64852 
 C                     3.51648   0.1082   -0.57501 
 N                     2.07038   0.0465   -0.79229 
 C                     1.31251   0.80273   0.2064 
 C                    -0.18353   0.84162  -0.12995 
 C                    -0.83106  -0.54682  -0.10932 
 N                    -2.26472  -0.50808  -0.42769 
 C                    -3.07454  -0.00359   0.68116 
 C                    -4.55061  -0.09969   0.32244 
 H                     5.06478  -0.69731   0.69196 
 H                     3.61601  -1.71005   0.6095 
 H                     3.61371  -0.22123   1.57797 
 H                     3.8585    1.14779  -0.5122 
 H                     4.00384  -0.32829  -1.45459 
 H                     1.86324   0.42662  -1.71717 
 H                     1.43615   0.36029   1.2008 
 H                     1.68      1.83506   0.25083 
 H                    -0.66925   1.49599   0.60301 
 H                    -0.33059   1.30668  -1.11332 
 H                    -0.66308  -1.043     0.85424 
 H                    -0.35076  -1.17346  -0.86972 
 H                    -2.56784  -1.45698  -0.64982 
 H                    -2.89141  -0.58753   1.59039 
 H                    -2.83742   1.0437    0.89278 
 H                    -4.84832  -1.13741   0.13753 
 H                    -5.16362   0.28453   1.14414 
 H                    -4.77969   0.48846  -0.57271 
 

 GradGradGradGradGradGradGradGradGradGradGradGradGradGradGradGradGradGrad
 Berny optimization.
 Initialization pass.
                           ----------------------------
                           !    Initial Parameters    !
                           ! (Angstroms and Degrees)  !
 --------------------------                            --------------------------
 ! Name  Definition              Value          Derivative Info.                !
 --------------------------------------------------------------------------------
 ! R1    R(1,2)                  1.522          calculate D2E/DX2 analytically  !
 ! R2    R(1,10)                 1.095          calculate D2E/DX2 analytically  !
 ! R3    R(1,11)                 1.0951         calculate D2E/DX2 analytically  !
 ! R4    R(1,12)                 1.0941         calculate D2E/DX2 analytically  !
 ! R5    R(2,3)                  1.4636         calculate D2E/DX2 analytically  !
 ! R6    R(2,13)                 1.0962         calculate D2E/DX2 analytically  !
 ! R7    R(2,14)                 1.0962         calculate D2E/DX2 analytically  !
 ! R8    R(3,4)                  1.4641         calculate D2E/DX2 analytically  !
 ! R9    R(3,15)                 1.0212         calculate D2E/DX2 analytically  !
 ! R10   R(4,5)                  1.5339         calculate D2E/DX2 analytically  !
 ! R11   R(4,16)                 1.0954         calculate D2E/DX2 analytically  !
 ! R12   R(4,17)                 1.0967         calculate D2E/DX2 analytically  !
 ! R13   R(5,6)                  1.5321         calculate D2E/DX2 analytically  !
 ! R14   R(5,18)                 1.0961         calculate D2E/DX2 analytically  !
 ! R15   R(5,19)                 1.0977         calculate D2E/DX2 analytically  !
 ! R16   R(6,7)                  1.4691         calculate D2E/DX2 analytically  !
 ! R17   R(6,20)                 1.0967         calculate D2E/DX2 analytically  !
 ! R18   R(6,21)                 1.0962         calculate D2E/DX2 analytically  !
 ! R19   R(7,8)                  1.4628         calculate D2E/DX2 analytically  !
 ! R20   R(7,22)                 1.0206         calculate D2E/DX2 analytically  !
 ! R21   R(8,9)                  1.5221         calculate D2E/DX2 analytically  !
 ! R22   R(8,23)                 1.096          calculate D2E/DX2 analytically  !
 ! R23   R(8,24)                 1.0945         calculate D2E/DX2 analytically  !
 ! R24   R(9,25)                 1.0953         calculate D2E/DX2 analytically  !
 ! R25   R(9,26)                 1.0948         calculate D2E/DX2 analytically  !
 ! R26   R(9,27)                 1.0953         calculate D2E/DX2 analytically  !
 ! A1    A(2,1,10)             109.9212         calculate D2E/DX2 analytically  !
 ! A2    A(2,1,11)             111.1584         calculate D2E/DX2 analytically  !
 ! A3    A(2,1,12)             111.8537         calculate D2E/DX2 analytically  !
 ! A4    A(10,1,11)            107.7957         calculate D2E/DX2 analytically  !
 ! A5    A(10,1,12)            107.5135         calculate D2E/DX2 analytically  !
 ! A6    A(11,1,12)            108.443          calculate D2E/DX2 analytically  !
 ! A7    A(1,2,3)              113.1169         calculate D2E/DX2 analytically  !
 ! A8    A(1,2,13)             110.4042         calculate D2E/DX2 analytically  !
 ! A9    A(1,2,14)             107.907          calculate D2E/DX2 analytically  !
 ! A10   A(3,2,13)             110.901          calculate D2E/DX2 analytically  !
 ! A11   A(3,2,14)             107.6591         calculate D2E/DX2 analytically  !
 ! A12   A(13,2,14)            106.5519         calculate D2E/DX2 analytically  !
 ! A13   A(2,3,4)              112.8545         calculate D2E/DX2 analytically  !
 ! A14   A(2,3,15)             108.6129         calculate D2E/DX2 analytically  !
 ! A15   A(4,3,15)             108.6949         calculate D2E/DX2 analytically  !
 ! A16   A(3,4,5)              111.6159         calculate D2E/DX2 analytically  !
 ! A17   A(3,4,16)             110.6206         calculate D2E/DX2 analytically  !
 ! A18   A(3,4,17)             109.9004         calculate D2E/DX2 analytically  !
 ! A19   A(5,4,16)             108.6261         calculate D2E/DX2 analytically  !
 ! A20   A(5,4,17)             108.1701         calculate D2E/DX2 analytically  !
 ! A21   A(16,4,17)            107.7946         calculate D2E/DX2 analytically  !
 ! A22   A(4,5,6)              112.7227         calculate D2E/DX2 analytically  !
 ! A23   A(4,5,18)             107.5008         calculate D2E/DX2 analytically  !
 ! A24   A(4,5,19)             109.746          calculate D2E/DX2 analytically  !
 ! A25   A(6,5,18)             110.1653         calculate D2E/DX2 analytically  !
 ! A26   A(6,5,19)             109.8392         calculate D2E/DX2 analytically  !
 ! A27   A(18,5,19)            106.6642         calculate D2E/DX2 analytically  !
 ! A28   A(5,6,7)              112.6822         calculate D2E/DX2 analytically  !
 ! A29   A(5,6,20)             110.9211         calculate D2E/DX2 analytically  !
 ! A30   A(5,6,21)             108.8761         calculate D2E/DX2 analytically  !
 ! A31   A(7,6,20)             110.5971         calculate D2E/DX2 analytically  !
 ! A32   A(7,6,21)             106.9975         calculate D2E/DX2 analytically  !
 ! A33   A(20,6,21)            106.482          calculate D2E/DX2 analytically  !
 ! A34   A(6,7,8)              112.6478         calculate D2E/DX2 analytically  !
 ! A35   A(6,7,22)             108.209          calculate D2E/DX2 analytically  !
 ! A36   A(8,7,22)             108.7356         calculate D2E/DX2 analytically  !
 ! A37   A(7,8,9)              109.6608         calculate D2E/DX2 analytically  !
 ! A38   A(7,8,23)             110.6467         calculate D2E/DX2 analytically  !
 ! A39   A(7,8,24)             110.8936         calculate D2E/DX2 analytically  !
 ! A40   A(9,8,23)             108.9            calculate D2E/DX2 analytically  !
 ! A41   A(9,8,24)             108.4267         calculate D2E/DX2 analytically  !
 ! A42   A(23,8,24)            108.2533         calculate D2E/DX2 analytically  !
 ! A43   A(8,9,25)             111.2962         calculate D2E/DX2 analytically  !
 ! A44   A(8,9,26)             110.1182         calculate D2E/DX2 analytically  !
 ! A45   A(8,9,27)             111.1946         calculate D2E/DX2 analytically  !
 ! A46   A(25,9,26)            107.8792         calculate D2E/DX2 analytically  !
 ! A47   A(25,9,27)            108.2958         calculate D2E/DX2 analytically  !
 ! A48   A(26,9,27)            107.9295         calculate D2E/DX2 analytically  !
 ! D1    D(10,1,2,3)           173.0294         calculate D2E/DX2 analytically  !
 ! D2    D(10,1,2,13)          -62.0346         calculate D2E/DX2 analytically  !
 ! D3    D(10,1,2,14)           54.0454         calculate D2E/DX2 analytically  !
 ! D4    D(11,1,2,3)            53.7648         calculate D2E/DX2 analytically  !
 ! D5    D(11,1,2,13)          178.7008         calculate D2E/DX2 analytically  !
 ! D6    D(11,1,2,14)          -65.2192         calculate D2E/DX2 analytically  !
 ! D7    D(12,1,2,3)           -67.6158         calculate D2E/DX2 analytically  !
 ! D8    D(12,1,2,13)           57.3203         calculate D2E/DX2 analytically  !
 ! D9    D(12,1,2,14)          173.4002         calculate D2E/DX2 analytically  !
 ! D10   D(1,2,3,4)             70.6648         calculate D2E/DX2 analytically  !
 ! D11   D(1,2,3,15)          -168.7391         calculate D2E/DX2 analytically  !
 ! D12   D(13,2,3,4)           -54.0018         calculate D2E/DX2 analytically  !
 ! D13   D(13,2,3,15)           66.5943         calculate D2E/DX2 analytically  !
 ! D14   D(14,2,3,4)          -170.2081         calculate D2E/DX2 analytically  !
 ! D15   D(14,2,3,15)          -49.6119         calculate D2E/DX2 analytically  !
 ! D16   D(2,3,4,5)            174.0377         calculate D2E/DX2 analytically  !
 ! D17   D(2,3,4,16)           -64.8865         calculate D2E/DX2 analytically  !
 ! D18   D(2,3,4,17)            54.0262         calculate D2E/DX2 analytically  !
 ! D19   D(15,3,4,5)            53.4884         calculate D2E/DX2 analytically  !
 ! D20   D(15,3,4,16)          174.5642         calculate D2E/DX2 analytically  !
 ! D21   D(15,3,4,17)          -66.523          calculate D2E/DX2 analytically  !
 ! D22   D(3,4,5,6)             63.516          calculate D2E/DX2 analytically  !
 ! D23   D(3,4,5,18)          -174.8884         calculate D2E/DX2 analytically  !
 ! D24   D(3,4,5,19)           -59.2526         calculate D2E/DX2 analytically  !
 ! D25   D(16,4,5,6)           -58.7134         calculate D2E/DX2 analytically  !
 ! D26   D(16,4,5,18)           62.8822         calculate D2E/DX2 analytically  !
 ! D27   D(16,4,5,19)          178.518          calculate D2E/DX2 analytically  !
 ! D28   D(17,4,5,6)          -175.4598         calculate D2E/DX2 analytically  !
 ! D29   D(17,4,5,18)          -53.8641         calculate D2E/DX2 analytically  !
 ! D30   D(17,4,5,19)           61.7716         calculate D2E/DX2 analytically  !
 ! D31   D(4,5,6,7)            179.8312         calculate D2E/DX2 analytically  !
 ! D32   D(4,5,6,20)            55.2226         calculate D2E/DX2 analytically  !
 ! D33   D(4,5,6,21)           -61.6308         calculate D2E/DX2 analytically  !
 ! D34   D(18,5,6,7)            59.7582         calculate D2E/DX2 analytically  !
 ! D35   D(18,5,6,20)          -64.8505         calculate D2E/DX2 analytically  !
 ! D36   D(18,5,6,21)          178.2962         calculate D2E/DX2 analytically  !
 ! D37   D(19,5,6,7)           -57.4524         calculate D2E/DX2 analytically  !
 ! D38   D(19,5,6,20)          177.939          calculate D2E/DX2 analytically  !
 ! D39   D(19,5,6,21)           61.0856         calculate D2E/DX2 analytically  !
 ! D40   D(5,6,7,8)            -75.2474         calculate D2E/DX2 analytically  !
 ! D41   D(5,6,7,22)           164.5114         calculate D2E/DX2 analytically  !
 ! D42   D(20,6,7,8)            49.5386         calculate D2E/DX2 analytically  !
 ! D43   D(20,6,7,22)          -70.7026         calculate D2E/DX2 analytically  !
 ! D44   D(21,6,7,8)           165.1213         calculate D2E/DX2 analytically  !
 ! D45   D(21,6,7,22)           44.8802         calculate D2E/DX2 analytically  !
 ! D46   D(6,7,8,9)           -175.3628         calculate D2E/DX2 analytically  !
 ! D47   D(6,7,8,23)           -55.2168         calculate D2E/DX2 analytically  !
 ! D48   D(6,7,8,24)            64.9232         calculate D2E/DX2 analytically  !
 ! D49   D(22,7,8,9)           -55.4253         calculate D2E/DX2 analytically  !
 ! D50   D(22,7,8,23)           64.7208         calculate D2E/DX2 analytically  !
 ! D51   D(22,7,8,24)         -175.1392         calculate D2E/DX2 analytically  !
 ! D52   D(7,8,9,25)            60.9206         calculate D2E/DX2 analytically  !
 ! D53   D(7,8,9,26)          -179.4944         calculate D2E/DX2 analytically  !
 ! D54   D(7,8,9,27)           -59.9118         calculate D2E/DX2 analytically  !
 ! D55   D(23,8,9,25)          -60.2841         calculate D2E/DX2 analytically  !
 ! D56   D(23,8,9,26)           59.3009         calculate D2E/DX2 analytically  !
 ! D57   D(23,8,9,27)          178.8835         calculate D2E/DX2 analytically  !
 ! D58   D(24,8,9,25)         -177.8669         calculate D2E/DX2 analytically  !
 ! D59   D(24,8,9,26)          -58.2819         calculate D2E/DX2 analytically  !
 ! D60   D(24,8,9,27)           61.3007         calculate D2E/DX2 analytically  !
 --------------------------------------------------------------------------------
 Trust Radius=3.00D-01 FncErr=1.00D-07 GrdErr=1.00D-06 EigMax=2.50D+02 EigMin=1.00D-04
 Number of steps in this run=    144 maximum allowed number of steps=    162.
 GradGradGradGradGradGradGradGradGradGradGradGradGradGradGradGradGradGrad

                          Input orientation:                          
 ---------------------------------------------------------------------
 Center     Atomic      Atomic             Coordinates (Angstroms)
 Number     Number       Type             X           Y           Z
 ---------------------------------------------------------------------
      1          6           0        3.970850   -0.674742    0.648517
      2          6           0        3.516482    0.108203   -0.575015
      3          7           0        2.070378    0.046499   -0.792291
      4          6           0        1.312513    0.802727    0.206398
      5          6           0       -0.183535    0.841621   -0.129951
      6          6           0       -0.831062   -0.546816   -0.109315
      7          7           0       -2.264718   -0.508078   -0.427693
      8          6           0       -3.074540   -0.003595    0.681155
      9          6           0       -4.550611   -0.099685    0.322438
     10          1           0        5.064776   -0.697306    0.691960
     11          1           0        3.616014   -1.710049    0.609496
     12          1           0        3.613709   -0.221233    1.577972
     13          1           0        3.858502    1.147787   -0.512201
     14          1           0        4.003837   -0.328293   -1.454593
     15          1           0        1.863239    0.426615   -1.717167
     16          1           0        1.436150    0.360285    1.200805
     17          1           0        1.680002    1.835062    0.250833
     18          1           0       -0.669254    1.495995    0.603009
     19          1           0       -0.330593    1.306682   -1.113316
     20          1           0       -0.663084   -1.042997    0.854235
     21          1           0       -0.350763   -1.173456   -0.869724
     22          1           0       -2.567835   -1.456978   -0.649823
     23          1           0       -2.891413   -0.587526    1.590386
     24          1           0       -2.837418    1.043698    0.892775
     25          1           0       -4.848319   -1.137408    0.137527
     26          1           0       -5.163617    0.284525    1.144144
     27          1           0       -4.779691    0.488462   -0.572714
 ---------------------------------------------------------------------
                    Distance matrix (angstroms):
                    1          2          3          4          5
     1  C    0.000000
     2  C    1.522000   0.000000
     3  N    2.491568   1.463637   0.000000
     4  C    3.073295   2.439354   1.464111   0.000000
     5  C    4.490466   3.798172   2.480128   1.533885   0.000000
     6  C    4.863027   4.421206   3.039215   2.552617   1.532146
     7  N    6.329954   5.815822   4.385607   3.862236   2.498332
     8  C    7.077360   6.710591   5.351984   4.485731   3.119326
     9  C    8.547065   8.119522   6.715764   5.933299   4.490219
    10  H    1.095021   2.156684   3.423838   4.070055   5.530696
    11  H    1.095122   2.172329   2.727536   3.432586   4.636202
    12  H    1.094123   2.180213   2.841073   2.867963   4.297175
    13  H    2.163677   1.096201   2.118649   2.667867   4.071599
    14  H    2.131710   1.096221   2.077829   3.358768   4.545047
    15  H    3.354321   2.034480   1.021171   2.035893   2.623122
    16  H    2.793028   2.746791   2.114979   1.095393   2.150808
    17  H    3.421294   2.652683   2.107002   1.096694   2.145854
    18  H    5.122961   4.564438   3.399042   2.136661   1.096065
    19  H    5.052970   4.065231   2.730528   2.166890   1.097686
    20  H    4.653093   4.564733   3.371923   2.780175   2.179535
    21  H    4.607614   4.084738   2.712233   2.798183   2.153083
    22  H    6.712078   6.282858   4.877885   4.571268   3.352419
    23  H    6.927148   6.799568   5.540623   4.639097   3.512068
    24  H    7.026038   6.587990   5.283968   4.213206   2.851298
    25  H    8.846067   8.486999   7.080576   6.459467   5.074279
    26  H    9.198061   8.850464   7.492471   6.564157   5.170579
    27  H    8.911589   8.304883   6.867823   6.149856   4.630919
                    6          7          8          9         10
     6  C    0.000000
     7  N    1.469094   0.000000
     8  C    2.439903   1.462826   0.000000
     9  C    3.771125   2.440243   1.522070   0.000000
    10  H    5.951941   7.416935   8.168833   9.641025   0.000000
    11  H    4.652556   6.091264   6.905116   8.328831   1.769565
    12  H    4.765388   6.217787   6.751616   8.261190   1.765576
    13  H    5.002600   6.343726   7.128594   8.542014   2.511866
    14  H    5.023322   6.354654   7.400694   8.740062   2.422695
    15  H    3.285120   4.424525   5.506241   6.750885   4.161362
    16  H    2.771191   4.135516   4.555082   6.068312   3.813705
    17  H    3.479725   4.638051   5.115809   6.524485   4.250198
    18  H    2.169484   2.761188   2.835539   4.205930   6.139836
    19  H    2.166550   2.739393   3.530750   4.674164   6.031998
    20  H    1.096742   2.120073   2.631622   4.035531   5.740577
    21  H    1.096169   2.073969   3.345559   4.495882   5.656292
    22  H    2.033944   1.020605   2.034841   2.592091   7.786799
    23  H    2.671271   2.114640   1.095998   2.144438   8.007507
    24  H    2.749434   2.116514   1.094455   2.137204   8.094202
    25  H    4.067934   2.718551   2.174248   1.095304   9.938337
    26  H    4.586210   3.391534   2.159077   1.094803  10.285353
    27  H    4.108310   2.709097   2.172981   1.095305   9.995948
                   11         12         13         14         15
    11  H    0.000000
    12  H    1.776098   0.000000
    13  H    3.079648   2.510570   0.000000
    14  H    2.513985   3.059430   1.757280   0.000000
    15  H    3.612604   3.787055   2.439899   2.284948   0.000000
    16  H    3.063941   2.285208   3.069583   3.757431   2.949807
    17  H    4.055193   3.119114   2.408409   3.603996   2.426998
    18  H    5.351848   4.716269   4.676058   5.422133   3.597264
    19  H    5.257799   5.013489   4.234986   4.645093   2.439683
    20  H    4.337687   4.414753   5.206863   5.255629   3.892837
    21  H    4.267474   4.755521   4.820156   4.474250   2.860104
    22  H    6.315846   6.685927   6.935528   6.716283   4.931690
    23  H    6.675987   6.515438   7.279666   7.542120   5.880060
    24  H    7.022119   6.609583   6.842525   7.361743   5.411910
    25  H    8.496799   8.632506   9.025131   9.030513   7.136600
    26  H    9.019206   8.802581   9.213432   9.548360   7.588412
    27  H    8.758934   8.693576   8.663530   8.865391   6.741077
                   16         17         18         19         20
    16  H    0.000000
    17  H    1.771123   0.000000
    18  H    2.465750   2.399583   0.000000
    19  H    3.061406   2.486479   1.759631   0.000000
    20  H    2.548744   3.759969   2.551398   3.082661   0.000000
    21  H    3.135683   3.798794   3.065346   2.492154   1.756872
    22  H    4.770657   5.449113   3.727499   3.585791   2.462042
    23  H    4.447238   5.344265   3.202181   4.178017   2.390569
    24  H    4.338816   4.630921   2.233713   3.221449   3.013886
    25  H    6.547381   7.174077   4.961458   5.286589   4.247208
    26  H    6.600445   7.073704   4.686127   5.431302   4.701187
    27  H    6.465174   6.649751   4.392395   4.555898   4.618225
                   21         22         23         24         25
    21  H    0.000000
    22  H    2.245919   0.000000
    23  H    3.584740   2.424704   0.000000
    24  H    3.769036   2.950537   1.774955   0.000000
    25  H    4.609106   2.433650   2.498529   3.061265   0.000000
    26  H    5.417097   3.604058   2.474371   2.459823   1.770476
    27  H    4.739788   2.946691   3.066324   2.495670   1.775557
                   26         27
    26  H    0.000000
    27  H    1.771042   0.000000
 Stoichiometry    C7H18N2
 Framework group  C1[X(C7H18N2)]
 Deg. of freedom    75
 Full point group                 C1      NOp   1
 Largest Abelian subgroup         C1      NOp   1
 Largest concise Abelian subgroup C1      NOp   1
                         Standard orientation:                         
 ---------------------------------------------------------------------
 Center     Atomic      Atomic             Coordinates (Angstroms)
 Number     Number       Type             X           Y           Z
 ---------------------------------------------------------------------
      1          6           0       -3.933313    1.014780    0.404729
      2          6           0       -3.545836   -0.258966   -0.332778
      3          7           0       -2.110861   -0.350901   -0.605962
      4          6           0       -1.315954   -0.583952    0.601279
      5          6           0        0.162164   -0.821657    0.267413
      6          6           0        0.826067    0.397732   -0.380503
      7          7           0        2.242709    0.170463   -0.696274
      8          6           0        3.097597    0.209768    0.490098
      9          6           0        4.556286    0.082002    0.074648
     10          1           0       -5.023671    1.089825    0.472235
     11          1           0       -3.568662    1.902988   -0.121965
     12          1           0       -3.538379    1.030851    1.424961
     13          1           0       -3.896622   -1.140383    0.216505
     14          1           0       -4.068696   -0.262909   -1.296262
     15          1           0       -1.951662   -1.121733   -1.256550
     16          1           0       -1.387770    0.271574    1.281576
     17          1           0       -1.692954   -1.466621    1.131848
     18          1           0        0.673994   -1.078507    1.201980
     19          1           0        0.257626   -1.692877   -0.393478
     20          1           0        0.709144    1.288048    0.249187
     21          1           0        0.318043    0.617147   -1.326736
     22          1           0        2.546127    0.899144   -1.343264
     23          1           0        2.964023    1.153242    1.031601
     24          1           0        2.858460   -0.613083    1.170953
     25          1           0        4.857077    0.906773   -0.580308
     26          1           0        5.202552    0.101528    0.958137
     27          1           0        4.736369   -0.860174   -0.454092
 ---------------------------------------------------------------------
 Rotational constants (GHZ):           5.3848865           0.4612458           0.4578178
 Standard basis: 6-31G(d,p) (6D, 7F)
 There are   225 symmetry adapted cartesian basis functions of A   symmetry.
 There are   225 symmetry adapted basis functions of A   symmetry.
   225 basis functions,   378 primitive gaussians,   225 cartesian basis functions
    37 alpha electrons       37 beta electrons
       nuclear repulsion energy       469.1799617234 Hartrees.
 NAtoms=   27 NActive=   27 NUniq=   27 SFac= 1.00D+00 NAtFMM=   60 NAOKFM=F Big=F
 Integral buffers will be    131072 words long.
 Raffenetti 2 integral format.
 Two-electron integral symmetry is turned on.
 Force inversion solution in PCM.
 ------------------------------------------------------------------------------
 Polarizable Continuum Model (PCM)
 =================================
 Model                : PCM.
 Atomic radii         : UFF (Universal Force Field).
 Polarization charges : Total charges.
 Charge compensation  : None.
 Solution method      : Matrix inversion.
 Cavity type          : Scaled VdW (van der Waals Surface) (Alpha=1.100).
 Cavity algorithm     : GePol (No added spheres)
                        Default sphere list used, NSphG=   27.
                        Lebedev-Laikov grids with approx.  5.0 points / Ang**2.
                        Smoothing algorithm: York/Karplus (Gamma=1.0000).
                        Polarization charges: spherical gaussians, with
                                              point-specific exponents (IZeta= 3).
                        Self-potential: point-specific (ISelfS= 7).
                        Self-field    : sphere-specific E.n sum rule (ISelfD= 2).
 1st derivatives      : Analytical E(r).r(x)/FMM algorithm (CHGder, D1EAlg=3).
                        Cavity 1st derivative terms included.
 2nd derivatives      : Analytical E(r).r(xy)/FMM algorithm (CHGder, D2EAlg=3).
                        Cavity 2nd derivative terms included.
 Solvent              : Water, Eps=  78.355300 Eps(inf)=   1.777849
 ------------------------------------------------------------------------------
 One-electron integrals computed using PRISM.
 NBasis=   225 RedAO= T EigKep=  3.03D-03  NBF=   225
 NBsUse=   225 1.00D-06 EigRej= -1.00D+00 NBFU=   225
 ExpMin= 1.61D-01 ExpMax= 4.17D+03 ExpMxC= 6.27D+02 IAcc=3 IRadAn=         5 AccDes= 0.00D+00
 Harris functional with IExCor=  402 and IRadAn=       5 diagonalized for initial guess.
 HarFok:  IExCor=  402 AccDes= 0.00D+00 IRadAn=         5 IDoV= 1 UseB2=F ITyADJ=14
 ICtDFT=  3500011 ScaDFX=  1.000000  1.000000  1.000000  1.000000
 FoFCou: FMM=F IPFlag=           0 FMFlag=      100000 FMFlg1=           0
         NFxFlg=           0 DoJE=T BraDBF=F KetDBF=T FulRan=T
         wScrn=  0.000000 ICntrl=       500 IOpCl=  0 I1Cent=   200000004 NGrid=           0
         NMat0=    1 NMatS0=      1 NMatT0=    0 NMatD0=    1 NMtDS0=    0 NMtDT0=    0
 Petite list used in FoFCou.
 Keep R1 ints in memory in canonical form, NReq=329001147.
 Requested convergence on RMS density matrix=1.00D-08 within  32 cycles.
 Requested convergence on MAX density matrix=1.00D-06.
 Requested convergence on             energy=1.00D-06.
 No special actions if energy rises.
 Inv3:  Mode=1 IEnd=    10738992.
 Iteration    1 A*A^-1 deviation from unit magnitude is 7.99D-15 for   1591.
 Iteration    1 A*A^-1 deviation from orthogonality  is 4.77D-15 for   1569    157.
 Iteration    1 A^-1*A deviation from unit magnitude is 7.99D-15 for   1591.
 Iteration    1 A^-1*A deviation from orthogonality  is 3.10D-14 for   1634   1620.
 Error on total polarization charges =  0.01077
 SCF Done:  E(RB3LYP) =  -387.103108628     A.U. after   11 cycles
            NFock= 11  Conv=0.29D-08     -V/T= 2.0098
 QCSCF skips out because SCF is already converged.
 DoSCS=F DFT=T ScalE2(SS,OS)=  1.000000  1.000000
 Range of M.O.s used for correlation:     1   225
 NBasis=   225 NAE=    37 NBE=    37 NFC=     0 NFV=     0
 NROrb=    225 NOA=    37 NOB=    37 NVA=   188 NVB=   188
 Symmetrizing basis deriv contribution to polar:
 IMax=3 JMax=2 DiffMx= 0.00D+00
 G2DrvN: will do    28 centers at a time, making    1 passes.
 Calling FoFCou, ICntrl=  3107 FMM=F I1Cent=   0 AccDes= 0.00D+00.
 NEqPCM:  Using equilibrium solvation (IEInf=0, Eps=  78.3553, EpsInf=   1.7778)
 G2PCM: DoFxE=T DoFxN=T DoGrad=T DoDP/DQ/DG/TGxP=FFFF NFrqRd=   0 IEInf=0 SqF1=F DoCFld=F IF1Alg=4.
 End of G2Drv F.D. properties file   721 does not exist.
 End of G2Drv F.D. properties file   722 does not exist.
 End of G2Drv F.D. properties file   788 does not exist.
          IDoAtm=111111111111111111111111111
 NEqPCM:  Using equilibrium solvation (IEInf=0, Eps=  78.3553, EpsInf=   1.7778)
          Differentiating once with respect to nuclear coordinates.
 Keep R1 ints in memory in canonical form, NReq=332608538.
          There are    84 degrees of freedom in the 1st order CPHF.  IDoFFX=6 NUNeed=     0.
     78 vectors produced by pass  0 Test12= 8.28D-15 1.19D-09 XBig12= 7.97D-02 5.14D-02.
 AX will form    78 AO Fock derivatives at one time.
     78 vectors produced by pass  1 Test12= 8.28D-15 1.19D-09 XBig12= 5.71D-03 8.78D-03.
     78 vectors produced by pass  2 Test12= 8.28D-15 1.19D-09 XBig12= 3.84D-05 6.93D-04.
     78 vectors produced by pass  3 Test12= 8.28D-15 1.19D-09 XBig12= 7.08D-08 3.21D-05.
     78 vectors produced by pass  4 Test12= 8.28D-15 1.19D-09 XBig12= 6.52D-11 8.67D-07.
     31 vectors produced by pass  5 Test12= 8.28D-15 1.19D-09 XBig12= 3.87D-14 2.06D-08.
 InvSVY:  IOpt=1 It=  1 EMax= 7.77D-16
 Solved reduced A of dimension   421 with    84 vectors.
 End of Minotr F.D. properties file   721 does not exist.
 End of Minotr F.D. properties file   722 does not exist.
 End of Minotr F.D. properties file   788 does not exist.

 **********************************************************************

            Population analysis using the SCF density.

 **********************************************************************

 Orbital symmetries:
       Occupied  (A) (A) (A) (A) (A) (A) (A) (A) (A) (A) (A) (A)
                 (A) (A) (A) (A) (A) (A) (A) (A) (A) (A) (A) (A)
                 (A) (A) (A) (A) (A) (A) (A) (A) (A) (A) (A) (A)
                 (A)
       Virtual   (A) (A) (A) (A) (A) (A) (A) (A) (A) (A) (A) (A)
                 (A) (A) (A) (A) (A) (A) (A) (A) (A) (A) (A) (A)
                 (A) (A) (A) (A) (A) (A) (A) (A) (A) (A) (A) (A)
                 (A) (A) (A) (A) (A) (A) (A) (A) (A) (A) (A) (A)
                 (A) (A) (A) (A) (A) (A) (A) (A) (A) (A) (A) (A)
                 (A) (A) (A) (A) (A) (A) (A) (A) (A) (A) (A) (A)
                 (A) (A) (A) (A) (A) (A) (A) (A) (A) (A) (A) (A)
                 (A) (A) (A) (A) (A) (A) (A) (A) (A) (A) (A) (A)
                 (A) (A) (A) (A) (A) (A) (A) (A) (A) (A) (A) (A)
                 (A) (A) (A) (A) (A) (A) (A) (A) (A) (A) (A) (A)
                 (A) (A) (A) (A) (A) (A) (A) (A) (A) (A) (A) (A)
                 (A) (A) (A) (A) (A) (A) (A) (A) (A) (A) (A) (A)
                 (A) (A) (A) (A) (A) (A) (A) (A) (A) (A) (A) (A)
                 (A) (A) (A) (A) (A) (A) (A) (A) (A) (A) (A) (A)
                 (A) (A) (A) (A) (A) (A) (A) (A) (A) (A) (A) (A)
                 (A) (A) (A) (A) (A) (A) (A) (A)
 The electronic state is 1-A.
 Alpha  occ. eigenvalues --  -14.31051 -14.30916 -10.20026 -10.19886 -10.19868
 Alpha  occ. eigenvalues --  -10.19573 -10.17532 -10.17060 -10.16995  -0.89869
 Alpha  occ. eigenvalues --   -0.89119  -0.76932  -0.73759  -0.71308  -0.64616
 Alpha  occ. eigenvalues --   -0.60869  -0.58729  -0.56746  -0.48575  -0.47185
 Alpha  occ. eigenvalues --   -0.46112  -0.45428  -0.44571  -0.42790  -0.41480
 Alpha  occ. eigenvalues --   -0.40001  -0.37875  -0.36730  -0.35868  -0.35692
 Alpha  occ. eigenvalues --   -0.34390  -0.33772  -0.33041  -0.32703  -0.31641
 Alpha  occ. eigenvalues --   -0.21875  -0.21676
 Alpha virt. eigenvalues --    0.08871   0.09355   0.11013   0.11355   0.12137
 Alpha virt. eigenvalues --    0.14116   0.14846   0.16236   0.16679   0.16750
 Alpha virt. eigenvalues --    0.17483   0.18175   0.18332   0.18750   0.19559
 Alpha virt. eigenvalues --    0.20049   0.21207   0.22052   0.23676   0.24141
 Alpha virt. eigenvalues --    0.24854   0.25668   0.26494   0.27522   0.28941
 Alpha virt. eigenvalues --    0.29367   0.50301   0.50517   0.51753   0.52581
 Alpha virt. eigenvalues --    0.53840   0.55477   0.55715   0.57048   0.57727
 Alpha virt. eigenvalues --    0.59943   0.60740   0.62984   0.64368   0.65883
 Alpha virt. eigenvalues --    0.67438   0.69299   0.70809   0.71063   0.74994
 Alpha virt. eigenvalues --    0.77112   0.79057   0.81100   0.82749   0.83055
 Alpha virt. eigenvalues --    0.85069   0.86110   0.86330   0.87213   0.87496
 Alpha virt. eigenvalues --    0.88242   0.89438   0.90027   0.90696   0.93155
 Alpha virt. eigenvalues --    0.93921   0.94339   0.94807   0.95660   0.95904
 Alpha virt. eigenvalues --    0.98749   0.99132   1.00432   1.00759   1.05124
 Alpha virt. eigenvalues --    1.09944   1.15220   1.18813   1.24747   1.28609
 Alpha virt. eigenvalues --    1.30047   1.32336   1.34990   1.38286   1.44150
 Alpha virt. eigenvalues --    1.47674   1.52508   1.55596   1.57284   1.61189
 Alpha virt. eigenvalues --    1.62624   1.65674   1.67261   1.70656   1.72184
 Alpha virt. eigenvalues --    1.75619   1.76128   1.80571   1.81571   1.84262
 Alpha virt. eigenvalues --    1.86433   1.87711   1.88511   1.90742   1.95296
 Alpha virt. eigenvalues --    1.95503   1.97526   2.01170   2.03803   2.04673
 Alpha virt. eigenvalues --    2.05384   2.06080   2.06947   2.07858   2.08951
 Alpha virt. eigenvalues --    2.10272   2.11033   2.11916   2.12951   2.14368
 Alpha virt. eigenvalues --    2.15707   2.18048   2.19975   2.21765   2.26678
 Alpha virt. eigenvalues --    2.27364   2.27523   2.29569   2.32232   2.33379
 Alpha virt. eigenvalues --    2.34816   2.36802   2.39639   2.40204   2.41930
 Alpha virt. eigenvalues --    2.43732   2.47013   2.52148   2.52972   2.57860
 Alpha virt. eigenvalues --    2.59223   2.59689   2.62788   2.64087   2.64765
 Alpha virt. eigenvalues --    2.70185   2.71697   2.71899   2.73508   2.75145
 Alpha virt. eigenvalues --    2.76420   2.78354   2.79975   2.83302   2.84653
 Alpha virt. eigenvalues --    2.85539   2.86613   2.88262   2.89180   2.92082
 Alpha virt. eigenvalues --    2.93055   2.94678   2.95461   2.96314   2.98340
 Alpha virt. eigenvalues --    3.02028   3.19057   3.19941   3.25290   3.30071
 Alpha virt. eigenvalues --    3.30970   3.31580   3.32823   3.37476   3.40129
 Alpha virt. eigenvalues --    3.42603   3.43112   3.44338   3.48402   3.50121
 Alpha virt. eigenvalues --    3.53127   3.55465   3.56523   3.58441   4.05722
 Alpha virt. eigenvalues --    4.10733   4.35891   4.37872   4.39017   4.56152
 Alpha virt. eigenvalues --    4.60823   4.63030   4.72201
          Condensed to atoms (all electrons):
               1          2          3          4          5          6
     1  C    4.959686   0.375566  -0.063989  -0.004668   0.000218  -0.000062
     2  C    0.375566   4.770789   0.313641  -0.045274   0.005120   0.000235
     3  N   -0.063989   0.313641   6.859763   0.301440  -0.047581  -0.004074
     4  C   -0.004668  -0.045274   0.301440   4.815380   0.352509  -0.036813
     5  C    0.000218   0.005120  -0.047581   0.352509   4.998637   0.367265
     6  C   -0.000062   0.000235  -0.004074  -0.036813   0.367265   4.820657
     7  N   -0.000000  -0.000001   0.000154   0.003156  -0.056559   0.294741
     8  C    0.000000   0.000000  -0.000004   0.000014  -0.005041  -0.043547
     9  C    0.000000  -0.000000   0.000000  -0.000001   0.000160   0.005211
    10  H    0.373384  -0.027547   0.003918   0.000028  -0.000003   0.000000
    11  H    0.374421  -0.033287   0.005036  -0.000650  -0.000085   0.000020
    12  H    0.388838  -0.034491  -0.003219   0.002408  -0.000096   0.000005
    13  H   -0.054867   0.369296  -0.052189  -0.010301  -0.000166   0.000027
    14  H   -0.036480   0.388937  -0.037082   0.005834  -0.000250   0.000002
    15  H    0.006110  -0.033882   0.337788  -0.041388  -0.003151  -0.000841
    16  H    0.004049  -0.003578  -0.046100   0.386298  -0.030199  -0.009402
    17  H   -0.001666  -0.007731  -0.055466   0.371650  -0.041637   0.005761
    18  H    0.000006  -0.000202   0.003870  -0.029604   0.376844  -0.037841
    19  H    0.000006   0.000010  -0.006440  -0.030903   0.370020  -0.038547
    20  H    0.000006  -0.000041  -0.000409   0.002193  -0.059277   0.370035
    21  H   -0.000029  -0.000249   0.014032  -0.006388  -0.036335   0.380086
    22  H   -0.000000  -0.000000   0.000004  -0.000192   0.005599  -0.033744
    23  H    0.000000  -0.000000   0.000000   0.000086  -0.001461  -0.007564
    24  H   -0.000000  -0.000000  -0.000001  -0.000255   0.002567  -0.002412
    25  H   -0.000000   0.000000  -0.000000   0.000000   0.000002   0.000035
    26  H   -0.000000   0.000000  -0.000000  -0.000000   0.000003  -0.000219
    27  H    0.000000  -0.000000   0.000000   0.000000  -0.000035   0.000052
               7          8          9         10         11         12
     1  C   -0.000000   0.000000   0.000000   0.373384   0.374421   0.388838
     2  C   -0.000001   0.000000  -0.000000  -0.027547  -0.033287  -0.034491
     3  N    0.000154  -0.000004   0.000000   0.003918   0.005036  -0.003219
     4  C    0.003156   0.000014  -0.000001   0.000028  -0.000650   0.002408
     5  C   -0.056559  -0.005041   0.000160  -0.000003  -0.000085  -0.000096
     6  C    0.294741  -0.043547   0.005211   0.000000   0.000020   0.000005
     7  N    6.880383   0.308221  -0.053123   0.000000   0.000000  -0.000000
     8  C    0.308221   4.770106   0.373293  -0.000000  -0.000000   0.000000
     9  C   -0.053123   0.373293   4.952036  -0.000000   0.000000  -0.000000
    10  H    0.000000  -0.000000  -0.000000   0.606411  -0.027839  -0.030086
    11  H    0.000000  -0.000000   0.000000  -0.027839   0.607340  -0.033287
    12  H   -0.000000   0.000000  -0.000000  -0.030086  -0.033287   0.599183
    13  H    0.000000  -0.000000   0.000000   0.001218   0.006678  -0.006349
    14  H   -0.000000   0.000000   0.000000  -0.004362  -0.005453   0.005519
    15  H   -0.000053   0.000001  -0.000000  -0.000208  -0.000034  -0.000070
    16  H   -0.000049  -0.000006  -0.000000  -0.000176  -0.000159   0.001174
    17  H   -0.000063  -0.000007   0.000000   0.000047   0.000261   0.000260
    18  H   -0.003051   0.002217  -0.000184  -0.000000   0.000001   0.000007
    19  H    0.005001  -0.000274  -0.000043   0.000000  -0.000000  -0.000002
    20  H   -0.051056  -0.011303   0.000118   0.000000   0.000018  -0.000009
    21  H   -0.033861   0.005655  -0.000295   0.000000   0.000055  -0.000000
    22  H    0.337097  -0.040316  -0.004486  -0.000000   0.000000   0.000000
    23  H   -0.054593   0.371389  -0.044546   0.000000   0.000000  -0.000000
    24  H   -0.045482   0.392745  -0.032235  -0.000000  -0.000000   0.000000
    25  H   -0.005013  -0.032705   0.386955   0.000000  -0.000000  -0.000000
    26  H    0.004117  -0.028000   0.373372   0.000000   0.000000   0.000000
    27  H    0.003859  -0.033743   0.379366  -0.000000   0.000000   0.000000
              13         14         15         16         17         18
     1  C   -0.054867  -0.036480   0.006110   0.004049  -0.001666   0.000006
     2  C    0.369296   0.388937  -0.033882  -0.003578  -0.007731  -0.000202
     3  N   -0.052189  -0.037082   0.337788  -0.046100  -0.055466   0.003870
     4  C   -0.010301   0.005834  -0.041388   0.386298   0.371650  -0.029604
     5  C   -0.000166  -0.000250  -0.003151  -0.030199  -0.041637   0.376844
     6  C    0.000027   0.000002  -0.000841  -0.009402   0.005761  -0.037841
     7  N    0.000000  -0.000000  -0.000053  -0.000049  -0.000063  -0.003051
     8  C   -0.000000   0.000000   0.000001  -0.000006  -0.000007   0.002217
     9  C    0.000000   0.000000  -0.000000  -0.000000   0.000000  -0.000184
    10  H    0.001218  -0.004362  -0.000208  -0.000176   0.000047  -0.000000
    11  H    0.006678  -0.005453  -0.000034  -0.000159   0.000261   0.000001
    12  H   -0.006349   0.005519  -0.000070   0.001174   0.000260   0.000007
    13  H    0.703409  -0.044947  -0.002986  -0.001939   0.016352   0.000010
    14  H   -0.044947   0.637614  -0.005700   0.000016  -0.000114   0.000004
    15  H   -0.002986  -0.005700   0.489175   0.006566  -0.004864  -0.000080
    16  H   -0.001939   0.000016   0.006566   0.631472  -0.051958  -0.003238
    17  H    0.016352  -0.000114  -0.004864  -0.051958   0.701979  -0.001637
    18  H    0.000010   0.000004  -0.000080  -0.003238  -0.001637   0.627402
    19  H   -0.000053  -0.000007   0.006149   0.005942  -0.005819  -0.037083
    20  H    0.000001  -0.000000   0.000058   0.005826  -0.000030  -0.005581
    21  H    0.000028  -0.000001  -0.000251  -0.000831   0.000342   0.005883
    22  H    0.000000   0.000000   0.000001  -0.000002   0.000003  -0.000038
    23  H    0.000000   0.000000  -0.000000   0.000010   0.000000   0.000229
    24  H   -0.000000   0.000000   0.000000   0.000011   0.000008   0.002216
    25  H    0.000000  -0.000000   0.000000   0.000000   0.000000  -0.000001
    26  H   -0.000000   0.000000   0.000000   0.000000   0.000000   0.000009
    27  H   -0.000000   0.000000  -0.000000   0.000000  -0.000000   0.000013
              19         20         21         22         23         24
     1  C    0.000006   0.000006  -0.000029  -0.000000   0.000000  -0.000000
     2  C    0.000010  -0.000041  -0.000249  -0.000000  -0.000000  -0.000000
     3  N   -0.006440  -0.000409   0.014032   0.000004   0.000000  -0.000001
     4  C   -0.030903   0.002193  -0.006388  -0.000192   0.000086  -0.000255
     5  C    0.370020  -0.059277  -0.036335   0.005599  -0.001461   0.002567
     6  C   -0.038547   0.370035   0.380086  -0.033744  -0.007564  -0.002412
     7  N    0.005001  -0.051056  -0.033861   0.337097  -0.054593  -0.045482
     8  C   -0.000274  -0.011303   0.005655  -0.040316   0.371389   0.392745
     9  C   -0.000043   0.000118  -0.000295  -0.004486  -0.044546  -0.032235
    10  H    0.000000   0.000000   0.000000  -0.000000   0.000000  -0.000000
    11  H   -0.000000   0.000018   0.000055   0.000000   0.000000  -0.000000
    12  H   -0.000002  -0.000009  -0.000000   0.000000  -0.000000   0.000000
    13  H   -0.000053   0.000001   0.000028   0.000000   0.000000  -0.000000
    14  H   -0.000007  -0.000000  -0.000001   0.000000   0.000000   0.000000
    15  H    0.006149   0.000058  -0.000251   0.000001  -0.000000   0.000000
    16  H    0.005942   0.005826  -0.000831  -0.000002   0.000010   0.000011
    17  H   -0.005819  -0.000030   0.000342   0.000003   0.000000   0.000008
    18  H   -0.037083  -0.005581   0.005883  -0.000038   0.000229   0.002216
    19  H    0.636392   0.006764  -0.006976  -0.000053   0.000164  -0.000055
    20  H    0.006764   0.700484  -0.042376  -0.002063   0.016402  -0.002001
    21  H   -0.006976  -0.042376   0.631373  -0.006438  -0.000021  -0.000017
    22  H   -0.000053  -0.002063  -0.006438   0.492436  -0.005555   0.006640
    23  H    0.000164   0.016402  -0.000021  -0.005555   0.701330  -0.053489
    24  H   -0.000055  -0.002001  -0.000017   0.006640  -0.053489   0.629045
    25  H    0.000000  -0.000041  -0.000007   0.006037  -0.007167   0.005401
    26  H    0.000001   0.000023   0.000004  -0.000163   0.000380  -0.003606
    27  H    0.000017   0.000045   0.000003  -0.000746   0.006639  -0.007123
              25         26         27
     1  C   -0.000000  -0.000000   0.000000
     2  C    0.000000   0.000000  -0.000000
     3  N   -0.000000  -0.000000   0.000000
     4  C    0.000000  -0.000000   0.000000
     5  C    0.000002   0.000003  -0.000035
     6  C    0.000035  -0.000219   0.000052
     7  N   -0.005013   0.004117   0.003859
     8  C   -0.032705  -0.028000  -0.033743
     9  C    0.386955   0.373372   0.379366
    10  H    0.000000   0.000000  -0.000000
    11  H   -0.000000   0.000000   0.000000
    12  H   -0.000000   0.000000   0.000000
    13  H    0.000000  -0.000000  -0.000000
    14  H   -0.000000   0.000000   0.000000
    15  H    0.000000   0.000000  -0.000000
    16  H    0.000000   0.000000   0.000000
    17  H    0.000000   0.000000  -0.000000
    18  H   -0.000001   0.000009   0.000013
    19  H    0.000000   0.000001   0.000017
    20  H   -0.000041   0.000023   0.000045
    21  H   -0.000007   0.000004   0.000003
    22  H    0.006037  -0.000163  -0.000746
    23  H   -0.007167   0.000380   0.006639
    24  H    0.005401  -0.003606  -0.007123
    25  H    0.604634  -0.030652  -0.034124
    26  H   -0.030652   0.608519  -0.028356
    27  H   -0.034124  -0.028356   0.605737
 Mulliken charges:
               1
     1  C   -0.320529
     2  C   -0.037312
     3  N   -0.523094
     4  C   -0.034560
     5  C   -0.197067
     6  C   -0.029066
     7  N   -0.533826
     8  C   -0.028696
     9  C   -0.335596
    10  H    0.105213
    11  H    0.106965
    12  H    0.110215
    13  H    0.076778
    14  H    0.096470
    15  H    0.247659
    16  H    0.106272
    17  H    0.074329
    18  H    0.099830
    19  H    0.095790
    20  H    0.072215
    21  H    0.096615
    22  H    0.245979
    23  H    0.077766
    24  H    0.108041
    25  H    0.106644
    26  H    0.104568
    27  H    0.108396
 Sum of Mulliken charges =  -0.00000
 Mulliken charges with hydrogens summed into heavy atoms:
               1
     1  C    0.001864
     2  C    0.135937
     3  N   -0.275434
     4  C    0.146041
     5  C   -0.001447
     6  C    0.139764
     7  N   -0.287847
     8  C    0.157111
     9  C   -0.015988
 APT charges:
               1
     1  C   -1.166998
     2  C   -0.932204
     3  N   -0.635362
     4  C   -0.568026
     5  C   -0.681404
     6  C   -0.432693
     7  N   -0.815893
     8  C   -0.494349
     9  C   -1.462458
    10  H    0.829503
    11  H    0.217673
    12  H    0.166813
    13  H    0.371456
    14  H    0.569382
    15  H    0.474557
    16  H    0.299152
    17  H    0.381446
    18  H    0.352027
    19  H    0.340837
    20  H    0.257802
    21  H    0.290901
    22  H    0.604112
    23  H    0.266523
    24  H    0.266826
    25  H    0.473385
    26  H    0.643315
    27  H    0.383678
 Sum of APT charges =  -0.00000
 APT charges with hydrogens summed into heavy atoms:
               1
     1  C    0.046990
     2  C    0.008634
     3  N   -0.160805
     4  C    0.112572
     5  C    0.011460
     6  C    0.116010
     7  N   -0.211781
     8  C    0.039000
     9  C    0.037920
 Electronic spatial extent (au):  <R**2>=           2578.5466
 Charge=              0.0000 electrons
 Dipole moment (field-independent basis, Debye):
    X=             -0.3943    Y=              0.0093    Z=              0.6811  Tot=              0.7871
 Quadrupole moment (field-independent basis, Debye-Ang):
   XX=            -56.4160   YY=            -58.2827   ZZ=            -58.6824
   XY=              4.9046   XZ=              1.4037   YZ=             -0.4208
 Traceless Quadrupole moment (field-independent basis, Debye-Ang):
   XX=              1.3777   YY=             -0.4890   ZZ=             -0.8887
   XY=              4.9046   XZ=              1.4037   YZ=             -0.4208
 Octapole moment (field-independent basis, Debye-Ang**2):
  XXX=             -8.6078  YYY=             -1.4217  ZZZ=             -4.5126  XYY=              0.9628
  XXY=              4.6311  XXZ=             -0.3289  XZZ=              0.1116  YZZ=              0.1094
  YYZ=             -4.1843  XYZ=             -8.3896
 Hexadecapole moment (field-independent basis, Debye-Ang**3):
 XXXX=          -3012.1681 YYYY=           -229.7882 ZZZZ=           -194.8190 XXXY=             27.0402
 XXXZ=             24.2504 YYYX=             10.1962 YYYZ=              0.1470 ZZZX=              3.6543
 ZZZY=             -0.8148 XXYY=           -548.1342 XXZZ=           -537.6695 YYZZ=            -67.6969
 XXYZ=             -8.2385 YYXZ=              0.0080 ZZXY=             11.1975
 N-N= 4.691799617234D+02 E-N=-1.835126467210D+03  KE= 3.833631193908D+02
  Exact polarizability:   0.000   0.000   0.000   0.000   0.000   0.000
 Approx polarizability: 125.052  -0.348 115.006   1.690  -0.407 120.343
 D2PCM: PCM CHGder 2nd derivatives, FixD1E=F FixD2E=F DoIter=F DoCFld=F I1PDM=0
 Calling FoFJK, ICntrl=    100147 FMM=F ISym2X=0 I1Cent= 0 IOpClX= 0 NMat=1 NMatS=1 NMatT=0.
 ***** Axes restored to original set *****
 -------------------------------------------------------------------
 Center     Atomic                   Forces (Hartrees/Bohr)
 Number     Number              X              Y              Z
 -------------------------------------------------------------------
      1        6           0.002377658    0.000061000    0.003670092
      2        6          -0.001017390   -0.004964326   -0.007578717
      3        7          -0.001355546   -0.007562566    0.002598420
      4        6          -0.006158533    0.002912764   -0.009067969
      5        6           0.002403179   -0.002571616    0.004472980
      6        6          -0.004609699   -0.002988883   -0.011744154
      7        7           0.005455207    0.006823513   -0.002053057
      8        6          -0.008075452   -0.007091081   -0.007926845
      9        6          -0.004828976    0.002983081    0.002451559
     10        1           0.000004271    0.000475315    0.000561757
     11        1          -0.001036814    0.000656756   -0.000507163
     12        1           0.000188920   -0.001041027    0.000693927
     13        1           0.004449870    0.005137406    0.002640789
     14        1          -0.000782079    0.000848010   -0.001456444
     15        1           0.000223052    0.000219640    0.003379296
     16        1           0.002661303   -0.001100587   -0.000970915
     17        1           0.001515743    0.005916820    0.005152542
     18        1          -0.000372081    0.000327973   -0.000457046
     19        1          -0.000987192   -0.000996677   -0.000355779
     20        1           0.004451709    0.000357784    0.006377448
     21        1           0.001401311    0.001029797    0.001346405
     22        1          -0.000326278    0.002498808    0.002141392
     23        1           0.001415885    0.000637831    0.007816174
     24        1           0.003813636   -0.000722310   -0.000591124
     25        1          -0.000213806   -0.000350359   -0.000294100
     26        1          -0.001273573   -0.000742237   -0.000236582
     27        1           0.000675676   -0.000754830   -0.000062889
 -------------------------------------------------------------------
 Cartesian Forces:  Max     0.011744154 RMS     0.003686429
 FormGI is forming the generalized inverse of G from B-inverse, IUseBI=4.

 GradGradGradGradGradGradGradGradGradGradGradGradGradGradGradGradGradGrad
 Berny optimization.
 Internal  Forces:  Max     0.008464150 RMS     0.002213768
 Search for a local minimum.
 Step number   1 out of a maximum of  144
 All quantities printed in internal units (Hartrees-Bohrs-Radians)
 Mixed Optimization -- RFO/linear search
 Second derivative matrix not updated -- analytic derivatives used.
 ITU=  0
     Eigenvalues ---    0.00084   0.00208   0.00242   0.00286   0.00322
     Eigenvalues ---    0.00367   0.00489   0.00518   0.02291   0.02380
     Eigenvalues ---    0.03561   0.03939   0.04423   0.04482   0.04535
     Eigenvalues ---    0.04569   0.04575   0.04596   0.04688   0.04710
     Eigenvalues ---    0.05016   0.05036   0.05207   0.05322   0.06948
     Eigenvalues ---    0.08083   0.08247   0.08521   0.08675   0.10113
     Eigenvalues ---    0.10226   0.10596   0.11630   0.12101   0.12370
     Eigenvalues ---    0.12480   0.12838   0.13355   0.13643   0.13900
     Eigenvalues ---    0.16145   0.16161   0.18938   0.21265   0.22404
     Eigenvalues ---    0.24014   0.24472   0.24986   0.25309   0.27824
     Eigenvalues ---    0.29732   0.30121   0.30354   0.31252   0.31630
     Eigenvalues ---    0.32251   0.32432   0.32815   0.32910   0.33195
     Eigenvalues ---    0.33456   0.33569   0.33593   0.33754   0.33789
     Eigenvalues ---    0.33831   0.34010   0.34420   0.34634   0.35565
     Eigenvalues ---    0.35763   0.38898   0.39029   0.43009   0.43132
 RFO step:  Lambda=-3.87564039D-03 EMin= 8.35660383D-04
 Linear search not attempted -- first point.
 Iteration  1 RMS(Cart)=  0.04862231 RMS(Int)=  0.00074516
 Iteration  2 RMS(Cart)=  0.00149713 RMS(Int)=  0.00014431
 Iteration  3 RMS(Cart)=  0.00000101 RMS(Int)=  0.00014430
 Iteration  4 RMS(Cart)=  0.00000000 RMS(Int)=  0.00014430
 Variable       Old X    -DE/DX   Delta X   Delta X   Delta X     New X
                                 (Linear)    (Quad)   (Total)
    R1        2.87616   0.00393   0.00000   0.01398   0.01398   2.89014
    R2        2.06929   0.00002   0.00000  -0.00043  -0.00043   2.06886
    R3        2.06948  -0.00027   0.00000  -0.00055  -0.00055   2.06893
    R4        2.06759   0.00010   0.00000   0.00048   0.00048   2.06807
    R5        2.76587   0.00389   0.00000   0.00770   0.00770   2.77358
    R6        2.07152   0.00641   0.00000   0.01886   0.01886   2.09038
    R7        2.07156   0.00048   0.00000  -0.00033  -0.00033   2.07123
    R8        2.76677   0.00203   0.00000   0.00438   0.00438   2.77115
    R9        1.92973  -0.00302   0.00000  -0.00498  -0.00498   1.92476
   R10        2.89862   0.00081   0.00000  -0.00422  -0.00422   2.89441
   R11        2.06999  -0.00014   0.00000   0.00273   0.00273   2.07273
   R12        2.07245   0.00629   0.00000   0.01795   0.01795   2.09041
   R13        2.89534  -0.00066   0.00000   0.00230   0.00230   2.89764
   R14        2.07126   0.00005   0.00000   0.00053   0.00053   2.07179
   R15        2.07433   0.00003   0.00000   0.00171   0.00171   2.07603
   R16        2.77618   0.00309   0.00000  -0.00293  -0.00293   2.77326
   R17        2.07254   0.00612   0.00000   0.01957   0.01957   2.09211
   R18        2.07146  -0.00091   0.00000  -0.00430  -0.00430   2.06716
   R19        2.76434   0.00349   0.00000   0.00594   0.00594   2.77028
   R20        1.92866  -0.00269   0.00000  -0.00449  -0.00449   1.92417
   R21        2.87629   0.00496   0.00000   0.00855   0.00855   2.88484
   R22        2.07114   0.00638   0.00000   0.01961   0.01961   2.09075
   R23        2.06822   0.00002   0.00000   0.00311   0.00311   2.07134
   R24        2.06982   0.00044   0.00000   0.00195   0.00195   2.07177
   R25        2.06888   0.00027   0.00000  -0.00087  -0.00087   2.06800
   R26        2.06983  -0.00050   0.00000  -0.00141  -0.00141   2.06842
    A1        1.91849   0.00044   0.00000   0.00589   0.00589   1.92438
    A2        1.94008  -0.00189   0.00000  -0.01165  -0.01165   1.92843
    A3        1.95222   0.00182   0.00000   0.00367   0.00364   1.95585
    A4        1.88139   0.00087   0.00000   0.00992   0.00994   1.89133
    A5        1.87647  -0.00086   0.00000  -0.00127  -0.00129   1.87517
    A6        1.89269  -0.00039   0.00000  -0.00608  -0.00610   1.88658
    A7        1.97426  -0.00060   0.00000  -0.00709  -0.00710   1.96716
    A8        1.92692  -0.00273   0.00000  -0.02147  -0.02140   1.90552
    A9        1.88333   0.00185   0.00000   0.01599   0.01602   1.89936
   A10        1.93559   0.00280   0.00000   0.01991   0.01983   1.95541
   A11        1.87901  -0.00119   0.00000  -0.00727  -0.00725   1.87176
   A12        1.85968  -0.00008   0.00000   0.00079   0.00086   1.86055
   A13        1.96968   0.00634   0.00000   0.02048   0.02054   1.99022
   A14        1.89565  -0.00148   0.00000  -0.01150  -0.01140   1.88426
   A15        1.89708  -0.00333   0.00000  -0.02097  -0.02090   1.87619
   A16        1.94807  -0.00025   0.00000  -0.00015  -0.00047   1.94759
   A17        1.93069  -0.00329   0.00000  -0.03410  -0.03397   1.89673
   A18        1.91812   0.00319   0.00000   0.03454   0.03432   1.95244
   A19        1.89588   0.00197   0.00000   0.00959   0.00945   1.90533
   A20        1.88792  -0.00019   0.00000   0.01501   0.01456   1.90249
   A21        1.88137  -0.00144   0.00000  -0.02502  -0.02478   1.85659
   A22        1.96738   0.00208   0.00000   0.01106   0.01103   1.97841
   A23        1.87624  -0.00029   0.00000   0.00855   0.00849   1.88473
   A24        1.91543   0.00001   0.00000  -0.00005   0.00001   1.91544
   A25        1.92275  -0.00031   0.00000   0.00046   0.00032   1.92307
   A26        1.91706  -0.00182   0.00000  -0.01571  -0.01571   1.90135
   A27        1.86164   0.00026   0.00000  -0.00464  -0.00467   1.85697
   A28        1.96667   0.00052   0.00000   0.00006   0.00014   1.96682
   A29        1.93594  -0.00391   0.00000  -0.03663  -0.03665   1.89929
   A30        1.90025  -0.00091   0.00000  -0.00635  -0.00644   1.89380
   A31        1.93028   0.00305   0.00000   0.02764   0.02753   1.95782
   A32        1.86746   0.00086   0.00000   0.01468   0.01459   1.88205
   A33        1.85846   0.00051   0.00000   0.00209   0.00149   1.85995
   A34        1.96608   0.00846   0.00000   0.02646   0.02653   1.99260
   A35        1.88860  -0.00171   0.00000  -0.00551  -0.00535   1.88326
   A36        1.89779  -0.00418   0.00000  -0.02065  -0.02061   1.87718
   A37        1.91394   0.00509   0.00000   0.02185   0.02147   1.93541
   A38        1.93115   0.00111   0.00000   0.02372   0.02312   1.95427
   A39        1.93546  -0.00512   0.00000  -0.03879  -0.03877   1.89669
   A40        1.90066  -0.00143   0.00000   0.01056   0.00991   1.91057
   A41        1.89240   0.00137   0.00000   0.01550   0.01578   1.90818
   A42        1.88938  -0.00106   0.00000  -0.03282  -0.03276   1.85662
   A43        1.94249  -0.00019   0.00000  -0.00441  -0.00444   1.93804
   A44        1.92193   0.00221   0.00000   0.01205   0.01205   1.93397
   A45        1.94071  -0.00099   0.00000  -0.00643  -0.00646   1.93425
   A46        1.88285  -0.00092   0.00000  -0.00321  -0.00320   1.87965
   A47        1.89012  -0.00005   0.00000  -0.00578  -0.00584   1.88427
   A48        1.88373  -0.00009   0.00000   0.00798   0.00797   1.89170
    D1        3.01993  -0.00058   0.00000   0.01502   0.01496   3.03489
    D2       -1.08271   0.00054   0.00000   0.01924   0.01929  -1.06342
    D3        0.94327   0.00003   0.00000   0.01770   0.01767   0.96094
    D4        0.93837  -0.00076   0.00000   0.00622   0.00619   0.94457
    D5        3.11892   0.00037   0.00000   0.01045   0.01052   3.12944
    D6       -1.13829  -0.00015   0.00000   0.00891   0.00890  -1.12939
    D7       -1.18012  -0.00020   0.00000   0.01969   0.01964  -1.16048
    D8        1.00043   0.00092   0.00000   0.02391   0.02397   1.02440
    D9        3.02640   0.00041   0.00000   0.02237   0.02235   3.04875
   D10        1.23333   0.00008   0.00000   0.05605   0.05600   1.28933
   D11       -2.94505  -0.00108   0.00000   0.03482   0.03477  -2.91028
   D12       -0.94251   0.00196   0.00000   0.07432   0.07437  -0.86814
   D13        1.16229   0.00080   0.00000   0.05310   0.05314   1.21543
   D14       -2.97069   0.00123   0.00000   0.06680   0.06681  -2.90388
   D15       -0.86589   0.00007   0.00000   0.04558   0.04558  -0.82031
   D16        3.03753   0.00041   0.00000   0.01663   0.01667   3.05420
   D17       -1.13248   0.00048   0.00000   0.00522   0.00537  -1.12711
   D18        0.94294  -0.00133   0.00000  -0.02514  -0.02542   0.91752
   D19        0.93355   0.00050   0.00000   0.03244   0.03253   0.96608
   D20        3.04672   0.00058   0.00000   0.02102   0.02123   3.06795
   D21       -1.16105  -0.00123   0.00000  -0.00934  -0.00956  -1.17061
   D22        1.10856  -0.00273   0.00000  -0.02543  -0.02552   1.08304
   D23       -3.05238  -0.00200   0.00000  -0.01205  -0.01208  -3.06446
   D24       -1.03415  -0.00184   0.00000  -0.01286  -0.01293  -1.04709
   D25       -1.02474   0.00022   0.00000   0.01096   0.01096  -1.01378
   D26        1.09750   0.00095   0.00000   0.02434   0.02441   1.12191
   D27        3.11573   0.00111   0.00000   0.02353   0.02355   3.13928
   D28       -3.06235   0.00096   0.00000   0.02729   0.02730  -3.03505
   D29       -0.94011   0.00169   0.00000   0.04068   0.04074  -0.89936
   D30        1.07812   0.00185   0.00000   0.03986   0.03989   1.11801
   D31        3.13865   0.00055   0.00000   0.02620   0.02625  -3.11829
   D32        0.96382  -0.00084   0.00000   0.01794   0.01803   0.98185
   D33       -1.07566   0.00134   0.00000   0.04035   0.04026  -1.03540
   D34        1.04298  -0.00026   0.00000   0.00762   0.00766   1.05064
   D35       -1.13185  -0.00165   0.00000  -0.00064  -0.00056  -1.13241
   D36        3.11186   0.00053   0.00000   0.02176   0.02167   3.13353
   D37       -1.00273   0.00069   0.00000   0.02240   0.02240  -0.98033
   D38        3.10562  -0.00070   0.00000   0.01414   0.01419   3.11981
   D39        1.06615   0.00148   0.00000   0.03655   0.03642   1.10256
   D40       -1.31332  -0.00022   0.00000  -0.02928  -0.02921  -1.34253
   D41        2.87127   0.00087   0.00000  -0.01625  -0.01622   2.85505
   D42        0.86461  -0.00264   0.00000  -0.05619  -0.05634   0.80827
   D43       -1.23399  -0.00154   0.00000  -0.04316  -0.04335  -1.27735
   D44        2.88191   0.00003   0.00000  -0.03109  -0.03095   2.85096
   D45        0.78331   0.00113   0.00000  -0.01807  -0.01796   0.76535
   D46       -3.06066  -0.00015   0.00000   0.00190   0.00163  -3.05903
   D47       -0.96372   0.00205   0.00000   0.04407   0.04432  -0.91940
   D48        1.13312  -0.00191   0.00000  -0.00700  -0.00681   1.12631
   D49       -0.96735   0.00023   0.00000  -0.00227  -0.00265  -0.97000
   D50        1.12959   0.00242   0.00000   0.03990   0.04004   1.16963
   D51       -3.05676  -0.00153   0.00000  -0.01117  -0.01109  -3.06785
   D52        1.06327   0.00162   0.00000   0.01626   0.01633   1.07959
   D53       -3.13277   0.00179   0.00000   0.01731   0.01736  -3.11541
   D54       -1.04566   0.00249   0.00000   0.03104   0.03107  -1.01459
   D55       -1.05216  -0.00199   0.00000  -0.03295  -0.03304  -1.08519
   D56        1.03500  -0.00182   0.00000  -0.03190  -0.03201   1.00299
   D57        3.12211  -0.00112   0.00000  -0.01817  -0.01829   3.10382
   D58       -3.10436  -0.00070   0.00000  -0.00832  -0.00824  -3.11260
   D59       -1.01721  -0.00053   0.00000  -0.00726  -0.00721  -1.02442
   D60        1.06990   0.00016   0.00000   0.00646   0.00650   1.07640
         Item               Value     Threshold  Converged?
 Maximum Force            0.008464     0.000450     NO 
 RMS     Force            0.002214     0.000300     NO 
 Maximum Displacement     0.148645     0.001800     NO 
 RMS     Displacement     0.048905     0.001200     NO 
 Predicted change in Energy=-2.067811D-03
 GradGradGradGradGradGradGradGradGradGradGradGradGradGradGradGradGradGrad

                          Input orientation:                          
 ---------------------------------------------------------------------
 Center     Atomic      Atomic             Coordinates (Angstroms)
 Number     Number       Type             X           Y           Z
 ---------------------------------------------------------------------
      1          6           0        3.993509   -0.720697    0.615671
      2          6           0        3.526228    0.101799   -0.586079
      3          7           0        2.071063    0.056760   -0.772217
      4          6           0        1.319079    0.849315    0.205938
      5          6           0       -0.179107    0.863188   -0.112195
      6          6           0       -0.823415   -0.527445   -0.065123
      7          7           0       -2.251406   -0.501460   -0.402541
      8          6           0       -3.114379   -0.012475    0.676923
      9          6           0       -4.586869   -0.125885    0.290405
     10          1           0        5.087287   -0.748521    0.653767
     11          1           0        3.624601   -1.748949    0.543113
     12          1           0        3.642925   -0.299893    1.563129
     13          1           0        3.899796    1.138035   -0.484586
     14          1           0        3.982799   -0.308137   -1.494274
     15          1           0        1.860873    0.430796   -1.695978
     16          1           0        1.471809    0.415230    1.201578
     17          1           0        1.685386    1.891666    0.260639
     18          1           0       -0.670995    1.532411    0.603456
     19          1           0       -0.343224    1.298700   -1.107330
     20          1           0       -0.637442   -0.973725    0.930826
     21          1           0       -0.318691   -1.168808   -0.793485
     22          1           0       -2.539408   -1.453959   -0.618389
     23          1           0       -2.939167   -0.555185    1.624990
     24          1           0       -2.870487    1.038085    0.872582
     25          1           0       -4.868864   -1.170984    0.116640
     26          1           0       -5.228856    0.263960    1.086303
     27          1           0       -4.793046    0.436177   -0.625915
 ---------------------------------------------------------------------
                    Distance matrix (angstroms):
                    1          2          3          4          5
     1  C    0.000000
     2  C    1.529397   0.000000
     3  N    2.495290   1.467714   0.000000
     4  C    3.128161   2.461215   1.466427   0.000000
     5  C    4.522079   3.812320   2.479761   1.531654   0.000000
     6  C    4.868632   4.425691   3.036326   2.561098   1.533365
     7  N    6.331176   5.811942   4.374015   3.865645   2.498197
     8  C    7.143347   6.760614   5.384571   4.540932   3.163118
     9  C    8.607118   8.163480   6.744670   5.986516   4.535275
    10  H    1.094795   2.167294   3.432130   4.117404   5.560504
    11  H    1.094833   2.170258   2.721059   3.489999   4.660567
    12  H    1.094377   2.189536   2.837568   2.926244   4.332135
    13  H    2.161998   1.106182   2.143865   2.687058   4.105078
    14  H    2.149928   1.096048   2.075874   3.365385   4.539119
    15  H    3.349298   2.028182   1.018537   2.021382   2.618559
    16  H    2.827117   2.741277   2.093674   1.096839   2.156893
    17  H    3.503986   2.703564   2.140658   1.106195   2.161736
    18  H    5.180177   4.591114   3.404247   2.141270   1.096344
    19  H    5.084678   4.083740   2.735597   2.165611   1.098589
    20  H    4.648553   4.560033   3.361287   2.770724   2.161530
    21  H    4.558683   4.054734   2.685776   2.784593   2.147707
    22  H    6.688765   6.262058   4.854109   4.568645   3.346106
    23  H    7.007718   6.864531   5.587797   4.703083   3.556336
    24  H    7.090399   6.627389   5.299743   4.246471   2.871219
    25  H    8.887825   8.520056   7.103520   6.510010   5.117034
    26  H    9.286714   8.914856   7.535638   6.632732   5.224503
    27  H    8.948935   8.326087   6.876144   6.182293   4.662047
                    6          7          8          9         10
     6  C    0.000000
     7  N    1.467544   0.000000
     8  C    2.462589   1.465971   0.000000
     9  C    3.801478   2.464877   1.526592   0.000000
    10  H    5.958361   7.418439   8.234660   9.700979   0.000000
    11  H    4.652620   6.080950   6.960395   8.374153   1.775542
    12  H    4.759325   6.216721   6.821226   8.329442   1.764763
    13  H    5.025783   6.366472   7.202183   8.615195   2.503013
    14  H    5.018990   6.332027   7.427749   8.755427   2.455180
    15  H    3.283796   4.410547   5.529945   6.769711   4.161951
    16  H    2.785896   4.156422   4.635873   6.150660   3.837460
    17  H    3.500328   4.654588   5.180424   6.588822   4.324126
    18  H    2.170999   2.765206   2.891747   4.264037   6.193786
    19  H    2.156753   2.716333   3.547117   4.689523   6.064901
    20  H    1.107098   2.146109   2.669024   4.089859   5.735852
    21  H    1.093894   2.081725   3.363789   4.525467   5.612110
    22  H    2.027108   1.018228   2.021459   2.604186   7.764180
    23  H    2.708072   2.141677   1.106375   2.163409   8.087312
    24  H    2.742385   2.092701   1.096103   2.154001   8.158799
    25  H    4.100346   2.751163   2.175839   1.096334   9.979575
    26  H    4.621690   3.415806   2.171410   1.094340  10.374729
    27  H    4.123230   2.718270   2.171773   1.094561  10.033049
                   11         12         13         14         15
    11  H    0.000000
    12  H    1.772154   0.000000
    13  H    3.076780   2.515304   0.000000
    14  H    2.520951   3.076246   1.765721   0.000000
    15  H    3.588253   3.785682   2.474847   2.255942   0.000000
    16  H    3.122781   2.314274   3.043144   3.754457   2.923602
    17  H    4.134540   3.214244   2.454982   3.632762   2.448119
    18  H    5.405840   4.784162   4.715029   5.426406   3.593231
    19  H    5.268374   5.057295   4.291485   4.630996   2.440862
    20  H    4.349288   4.378971   5.200909   5.260298   3.887719
    21  H    4.203881   4.690740   4.817944   4.442373   2.850216
    22  H    6.279420   6.656735   6.942600   6.679766   4.906728
    23  H    6.758593   6.587331   7.354504   7.596344   5.919575
    24  H    7.075470   6.685175   6.905696   7.374405   5.417755
    25  H    8.523783   8.677654   9.087488   9.038334   7.151269
    26  H    9.095634   8.902459   9.303977   9.583384   7.617951
    27  H    8.774861   8.746389   8.722276   8.850057   6.739415
                   16         17         18         19         20
    16  H    0.000000
    17  H    1.763759   0.000000
    18  H    2.489468   2.408135   0.000000
    19  H    3.066907   2.517579   1.757511   0.000000
    20  H    2.539968   3.749018   2.527649   3.066685   0.000000
    21  H    3.113734   3.807099   3.061396   2.487508   1.764343
    22  H    4.784977   5.460291   3.728576   3.555196   2.499634
    23  H    4.536263   5.406942   3.247490   4.200164   2.440282
    24  H    4.399059   4.675366   2.270364   3.221029   3.006204
    25  H    6.625503   7.235934   5.016716   5.298949   4.313554
    26  H    6.703363   7.151075   4.755650   5.454550   4.757848
    27  H    6.525992   6.698844   4.438963   4.558138   4.656212
                   21         22         23         24         25
    21  H    0.000000
    22  H    2.245786   0.000000
    23  H    3.618348   2.449561   0.000000
    24  H    3.762687   2.922822   1.763333   0.000000
    25  H    4.640302   2.459005   2.525482   3.073263   0.000000
    26  H    5.449417   3.618059   2.490755   2.491355   1.768872
    27  H    4.756460   2.941352   3.079974   2.510780   1.772033
                   26         27
    26  H    0.000000
    27  H    1.775184   0.000000
 Stoichiometry    C7H18N2
 Framework group  C1[X(C7H18N2)]
 Deg. of freedom    75
 Full point group                 C1      NOp   1
 Largest Abelian subgroup         C1      NOp   1
 Largest concise Abelian subgroup C1      NOp   1
                         Standard orientation:                         
 ---------------------------------------------------------------------
 Center     Atomic      Atomic             Coordinates (Angstroms)
 Number     Number       Type             X           Y           Z
 ---------------------------------------------------------------------
      1          6           0       -3.957601    0.998810    0.458967
      2          6           0       -3.556879   -0.222769   -0.369418
      3          7           0       -2.111761   -0.290309   -0.616915
      4          6           0       -1.323046   -0.685044    0.554632
      5          6           0        0.158138   -0.857343    0.204819
      6          6           0        0.819230    0.433432   -0.293240
      7          7           0        2.229255    0.244699   -0.653649
      8          6           0        3.136973    0.166259    0.494814
      9          6           0        4.590652    0.087546    0.035353
     10          1           0       -5.047972    1.069156    0.527653
     11          1           0       -3.581243    1.916471   -0.004619
     12          1           0       -3.567170    0.949058    1.480118
     13          1           0       -3.936609   -1.137004    0.124162
     14          1           0       -4.051431   -0.165629   -1.345879
     15          1           0       -1.949714   -0.985420   -1.343537
     16          1           0       -1.423633    0.090836    1.323364
     17          1           0       -1.697807   -1.622479    1.006780
     18          1           0        0.675985   -1.227501    1.097448
     19          1           0        0.270108   -1.634677   -0.563369
     20          1           0        0.685587    1.221674    0.472580
     21          1           0        0.287653    0.773373   -1.186812
     22          1           0        2.517179    1.041226   -1.218833
     23          1           0        3.012871    1.026016    1.180001
     24          1           0        2.891070   -0.730022    1.075894
     25          1           0        4.875590    0.985803   -0.524910
     26          1           0        5.265300    0.002335    0.892774
     27          1           0        4.746974   -0.779288   -0.614436
 ---------------------------------------------------------------------
 Rotational constants (GHZ):           5.3593912           0.4571818           0.4523559
 Standard basis: 6-31G(d,p) (6D, 7F)
 There are   225 symmetry adapted cartesian basis functions of A   symmetry.
 There are   225 symmetry adapted basis functions of A   symmetry.
   225 basis functions,   378 primitive gaussians,   225 cartesian basis functions
    37 alpha electrons       37 beta electrons
       nuclear repulsion energy       467.5703391065 Hartrees.
 NAtoms=   27 NActive=   27 NUniq=   27 SFac= 1.00D+00 NAtFMM=   60 NAOKFM=F Big=F
 Integral buffers will be    131072 words long.
 Raffenetti 2 integral format.
 Two-electron integral symmetry is turned on.
 ------------------------------------------------------------------------------
 Polarizable Continuum Model (PCM)
 =================================
 Model                : PCM.
 Atomic radii         : UFF (Universal Force Field).
 Polarization charges : Total charges.
 Charge compensation  : None.
 Solution method      : Matrix inversion.
 Cavity type          : Scaled VdW (van der Waals Surface) (Alpha=1.100).
 Cavity algorithm     : GePol (No added spheres)
                        Default sphere list used, NSphG=   27.
                        Lebedev-Laikov grids with approx.  5.0 points / Ang**2.
                        Smoothing algorithm: York/Karplus (Gamma=1.0000).
                        Polarization charges: spherical gaussians, with
                                              point-specific exponents (IZeta= 3).
                        Self-potential: point-specific (ISelfS= 7).
                        Self-field    : sphere-specific E.n sum rule (ISelfD= 2).
 1st derivatives      : Analytical E(r).r(x)/FMM algorithm (CHGder, D1EAlg=3).
                        Cavity 1st derivative terms included.
 Solvent              : Water, Eps=  78.355300 Eps(inf)=   1.777849
 ------------------------------------------------------------------------------
 One-electron integrals computed using PRISM.
 NBasis=   225 RedAO= T EigKep=  3.09D-03  NBF=   225
 NBsUse=   225 1.00D-06 EigRej= -1.00D+00 NBFU=   225
 Initial guess from the checkpoint file:  "BEPGHZIEOVULBU-UHFFFAOYSA-N_conf_3_0.chk"
[...]
    24  H    0.105569
    25  H    0.107017
    26  H    0.107741
    27  H    0.110126
 Sum of Mulliken charges =  -0.00000
 Mulliken charges with hydrogens summed into heavy atoms:
               1
     1  C   -0.005122
     2  C    0.096274
     3  N   -0.202252
     4  C    0.159217
     5  C   -0.038074
     6  C    0.130612
     7  N   -0.281922
     8  C    0.151448
     9  C   -0.010182
 Electronic spatial extent (au):  <R**2>=           2613.3339
 Charge=              0.0000 electrons
 Dipole moment (field-independent basis, Debye):
    X=             -0.2383    Y=              1.8055    Z=              2.4751  Tot=              3.0729
 Quadrupole moment (field-independent basis, Debye-Ang):
   XX=            -59.6061   YY=            -61.3703   ZZ=            -64.1763
   XY=              2.1332   XZ=             -2.2655   YZ=             -4.5272
 Traceless Quadrupole moment (field-independent basis, Debye-Ang):
   XX=              2.1114   YY=              0.3473   ZZ=             -2.4587
   XY=              2.1332   XZ=             -2.2655   YZ=             -4.5272
 Octapole moment (field-independent basis, Debye-Ang**2):
  XXX=             20.5324  YYY=              8.7483  ZZZ=              8.6916  XYY=              8.1666
  XXY=              5.9603  XXZ=             14.6596  XZZ=              9.5141  YZZ=              6.4221
  YYZ=              1.9609  XYZ=              0.3568
 Hexadecapole moment (field-independent basis, Debye-Ang**3):
 XXXX=          -3172.3867 YYYY=           -265.7267 ZZZZ=           -220.1461 XXXY=             34.4218
 XXXZ=            -23.9866 YYYX=             -1.3957 YYYZ=            -14.7021 ZZZX=            -22.5554
 ZZZY=            -14.4014 XXYY=           -568.1390 XXZZ=           -585.6369 YYZZ=            -79.6275
 XXYZ=            -23.7979 YYXZ=            -13.3430 ZZXY=             -3.4706
 N-N= 4.672867692518D+02 E-N=-1.829583868699D+03  KE= 3.834437459604D+02
 Evaluate density.
 Using the total density.
 Monte-Carlo method of calculating molar volume:
 based on  0.001 e/bohr**3 density envelope.
 Number of points per bohr**3 =   20 CutOff= 1.00D-04
 Using the CI density.
 There are       384 points.  Will hold       384 in memory.
 LenV=  1073603038 MDV=  1073741824.
 Box volume = 7129.738 fraction occupied=0.224
 Integrated density= 7.6711950894959173D+01 error= 2.7119508949591733D+00
 Molar volume = 1596.764 bohr**3/mol (142.494 cm**3/mol)
 Recommended a0 for SCRF calculation =  4.72 angstrom (  8.93 bohr)
 ******************************Gaussian NBO Version 3.1******************************
             N A T U R A L   A T O M I C   O R B I T A L   A N D
          N A T U R A L   B O N D   O R B I T A L   A N A L Y S I S
 ******************************Gaussian NBO Version 3.1******************************
       /RESON  / : Allow strongly delocalized NBO set

 Analyzing the CI density

 Job title: BEPGHZIEOVULBU-UHFFFAOYSA-N_conf_3                              

 Storage needed:    154314 in NPA (1073737909 available)
 GSVD:  LWork=       26433 too small for GESVD, short by       20979 words or       20979 for optimal perf.


 NATURAL POPULATIONS:  Natural atomic orbital occupancies 
                                                          
   NAO  Atom  No  lang   Type(AO)    Occupancy
 --------------------------------------------
     1    C    1  S      Cor( 1S)     1.99944
     2    C    1  S      Val( 2S)     1.11491
     3    C    1  S      Ryd( 3S)     0.00049
     4    C    1  S      Ryd( 4S)     0.00001
     5    C    1  px     Val( 2p)     1.24983
     6    C    1  px     Ryd( 3p)     0.00216
     7    C    1  py     Val( 2p)     1.12447
     8    C    1  py     Ryd( 3p)     0.00210
     9    C    1  pz     Val( 2p)     1.20420
    10    C    1  pz     Ryd( 3p)     0.00223
    11    C    1  dxy    Ryd( 3d)     0.00030
    12    C    1  dxz    Ryd( 3d)     0.00041
    13    C    1  dyz    Ryd( 3d)     0.00058
    14    C    1  dx2y2  Ryd( 3d)     0.00085
    15    C    1  dz2    Ryd( 3d)     0.00062

    16    C    2  S      Cor( 1S)     1.99935
    17    C    2  S      Val( 2S)     1.05432
    18    C    2  S      Ryd( 3S)     0.00197
    19    C    2  S      Ryd( 4S)     0.00004
    20    C    2  px     Val( 2p)     0.90316
    21    C    2  px     Ryd( 3p)     0.00570
    22    C    2  py     Val( 2p)     1.14792
    23    C    2  py     Ryd( 3p)     0.00171
    24    C    2  pz     Val( 2p)     1.21650
    25    C    2  pz     Ryd( 3p)     0.00424
    26    C    2  dxy    Ryd( 3d)     0.00046
    27    C    2  dxz    Ryd( 3d)     0.00092
    28    C    2  dyz    Ryd( 3d)     0.00064
    29    C    2  dx2y2  Ryd( 3d)     0.00139
    30    C    2  dz2    Ryd( 3d)     0.00091

    31    N    3  S      Cor( 1S)     1.99933
    32    N    3  S      Val( 2S)     1.42182
    33    N    3  S      Ryd( 3S)     0.00736
    34    N    3  S      Ryd( 4S)     0.00006
    35    N    3  px     Val( 2p)     1.24982
    36    N    3  px     Ryd( 3p)     0.00114
    37    N    3  py     Val( 2p)     1.16803
    38    N    3  py     Ryd( 3p)     0.00234
    39    N    3  pz     Val( 2p)     1.36026
    40    N    3  pz     Ryd( 3p)     0.00240
    41    N    3  dxy    Ryd( 3d)     0.00042
    42    N    3  dxz    Ryd( 3d)     0.00077
    43    N    3  dyz    Ryd( 3d)     0.00098
    44    N    3  dx2y2  Ryd( 3d)     0.00063
    45    N    3  dz2    Ryd( 3d)     0.00038

    46    C    4  S      Cor( 1S)     1.99930
    47    C    4  S      Val( 2S)     1.05571
    48    C    4  S      Ryd( 3S)     0.00239
    49    C    4  S      Ryd( 4S)     0.00003
    50    C    4  px     Val( 2p)     1.02226
    51    C    4  px     Ryd( 3p)     0.00422
    52    C    4  py     Val( 2p)     1.21088
    53    C    4  py     Ryd( 3p)     0.00354
    54    C    4  pz     Val( 2p)     1.03637
    55    C    4  pz     Ryd( 3p)     0.00506
    56    C    4  dxy    Ryd( 3d)     0.00075
    57    C    4  dxz    Ryd( 3d)     0.00113
    58    C    4  dyz    Ryd( 3d)     0.00104
    59    C    4  dx2y2  Ryd( 3d)     0.00070
    60    C    4  dz2    Ryd( 3d)     0.00076

    61    C    5  S      Cor( 1S)     1.99932
    62    C    5  S      Val( 2S)     1.04306
    63    C    5  S      Ryd( 3S)     0.00109
    64    C    5  S      Ryd( 4S)     0.00003
    65    C    5  px     Val( 2p)     1.06224
    66    C    5  px     Ryd( 3p)     0.00611
    67    C    5  py     Val( 2p)     1.13945
    68    C    5  py     Ryd( 3p)     0.00152
    69    C    5  pz     Val( 2p)     1.23932
    70    C    5  pz     Ryd( 3p)     0.00415
    71    C    5  dxy    Ryd( 3d)     0.00043
    72    C    5  dxz    Ryd( 3d)     0.00049
    73    C    5  dyz    Ryd( 3d)     0.00096
    74    C    5  dx2y2  Ryd( 3d)     0.00063
    75    C    5  dz2    Ryd( 3d)     0.00047

    76    C    6  S      Cor( 1S)     1.99934
    77    C    6  S      Val( 2S)     1.01796
    78    C    6  S      Ryd( 3S)     0.00198
    79    C    6  S      Ryd( 4S)     0.00004
    80    C    6  px     Val( 2p)     0.91606
    81    C    6  px     Ryd( 3p)     0.00332
    82    C    6  py     Val( 2p)     1.11007
    83    C    6  py     Ryd( 3p)     0.00221
    84    C    6  pz     Val( 2p)     1.20689
    85    C    6  pz     Ryd( 3p)     0.00513
    86    C    6  dxy    Ryd( 3d)     0.00107
    87    C    6  dxz    Ryd( 3d)     0.00109
    88    C    6  dyz    Ryd( 3d)     0.00107
    89    C    6  dx2y2  Ryd( 3d)     0.00108
    90    C    6  dz2    Ryd( 3d)     0.00054

    91    N    7  S      Cor( 1S)     1.99955
    92    N    7  S      Val( 2S)     1.35961
    93    N    7  S      Ryd( 3S)     0.00094
    94    N    7  S      Ryd( 4S)     0.00002
    95    N    7  px     Val( 2p)     1.22474
    96    N    7  px     Ryd( 3p)     0.00194
    97    N    7  py     Val( 2p)     1.64482
    98    N    7  py     Ryd( 3p)     0.00495
    99    N    7  pz     Val( 2p)     1.47194
   100    N    7  pz     Ryd( 3p)     0.00343
   101    N    7  dxy    Ryd( 3d)     0.00063
   102    N    7  dxz    Ryd( 3d)     0.00080
   103    N    7  dyz    Ryd( 3d)     0.00111
   104    N    7  dx2y2  Ryd( 3d)     0.00112
   105    N    7  dz2    Ryd( 3d)     0.00069

   106    C    8  S      Cor( 1S)     1.99938
   107    C    8  S      Val( 2S)     1.02101
   108    C    8  S      Ryd( 3S)     0.00189
   109    C    8  S      Ryd( 4S)     0.00003
   110    C    8  px     Val( 2p)     0.97312
   111    C    8  px     Ryd( 3p)     0.00245
   112    C    8  py     Val( 2p)     1.22851
   113    C    8  py     Ryd( 3p)     0.00212
   114    C    8  pz     Val( 2p)     1.02810
   115    C    8  pz     Ryd( 3p)     0.00203
   116    C    8  dxy    Ryd( 3d)     0.00060
   117    C    8  dxz    Ryd( 3d)     0.00118
   118    C    8  dyz    Ryd( 3d)     0.00145
   119    C    8  dx2y2  Ryd( 3d)     0.00095
   120    C    8  dz2    Ryd( 3d)     0.00070

   121    C    9  S      Cor( 1S)     1.99946
   122    C    9  S      Val( 2S)     1.10939
   123    C    9  S      Ryd( 3S)     0.00042
   124    C    9  S      Ryd( 4S)     0.00001
   125    C    9  px     Val( 2p)     1.10460
   126    C    9  px     Ryd( 3p)     0.00137
   127    C    9  py     Val( 2p)     1.24577
   128    C    9  py     Ryd( 3p)     0.00113
   129    C    9  pz     Val( 2p)     1.23084
   130    C    9  pz     Ryd( 3p)     0.00177
   131    C    9  dxy    Ryd( 3d)     0.00028
   132    C    9  dxz    Ryd( 3d)     0.00071
   133    C    9  dyz    Ryd( 3d)     0.00084
   134    C    9  dx2y2  Ryd( 3d)     0.00070
   135    C    9  dz2    Ryd( 3d)     0.00022

   136    H   10  S      Val( 1S)     0.77849
   137    H   10  S      Ryd( 2S)     0.01247
   138    H   10  px     Ryd( 2p)     0.00034
   139    H   10  py     Ryd( 2p)     0.00008
   140    H   10  pz     Ryd( 2p)     0.00008

   141    H   11  S      Val( 1S)     0.75662
   142    H   11  S      Ryd( 2S)     0.00347
   143    H   11  px     Ryd( 2p)     0.00010
   144    H   11  py     Ryd( 2p)     0.00027
   145    H   11  pz     Ryd( 2p)     0.00014

   146    H   12  S      Val( 1S)     0.76352
   147    H   12  S      Ryd( 2S)     0.00653
   148    H   12  px     Ryd( 2p)     0.00014
   149    H   12  py     Ryd( 2p)     0.00010
   150    H   12  pz     Ryd( 2p)     0.00030

   151    H   13  S      Val( 1S)     0.72748
   152    H   13  S      Ryd( 2S)     0.02387
   153    H   13  px     Ryd( 2p)     0.00013
   154    H   13  py     Ryd( 2p)     0.00027
   155    H   13  pz     Ryd( 2p)     0.00015

   156    H   14  S      Val( 1S)     0.80012
   157    H   14  S      Ryd( 2S)     0.04075
   158    H   14  px     Ryd( 2p)     0.00015
   159    H   14  py     Ryd( 2p)     0.00006
   160    H   14  pz     Ryd( 2p)     0.00029

   161    H   15  S      Val( 1S)     0.78355
   162    H   15  S      Ryd( 2S)     0.10565
   163    H   15  px     Ryd( 2p)     0.00020
   164    H   15  py     Ryd( 2p)     0.00042
   165    H   15  pz     Ryd( 2p)     0.00043

   166    H   16  S      Val( 1S)     0.74765
   167    H   16  S      Ryd( 2S)     0.01488
   168    H   16  px     Ryd( 2p)     0.00008
   169    H   16  py     Ryd( 2p)     0.00022
   170    H   16  pz     Ryd( 2p)     0.00025

   171    H   17  S      Val( 1S)     0.72243
   172    H   17  S      Ryd( 2S)     0.03004
   173    H   17  px     Ryd( 2p)     0.00010
   174    H   17  py     Ryd( 2p)     0.00032
   175    H   17  pz     Ryd( 2p)     0.00013

   176    H   18  S      Val( 1S)     0.76676
   177    H   18  S      Ryd( 2S)     0.00693
   178    H   18  px     Ryd( 2p)     0.00017
   179    H   18  py     Ryd( 2p)     0.00014
   180    H   18  pz     Ryd( 2p)     0.00023

   181    H   19  S      Val( 1S)     0.77397
   182    H   19  S      Ryd( 2S)     0.02414
   183    H   19  px     Ryd( 2p)     0.00013
   184    H   19  py     Ryd( 2p)     0.00018
   185    H   19  pz     Ryd( 2p)     0.00024

   186    H   20  S      Val( 1S)     0.79545
   187    H   20  S      Ryd( 2S)     0.00445
   188    H   20  px     Ryd( 2p)     0.00007
   189    H   20  py     Ryd( 2p)     0.00023
   190    H   20  pz     Ryd( 2p)     0.00027

   191    H   21  S      Val( 1S)     0.76774
   192    H   21  S      Ryd( 2S)     0.00486
   193    H   21  px     Ryd( 2p)     0.00014
   194    H   21  py     Ryd( 2p)     0.00016
   195    H   21  pz     Ryd( 2p)     0.00026

   196    H   22  S      Val( 1S)     0.60623
   197    H   22  S      Ryd( 2S)     0.00279
   198    H   22  px     Ryd( 2p)     0.00029
   199    H   22  py     Ryd( 2p)     0.00067
   200    H   22  pz     Ryd( 2p)     0.00047

   201    H   23  S      Val( 1S)     0.79682
   202    H   23  S      Ryd( 2S)     0.00299
   203    H   23  px     Ryd( 2p)     0.00010
   204    H   23  py     Ryd( 2p)     0.00025
   205    H   23  pz     Ryd( 2p)     0.00021

   206    H   24  S      Val( 1S)     0.77360
   207    H   24  S      Ryd( 2S)     0.00202
   208    H   24  px     Ryd( 2p)     0.00011
   209    H   24  py     Ryd( 2p)     0.00032
   210    H   24  pz     Ryd( 2p)     0.00014

   211    H   25  S      Val( 1S)     0.76957
   212    H   25  S      Ryd( 2S)     0.00139
   213    H   25  px     Ryd( 2p)     0.00011
   214    H   25  py     Ryd( 2p)     0.00027
   215    H   25  pz     Ryd( 2p)     0.00014

   216    H   26  S      Val( 1S)     0.75863
   217    H   26  S      Ryd( 2S)     0.00091
   218    H   26  px     Ryd( 2p)     0.00020
   219    H   26  py     Ryd( 2p)     0.00009
   220    H   26  pz     Ryd( 2p)     0.00023

   221    H   27  S      Val( 1S)     0.76435
   222    H   27  S      Ryd( 2S)     0.00164
   223    H   27  px     Ryd( 2p)     0.00008
   224    H   27  py     Ryd( 2p)     0.00023
   225    H   27  pz     Ryd( 2p)     0.00019


 Summary of Natural Population Analysis:                  
                                                          
                                       Natural Population 
                Natural  -----------------------------------------------
    Atom  No    Charge         Core      Valence    Rydberg      Total
 -----------------------------------------------------------------------
      C    1   -0.70261      1.99944     4.69341    0.00975     6.70261
      C    2   -0.33923      1.99935     4.32190    0.01797     6.33923
      N    3   -0.21573      1.99933     5.19992    0.01647     7.21573
      C    4   -0.34417      1.99930     4.32523    0.01964     6.34417
      C    5   -0.49927      1.99932     4.48408    0.01587     6.49927
      C    6   -0.26785      1.99934     4.25098    0.01752     6.26785
      N    7   -0.71629      1.99955     5.70110    0.01563     7.71629
      C    8   -0.26352      1.99938     4.25075    0.01339     6.26352
      C    9   -0.69750      1.99946     4.69060    0.00744     6.69750
      H   10    0.20854      0.00000     0.77849    0.01297     0.79146
      H   11    0.23940      0.00000     0.75662    0.00398     0.76060
      H   12    0.22942      0.00000     0.76352    0.00705     0.77058
      H   13    0.24810      0.00000     0.72748    0.02442     0.75190
      H   14    0.15863      0.00000     0.80012    0.04125     0.84137
      H   15    0.10976      0.00000     0.78355    0.10670     0.89024
      H   16    0.23692      0.00000     0.74765    0.01543     0.76308
      H   17    0.24697      0.00000     0.72243    0.03059     0.75303
      H   18    0.22577      0.00000     0.76676    0.00747     0.77423
      H   19    0.20134      0.00000     0.77397    0.02470     0.79866
      H   20    0.19954      0.00000     0.79545    0.00501     0.80046
      H   21    0.22683      0.00000     0.76774    0.00543     0.77317
      H   22    0.38956      0.00000     0.60623    0.00421     0.61044
      H   23    0.19962      0.00000     0.79682    0.00355     0.80038
      H   24    0.22382      0.00000     0.77360    0.00258     0.77618
      H   25    0.22851      0.00000     0.76957    0.00192     0.77149
      H   26    0.23994      0.00000     0.75863    0.00143     0.76006
      H   27    0.23350      0.00000     0.76435    0.00215     0.76650
 =======================================================================
   * Total *    0.00000     17.99449    55.57096    0.43455    74.00000

                                 Natural Population      
 --------------------------------------------------------
   Core                      17.99449 ( 99.9694% of  18)
   Valence                   55.57096 ( 99.2339% of  56)
   Natural Minimal Basis     73.56545 ( 99.4128% of  74)
   Natural Rydberg Basis      0.43455 (  0.5872% of  74)
 --------------------------------------------------------

    Atom  No          Natural Electron Configuration
 ----------------------------------------------------------------------------
      C    1      [core]2S( 1.11)2p( 3.58)3p( 0.01)
      C    2      [core]2S( 1.05)2p( 3.27)3p( 0.01)
      N    3      [core]2S( 1.42)2p( 3.78)3S( 0.01)3p( 0.01)
      C    4      [core]2S( 1.06)2p( 3.27)3p( 0.01)
      C    5      [core]2S( 1.04)2p( 3.44)3p( 0.01)
      C    6      [core]2S( 1.02)2p( 3.23)3p( 0.01)
      N    7      [core]2S( 1.36)2p( 4.34)3p( 0.01)
      C    8      [core]2S( 1.02)2p( 3.23)3p( 0.01)
      C    9      [core]2S( 1.11)2p( 3.58)
      H   10            1S( 0.78)2S( 0.01)
      H   11            1S( 0.76)
      H   12            1S( 0.76)2S( 0.01)
      H   13            1S( 0.73)2S( 0.02)
      H   14            1S( 0.80)2S( 0.04)
      H   15            1S( 0.78)2S( 0.11)
      H   16            1S( 0.75)2S( 0.01)
      H   17            1S( 0.72)2S( 0.03)
      H   18            1S( 0.77)2S( 0.01)
      H   19            1S( 0.77)2S( 0.02)
      H   20            1S( 0.80)
      H   21            1S( 0.77)
      H   22            1S( 0.61)
      H   23            1S( 0.80)
      H   24            1S( 0.77)
      H   25            1S( 0.77)
      H   26            1S( 0.76)
      H   27            1S( 0.76)


 NBO analysis skipped by request.
 1\1\GINC-CN33\SP\RB3LYP TD-FC\6-31G(d,p)\C7H18N2\QDUEZ\11-Jul-2024\0\\
 # TD(NStates=10, Root=1) B3LYP/6-31G** SCRF=(Solvent=water) volume pop
 =NPA density=current Geom=AllCheck Guess=Read\\BEPGHZIEOVULBU-UHFFFAOY
 SA-N_conf_3\\0,1\C,0,3.9800850043,-0.7892410583,0.5711439032\C,0,3.527
 8499092,0.1157654417,-0.5764352676\N,0,2.0735215346,0.0879710321,-0.77
 62551835\C,0,1.3224320678,0.8949436982,0.1906285892\C,0,-0.1791743814,
 0.883682171,-0.1105464977\C,0,-0.8112086423,-0.5088733049,0.0047855784
 \N,0,-2.2312867351,-0.5167391945,-0.3648467461\C,0,-3.1268406196,-0.00
 95643572,0.6791131623\C,0,-4.58853776,-0.1492987128,0.2612218548\H,0,5
 .0719881617,-0.785207378,0.6522522901\H,0,3.6494441173,-1.8188546503,0
 .4011288409\H,0,3.5778335295,-0.4594578297,1.5342748201\H,0,3.90268499
 08,1.1415565411,-0.3997572053\H,0,3.9926417541,-0.2307328342,-1.506396
 75\H,0,1.874744997,0.4563139872,-1.7045456039\H,0,1.4915317495,0.48270
 86962,1.1933329578\H,0,1.6792917139,1.9416174986,0.2235622093\H,0,-0.6
 702575928,1.5815741862,0.577959046\H,0,-0.357656783,1.270589437,-1.123
 3135007\H,0,-0.6441832546,-0.8918643412,1.030387301\H,0,-0.2816070024,
 -1.1859312347,-0.6716965063\H,0,-2.499939226,-1.4791131024,-0.56071472
 25\H,0,-2.9672446559,-0.5189248358,1.6486940671\H,0,-2.8989436924,1.04
 93548486,0.8495125449\H,0,-4.8544258835,-1.2014231822,0.1048068911\H,0
 ,-5.2538905431,0.2506769226,1.0324763012\H,0,-4.7788527576,0.388471555
 7,-0.6729253228\\Version=EM64L-G16RevA.03\State=1-A\HF=-387.1052914\RM
 SD=2.018e-09\Dipole=0.1554423,-0.3501706,1.1466571\Quadrupole=1.617301
 2,2.1657008,-3.783002,2.1428793,0.7811095,1.8992424\PG=C01 [X(C7H18N2)
 ]\\@


 Not by the face shall a man be known, but by the mask.
                               -- Karen Blixen
 Job cpu time:       0 days  1 hours  4 minutes 32.4 seconds.
 Elapsed time:       0 days  0 hours 27 minutes 43.7 seconds.
 File lengths (MBytes):  RWF=    459 Int=      0 D2E=      0 Chk=     29 Scr=      1
 Normal termination of Gaussian 16 at Thu Jul 11 18:42:19 2024.
