 Entering Gaussian System, Link 0=g16
 Initial command:
 /opt/sw/arch/manual/gaussian/G16_A03/g16/l1.exe "/scratch/1032040.jesse.materianova.be/Gau-17361.inp" -scrdir="/scratch/1032040.jesse.materianova.be/"
 Entering Link 1 = /opt/sw/arch/manual/gaussian/G16_A03/g16/l1.exe PID=     17363.
  
 Copyright (c) 1988,1990,1992,1993,1995,1998,2003,2009,2016,
            Gaussian, Inc.  All Rights Reserved.
  
 This is part of the Gaussian(R) 16 program.  It is based on
 the Gaussian(R) 09 system (copyright 2009, Gaussian, Inc.),
 the Gaussian(R) 03 system (copyright 2003, Gaussian, Inc.),
 the Gaussian(R) 98 system (copyright 1998, Gaussian, Inc.),
 the Gaussian(R) 94 system (copyright 1995, Gaussian, Inc.),
 the Gaussian 92(TM) system (copyright 1992, Gaussian, Inc.),
 the Gaussian 90(TM) system (copyright 1990, Gaussian, Inc.),
 the Gaussian 88(TM) system (copyright 1988, Gaussian, Inc.),
 the Gaussian 86(TM) system (copyright 1986, Carnegie Mellon
 University), and the Gaussian 82(TM) system (copyright 1983,
 Carnegie Mellon University). Gaussian is a federally registered
 trademark of Gaussian, Inc.
  
 This software contains proprietary and confidential information,
 including trade secrets, belonging to Gaussian, Inc.
  
 This software is provided under written license and may be
 used, copied, transmitted, or stored only in accord with that
 written license.
  
 The following legend is applicable only to US Government
 contracts under FAR:
  
                    RESTRICTED RIGHTS LEGEND
  
 Use, reproduction and disclosure by the US Government is
 subject to restrictions as set forth in subparagraphs (a)
 and (c) of the Commercial Computer Software - Restricted
 Rights clause in FAR 52.227-19.
  
 Gaussian, Inc.
 340 Quinnipiac St., Bldg. 40, Wallingford CT 06492
  
  
 ---------------------------------------------------------------
 Warning -- This program may not be used in any manner that
 competes with the business of Gaussian, Inc. or will provide
 assistance to any competitor of Gaussian, Inc.  The licensee
 of this program is prohibited from giving any competitor of
 Gaussian, Inc. access to this program.  By using this program,
 the user acknowledges that Gaussian, Inc. is engaged in the
 business of creating and licensing software in the field of
 computational chemistry and represents and warrants to the
 licensee that it is not a competitor of Gaussian, Inc. and that
 it will not use this program in any manner prohibited above.
 ---------------------------------------------------------------
  

 Cite this work as:
 Gaussian 16, Revision A.03,
 M. J. Frisch, G. W. Trucks, H. B. Schlegel, G. E. Scuseria, 
 M. A. Robb, J. R. Cheeseman, G. Scalmani, V. Barone, 
 G. A. Petersson, H. Nakatsuji, X. Li, M. Caricato, A. V. Marenich, 
 J. Bloino, B. G. Janesko, R. Gomperts, B. Mennucci, H. P. Hratchian, 
 J. V. Ortiz, A. F. Izmaylov, J. L. Sonnenberg, D. Williams-Young, 
 F. Ding, F. Lipparini, F. Egidi, J. Goings, B. Peng, A. Petrone, 
 T. Henderson, D. Ranasinghe, V. G. Zakrzewski, J. Gao, N. Rega, 
 G. Zheng, W. Liang, M. Hada, M. Ehara, K. Toyota, R. Fukuda, 
 J. Hasegawa, M. Ishida, T. Nakajima, Y. Honda, O. Kitao, H. Nakai, 
 T. Vreven, K. Throssell, J. A. Montgomery, Jr., J. E. Peralta, 
 F. Ogliaro, M. J. Bearpark, J. J. Heyd, E. N. Brothers, K. N. Kudin, 
 V. N. Staroverov, T. A. Keith, R. Kobayashi, J. Normand, 
 K. Raghavachari, A. P. Rendell, J. C. Burant, S. S. Iyengar, 
 J. Tomasi, M. Cossi, J. M. Millam, M. Klene, C. Adamo, R. Cammi, 
 J. W. Ochterski, R. L. Martin, K. Morokuma, O. Farkas, 
 J. B. Foresman, and D. J. Fox, Gaussian, Inc., Wallingford CT, 2016.
 
 ******************************************
 Gaussian 16:  EM64L-G16RevA.03 25-Dec-2016
                11-Jul-2024 
 ******************************************
 %nprocshared=2
 Will use up to    2 processors via shared memory.
 %mem=4GB
 %Chk=CBCKQZAAMUWICA-UHFFFAOYSA-N_conf_0_0.chk
 -------------------------------------------------------
 # opt=CalcFc B3LYP/6-31G** SCRF=(Solvent=water) scf=xqc
 -------------------------------------------------------
 1/10=4,18=20,19=15,26=3,38=1/1,3;
 2/9=110,12=2,17=6,18=5,40=1/2;
 3/5=1,6=6,7=101,11=2,25=1,30=1,70=2201,71=2,72=1,74=-5,140=1/1,2,3;
 4//1;
 5/5=2,8=3,13=1,38=5,53=1/2,8;
 8/6=4,10=90,11=11/1;
 11/6=1,8=1,9=11,15=111,16=1/1,2,10;
 10/6=1,13=1/2;
 6/7=2,8=2,9=2,10=2,28=1/1;
 7/10=1,18=20,25=1/1,2,3,16;
 1/10=4,18=20,19=15,26=3/3(2);
 2/9=110/2;
 99//99;
 2/9=110/2;
 3/5=1,6=6,7=101,11=2,25=1,30=1,70=2205,71=1,72=1,74=-5/1,2,3;
 4/5=5,16=3,69=1/1;
 5/5=2,8=3,13=1,38=5,53=1/2,8;
 7//1,2,3,16;
 1/18=20,19=15,26=3/3(-5);
 2/9=110/2;
 6/7=2,8=2,9=2,10=2,19=2,28=1/1;
 99/9=1/99;
 ----------------------------------
 CBCKQZAAMUWICA-UHFFFAOYSA-N_conf_0
 ----------------------------------
 Symbolic Z-matrix:
 Charge =  0 Multiplicity = 1
 N                    -2.74962  -0.20675  -0.53863 
 C                    -1.38761  -0.14106  -0.22456 
 C                    -0.89528   0.89863   0.56468 
 C                     0.47961   1.03769   0.78809 
 C                     1.38746   0.13963   0.22636 
 N                     2.76449   0.35099   0.35735 
 C                     0.90297  -0.82401  -0.65846 
 C                    -0.47192  -0.96308  -0.88186 
 H                    -3.05515  -1.12626  -0.84077 
 H                    -3.35318   0.18431   0.17756 
 H                    -1.57586   1.62156   1.00551 
 H                     0.83282   1.86519   1.3969 
 H                     3.32258  -0.48118   0.19556 
 H                     3.02455   0.8294    1.21387 
 H                     1.59141  -1.47071  -1.1951 
 H                    -0.81727  -1.71434  -1.58649 
 

 GradGradGradGradGradGradGradGradGradGradGradGradGradGradGradGradGradGrad
 Berny optimization.
 Initialization pass.
                           ----------------------------
                           !    Initial Parameters    !
                           ! (Angstroms and Degrees)  !
 --------------------------                            --------------------------
 ! Name  Definition              Value          Derivative Info.                !
 --------------------------------------------------------------------------------
 ! R1    R(1,2)                  1.3993         calculate D2E/DX2 analytically  !
 ! R2    R(1,9)                  1.015          calculate D2E/DX2 analytically  !
 ! R3    R(1,10)                 1.015          calculate D2E/DX2 analytically  !
 ! R4    R(2,3)                  1.3951         calculate D2E/DX2 analytically  !
 ! R5    R(2,8)                  1.3951         calculate D2E/DX2 analytically  !
 ! R6    R(3,4)                  1.3998         calculate D2E/DX2 analytically  !
 ! R7    R(3,11)                 1.0863         calculate D2E/DX2 analytically  !
 ! R8    R(4,5)                  1.3951         calculate D2E/DX2 analytically  !
 ! R9    R(4,12)                 1.0863         calculate D2E/DX2 analytically  !
 ! R10   R(5,6)                  1.3993         calculate D2E/DX2 analytically  !
 ! R11   R(5,7)                  1.3951         calculate D2E/DX2 analytically  !
 ! R12   R(6,13)                 1.015          calculate D2E/DX2 analytically  !
 ! R13   R(6,14)                 1.015          calculate D2E/DX2 analytically  !
 ! R14   R(7,8)                  1.3998         calculate D2E/DX2 analytically  !
 ! R15   R(7,15)                 1.0863         calculate D2E/DX2 analytically  !
 ! R16   R(8,16)                 1.0863         calculate D2E/DX2 analytically  !
 ! A1    A(2,1,9)              113.7252         calculate D2E/DX2 analytically  !
 ! A2    A(2,1,10)             113.7253         calculate D2E/DX2 analytically  !
 ! A3    A(9,1,10)             112.3403         calculate D2E/DX2 analytically  !
 ! A4    A(1,2,3)              120.3625         calculate D2E/DX2 analytically  !
 ! A5    A(1,2,8)              120.3625         calculate D2E/DX2 analytically  !
 ! A6    A(3,2,8)              118.2965         calculate D2E/DX2 analytically  !
 ! A7    A(2,3,4)              120.7264         calculate D2E/DX2 analytically  !
 ! A8    A(2,3,11)             120.2927         calculate D2E/DX2 analytically  !
 ! A9    A(4,3,11)             118.9763         calculate D2E/DX2 analytically  !
 ! A10   A(3,4,5)              120.7264         calculate D2E/DX2 analytically  !
 ! A11   A(3,4,12)             118.9763         calculate D2E/DX2 analytically  !
 ! A12   A(5,4,12)             120.2927         calculate D2E/DX2 analytically  !
 ! A13   A(4,5,6)              120.3625         calculate D2E/DX2 analytically  !
 ! A14   A(4,5,7)              118.2966         calculate D2E/DX2 analytically  !
 ! A15   A(6,5,7)              120.3624         calculate D2E/DX2 analytically  !
 ! A16   A(5,6,13)             113.7251         calculate D2E/DX2 analytically  !
 ! A17   A(5,6,14)             113.7252         calculate D2E/DX2 analytically  !
 ! A18   A(13,6,14)            112.3402         calculate D2E/DX2 analytically  !
 ! A19   A(5,7,8)              120.7264         calculate D2E/DX2 analytically  !
 ! A20   A(5,7,15)             120.2927         calculate D2E/DX2 analytically  !
 ! A21   A(8,7,15)             118.9763         calculate D2E/DX2 analytically  !
 ! A22   A(2,8,7)              120.7264         calculate D2E/DX2 analytically  !
 ! A23   A(2,8,16)             120.2927         calculate D2E/DX2 analytically  !
 ! A24   A(7,8,16)             118.9763         calculate D2E/DX2 analytically  !
 ! D1    D(9,1,2,3)           -160.9003         calculate D2E/DX2 analytically  !
 ! D2    D(9,1,2,8)             30.6081         calculate D2E/DX2 analytically  !
 ! D3    D(10,1,2,3)           -30.6084         calculate D2E/DX2 analytically  !
 ! D4    D(10,1,2,8)           160.9001         calculate D2E/DX2 analytically  !
 ! D5    D(1,2,3,4)           -174.4358         calculate D2E/DX2 analytically  !
 ! D6    D(1,2,3,11)             4.7775         calculate D2E/DX2 analytically  !
 ! D7    D(8,2,3,4)             -5.7103         calculate D2E/DX2 analytically  !
 ! D8    D(8,2,3,11)           173.503          calculate D2E/DX2 analytically  !
 ! D9    D(1,2,8,7)            174.4358         calculate D2E/DX2 analytically  !
 ! D10   D(1,2,8,16)            -4.7775         calculate D2E/DX2 analytically  !
 ! D11   D(3,2,8,7)              5.7103         calculate D2E/DX2 analytically  !
 ! D12   D(3,2,8,16)          -173.503          calculate D2E/DX2 analytically  !
 ! D13   D(2,3,4,5)              0.0            calculate D2E/DX2 analytically  !
 ! D14   D(2,3,4,12)           179.2237         calculate D2E/DX2 analytically  !
 ! D15   D(11,3,4,5)          -179.2235         calculate D2E/DX2 analytically  !
 ! D16   D(11,3,4,12)            0.0001         calculate D2E/DX2 analytically  !
 ! D17   D(3,4,5,6)            174.4359         calculate D2E/DX2 analytically  !
 ! D18   D(3,4,5,7)              5.7102         calculate D2E/DX2 analytically  !
 ! D19   D(12,4,5,6)            -4.7775         calculate D2E/DX2 analytically  !
 ! D20   D(12,4,5,7)          -173.5032         calculate D2E/DX2 analytically  !
 ! D21   D(4,5,6,13)           160.8998         calculate D2E/DX2 analytically  !
 ! D22   D(4,5,6,14)            30.6081         calculate D2E/DX2 analytically  !
 ! D23   D(7,5,6,13)           -30.6084         calculate D2E/DX2 analytically  !
 ! D24   D(7,5,6,14)          -160.9001         calculate D2E/DX2 analytically  !
 ! D25   D(4,5,7,8)             -5.7102         calculate D2E/DX2 analytically  !
 ! D26   D(4,5,7,15)           173.503          calculate D2E/DX2 analytically  !
 ! D27   D(6,5,7,8)           -174.4359         calculate D2E/DX2 analytically  !
 ! D28   D(6,5,7,15)             4.7773         calculate D2E/DX2 analytically  !
 ! D29   D(5,7,8,2)             -0.0001         calculate D2E/DX2 analytically  !
 ! D30   D(5,7,8,16)           179.2234         calculate D2E/DX2 analytically  !
 ! D31   D(15,7,8,2)          -179.2235         calculate D2E/DX2 analytically  !
 ! D32   D(15,7,8,16)            0.0            calculate D2E/DX2 analytically  !
 --------------------------------------------------------------------------------
 Trust Radius=3.00D-01 FncErr=1.00D-07 GrdErr=1.00D-06 EigMax=2.50D+02 EigMin=1.00D-04
 Number of steps in this run=     82 maximum allowed number of steps=    100.
 GradGradGradGradGradGradGradGradGradGradGradGradGradGradGradGradGradGrad

                          Input orientation:                          
 ---------------------------------------------------------------------
 Center     Atomic      Atomic             Coordinates (Angstroms)
 Number     Number       Type             X           Y           Z
 ---------------------------------------------------------------------
      1          7           0       -2.749618   -0.206750   -0.538634
      2          6           0       -1.387609   -0.141060   -0.224562
      3          6           0       -0.895275    0.898626    0.564684
      4          6           0        0.479611    1.037693    0.788089
      5          6           0        1.387462    0.139632    0.226358
      6          7           0        2.764486    0.350987    0.357351
      7          6           0        0.902966   -0.824015   -0.658457
      8          6           0       -0.471920   -0.963081   -0.881862
      9          1           0       -3.055148   -1.126265   -0.840766
     10          1           0       -3.353178    0.184311    0.177555
     11          1           0       -1.575859    1.621557    1.005508
     12          1           0        0.832819    1.865188    1.396895
     13          1           0        3.322576   -0.481179    0.195556
     14          1           0        3.024551    0.829402    1.213870
     15          1           0        1.591408   -1.470708   -1.195099
     16          1           0       -0.817270   -1.714339   -1.586485
 ---------------------------------------------------------------------
                    Distance matrix (angstroms):
                    1          2          3          4          5
     1  N    0.000000
     2  C    1.399294   0.000000
     3  C    2.424408   1.395081   0.000000
     4  C    3.706312   2.429286   1.399843   0.000000
     5  C    4.221448   2.825445   2.429285   1.395080   0.000000
     6  N    5.614196   4.221448   3.706312   2.424408   1.399294
     7  C    3.706311   2.429285   2.774390   2.395346   1.395080
     8  C    2.424407   1.395080   2.395345   2.774390   2.429285
     9  H    1.014958   2.032492   3.277274   4.453134   4.741101
    10  H    1.014959   2.032493   2.588706   3.973825   4.741102
    11  H    2.665481   2.157621   1.086347   2.147819   3.403594
    12  H    4.568703   3.403594   2.147819   1.086346   2.157621
    13  H    6.122571   4.741099   4.453132   3.277273   2.032491
    14  H    6.122573   4.741101   3.973823   2.588705   2.032492
    15  H    4.568702   3.403594   3.859297   3.385440   2.157621
    16  H    2.665480   2.157621   3.385439   3.859298   3.403594
                    6          7          8          9         10
     6  N    0.000000
     7  C    2.424407   0.000000
     8  C    3.706311   1.399843   0.000000
     9  H    6.122573   3.973822   2.588704   0.000000
    10  H    6.122575   4.453134   3.277274   1.686241   0.000000
    11  H    4.568704   3.859298   3.385440   3.625955   2.431058
    12  H    2.665482   3.385440   3.859298   5.391864   4.672762
    13  H    1.014959   2.588704   3.973822   6.493494   6.708867
    14  H    1.014959   3.277273   4.453133   6.708868   6.493498
    15  H    2.665480   1.086346   2.147819   4.672759   5.391864
    16  H    4.568702   2.147818   1.086346   2.431055   3.625954
                   11         12         13         14         15
    11  H    0.000000
    12  H    2.452401   0.000000
    13  H    5.391863   3.625954   0.000000
    14  H    4.672761   2.431057   1.686241   0.000000
    15  H    4.943314   4.292096   2.431056   3.625954   0.000000
    16  H    4.292096   4.943315   4.672759   5.391864   2.452401
                   16
    16  H    0.000000
 Stoichiometry    C6H8N2
 Framework group  C1[X(C6H8N2)]
 Deg. of freedom    42
 Full point group                 C1      NOp   1
 Largest Abelian subgroup         C1      NOp   1
 Largest concise Abelian subgroup C1      NOp   1
                         Standard orientation:                         
 ---------------------------------------------------------------------
 Center     Atomic      Atomic             Coordinates (Angstroms)
 Number     Number       Type             X           Y           Z
 ---------------------------------------------------------------------
      1          7           0       -2.807098   -0.000000   -0.071550
      2          6           0       -1.412722   -0.000000    0.045670
      3          6           0       -0.699921    1.197673   -0.015521
      4          6           0        0.699922    1.197673   -0.015521
      5          6           0        1.412722    0.000000    0.045669
      6          7           0        2.807098   -0.000001   -0.071550
      7          6           0        0.699921   -1.197673   -0.015520
      8          6           0       -0.699922   -1.197672   -0.015521
      9          1           0       -3.246748   -0.843122    0.283407
     10          1           0       -3.246749    0.843119    0.283411
     11          1           0       -1.226200    2.146048   -0.076870
     12          1           0        1.226200    2.146049   -0.076868
     13          1           0        3.246746   -0.843121    0.283414
     14          1           0        3.246749    0.843120    0.283409
     15          1           0        1.226200   -2.146048   -0.076871
     16          1           0       -1.226200   -2.146048   -0.076871
 ---------------------------------------------------------------------
 Rotational constants (GHZ):           5.5639819           1.4811832           1.1727440
 Standard basis: 6-31G(d,p) (6D, 7F)
 There are   160 symmetry adapted cartesian basis functions of A   symmetry.
 There are   160 symmetry adapted basis functions of A   symmetry.
   160 basis functions,   280 primitive gaussians,   160 cartesian basis functions
    29 alpha electrons       29 beta electrons
       nuclear repulsion energy       345.1417175268 Hartrees.
 NAtoms=   16 NActive=   16 NUniq=   16 SFac= 1.00D+00 NAtFMM=   60 NAOKFM=F Big=F
 Integral buffers will be    131072 words long.
 Raffenetti 2 integral format.
 Two-electron integral symmetry is turned on.
 Force inversion solution in PCM.
 ------------------------------------------------------------------------------
 Polarizable Continuum Model (PCM)
 =================================
 Model                : PCM.
 Atomic radii         : UFF (Universal Force Field).
 Polarization charges : Total charges.
 Charge compensation  : None.
 Solution method      : Matrix inversion.
 Cavity type          : Scaled VdW (van der Waals Surface) (Alpha=1.100).
 Cavity algorithm     : GePol (No added spheres)
                        Default sphere list used, NSphG=   16.
                        Lebedev-Laikov grids with approx.  5.0 points / Ang**2.
                        Smoothing algorithm: York/Karplus (Gamma=1.0000).
                        Polarization charges: spherical gaussians, with
                                              point-specific exponents (IZeta= 3).
                        Self-potential: point-specific (ISelfS= 7).
                        Self-field    : sphere-specific E.n sum rule (ISelfD= 2).
 1st derivatives      : Analytical E(r).r(x)/FMM algorithm (CHGder, D1EAlg=3).
                        Cavity 1st derivative terms included.
 2nd derivatives      : Analytical E(r).r(xy)/FMM algorithm (CHGder, D2EAlg=3).
                        Cavity 2nd derivative terms included.
 Solvent              : Water, Eps=  78.355300 Eps(inf)=   1.777849
 ------------------------------------------------------------------------------
 Spheres list:
 ISph  on   Nord     Re0    Alpha      Xe            Ye            Ze
    1   N      1    1.8300  1.100     -2.807098     -0.000000     -0.071550
    2   C      2    1.9255  1.100     -1.412722     -0.000000      0.045670
    3   C      3    1.9255  1.100     -0.699921      1.197673     -0.015521
    4   C      4    1.9255  1.100      0.699922      1.197673     -0.015521
    5   C      5    1.9255  1.100      1.412722      0.000000      0.045669
    6   N      6    1.8300  1.100      2.807098     -0.000001     -0.071550
    7   C      7    1.9255  1.100      0.699921     -1.197673     -0.015520
    8   C      8    1.9255  1.100     -0.699922     -1.197672     -0.015521
    9   H      9    1.4430  1.100     -3.246748     -0.843122      0.283407
   10   H     10    1.4430  1.100     -3.246749      0.843119      0.283411
   11   H     11    1.4430  1.100     -1.226200      2.146048     -0.076870
   12   H     12    1.4430  1.100      1.226200      2.146049     -0.076868
   13   H     13    1.4430  1.100      3.246746     -0.843121      0.283414
   14   H     14    1.4430  1.100      3.246749      0.843120      0.283409
   15   H     15    1.4430  1.100      1.226200     -2.146048     -0.076871
   16   H     16    1.4430  1.100     -1.226200     -2.146048     -0.076871
 ------------------------------------------------------------------------------
 One-electron integrals computed using PRISM.
 NBasis=   160 RedAO= T EigKep=  4.40D-04  NBF=   160
 NBsUse=   160 1.00D-06 EigRej= -1.00D+00 NBFU=   160
 ExpMin= 1.61D-01 ExpMax= 4.17D+03 ExpMxC= 6.27D+02 IAcc=3 IRadAn=         5 AccDes= 0.00D+00
 Harris functional with IExCor=  402 and IRadAn=       5 diagonalized for initial guess.
 HarFok:  IExCor=  402 AccDes= 0.00D+00 IRadAn=         5 IDoV= 1 UseB2=F ITyADJ=14
 ICtDFT=  3500011 ScaDFX=  1.000000  1.000000  1.000000  1.000000
 FoFCou: FMM=F IPFlag=           0 FMFlag=      100000 FMFlg1=           0
         NFxFlg=           0 DoJE=T BraDBF=F KetDBF=T FulRan=T
         wScrn=  0.000000 ICntrl=       500 IOpCl=  0 I1Cent=   200000004 NGrid=           0
         NMat0=    1 NMatS0=      1 NMatT0=    0 NMatD0=    1 NMtDS0=    0 NMtDT0=    0
 Petite list used in FoFCou.
 Keep R1 ints in memory in canonical form, NReq=85041267.
 Requested convergence on RMS density matrix=1.00D-08 within  32 cycles.
 Requested convergence on MAX density matrix=1.00D-06.
 Requested convergence on             energy=1.00D-06.
 No special actions if energy rises.
 Inv3:  Mode=1 IEnd=     5179788.
 Iteration    1 A*A^-1 deviation from unit magnitude is 5.33D-15 for    832.
 Iteration    1 A*A^-1 deviation from orthogonality  is 2.92D-15 for    755    127.
 Iteration    1 A^-1*A deviation from unit magnitude is 5.33D-15 for     63.
 Iteration    1 A^-1*A deviation from orthogonality  is 2.52D-15 for   1235    692.
 Error on total polarization charges =  0.00722
 SCF Done:  E(RB3LYP) =  -342.978441827     A.U. after   10 cycles
            NFock= 10  Conv=0.24D-08     -V/T= 2.0095
 QCSCF skips out because SCF is already converged.
 DoSCS=F DFT=T ScalE2(SS,OS)=  1.000000  1.000000
 Range of M.O.s used for correlation:     1   160
 NBasis=   160 NAE=    29 NBE=    29 NFC=     0 NFV=     0
 NROrb=    160 NOA=    29 NOB=    29 NVA=   131 NVB=   131
 Symmetrizing basis deriv contribution to polar:
 IMax=3 JMax=2 DiffMx= 0.00D+00
 G2DrvN: will do    17 centers at a time, making    1 passes.
 Calling FoFCou, ICntrl=  3107 FMM=F I1Cent=   0 AccDes= 0.00D+00.
 NEqPCM:  Using equilibrium solvation (IEInf=0, Eps=  78.3553, EpsInf=   1.7778)
 G2PCM: DoFxE=T DoFxN=T DoGrad=T DoDP/DQ/DG/TGxP=FFFF NFrqRd=   0 IEInf=0 SqF1=F DoCFld=F IF1Alg=4.
 End of G2Drv F.D. properties file   721 does not exist.
 End of G2Drv F.D. properties file   722 does not exist.
 End of G2Drv F.D. properties file   788 does not exist.
          IDoAtm=1111111111111111
 NEqPCM:  Using equilibrium solvation (IEInf=0, Eps=  78.3553, EpsInf=   1.7778)
          Differentiating once with respect to nuclear coordinates.
 Keep R1 ints in memory in canonical form, NReq=88284333.
          There are    51 degrees of freedom in the 1st order CPHF.  IDoFFX=6 NUNeed=     0.
     45 vectors produced by pass  0 Test12= 7.45D-15 1.96D-09 XBig12= 1.69D-01 2.50D-01.
 AX will form    45 AO Fock derivatives at one time.
     45 vectors produced by pass  1 Test12= 7.45D-15 1.96D-09 XBig12= 2.52D-02 4.75D-02.
     45 vectors produced by pass  2 Test12= 7.45D-15 1.96D-09 XBig12= 2.35D-04 3.19D-03.
     45 vectors produced by pass  3 Test12= 7.45D-15 1.96D-09 XBig12= 6.47D-07 1.82D-04.
     45 vectors produced by pass  4 Test12= 7.45D-15 1.96D-09 XBig12= 7.64D-10 4.16D-06.
     30 vectors produced by pass  5 Test12= 7.45D-15 1.96D-09 XBig12= 8.77D-13 1.38D-07.
      4 vectors produced by pass  6 Test12= 7.45D-15 1.96D-09 XBig12= 1.06D-15 4.70D-09.
 InvSVY:  IOpt=1 It=  1 EMax= 3.89D-16
 Solved reduced A of dimension   259 with    51 vectors.
 End of Minotr F.D. properties file   721 does not exist.
 End of Minotr F.D. properties file   722 does not exist.
 End of Minotr F.D. properties file   788 does not exist.

 **********************************************************************

            Population analysis using the SCF density.

 **********************************************************************

 Orbital symmetries:
       Occupied  (A) (A) (A) (A) (A) (A) (A) (A) (A) (A) (A) (A)
                 (A) (A) (A) (A) (A) (A) (A) (A) (A) (A) (A) (A)
                 (A) (A) (A) (A) (A)
       Virtual   (A) (A) (A) (A) (A) (A) (A) (A) (A) (A) (A) (A)
                 (A) (A) (A) (A) (A) (A) (A) (A) (A) (A) (A) (A)
                 (A) (A) (A) (A) (A) (A) (A) (A) (A) (A) (A) (A)
                 (A) (A) (A) (A) (A) (A) (A) (A) (A) (A) (A) (A)
                 (A) (A) (A) (A) (A) (A) (A) (A) (A) (A) (A) (A)
                 (A) (A) (A) (A) (A) (A) (A) (A) (A) (A) (A) (A)
                 (A) (A) (A) (A) (A) (A) (A) (A) (A) (A) (A) (A)
                 (A) (A) (A) (A) (A) (A) (A) (A) (A) (A) (A) (A)
                 (A) (A) (A) (A) (A) (A) (A) (A) (A) (A) (A) (A)
                 (A) (A) (A) (A) (A) (A) (A) (A) (A) (A) (A) (A)
                 (A) (A) (A) (A) (A) (A) (A) (A) (A) (A) (A)
 The electronic state is 1-A.
 Alpha  occ. eigenvalues --  -14.32744 -14.32744 -10.21220 -10.21219 -10.17825
 Alpha  occ. eigenvalues --  -10.17824 -10.17771 -10.17771  -0.91063  -0.90013
 Alpha  occ. eigenvalues --   -0.81277  -0.73677  -0.70221  -0.61371  -0.58419
 Alpha  occ. eigenvalues --   -0.51444  -0.51430  -0.48153  -0.47081  -0.42889
 Alpha  occ. eigenvalues --   -0.41392  -0.40001  -0.38869  -0.36678  -0.33679
 Alpha  occ. eigenvalues --   -0.33587  -0.26052  -0.24366  -0.17451
 Alpha virt. eigenvalues --    0.00193   0.03532   0.09315   0.10006   0.11895
 Alpha virt. eigenvalues --    0.12837   0.15949   0.17192   0.18636   0.18741
 Alpha virt. eigenvalues --    0.20816   0.25489   0.30743   0.34074   0.34616
 Alpha virt. eigenvalues --    0.34698   0.37262   0.49697   0.52633   0.53891
 Alpha virt. eigenvalues --    0.54695   0.55373   0.58329   0.59902   0.60044
 Alpha virt. eigenvalues --    0.60401   0.61831   0.63209   0.63583   0.66876
 Alpha virt. eigenvalues --    0.68350   0.70607   0.70964   0.76519   0.78525
 Alpha virt. eigenvalues --    0.80541   0.82389   0.83948   0.84392   0.85882
 Alpha virt. eigenvalues --    0.87326   0.88711   0.89745   0.90233   0.91146
 Alpha virt. eigenvalues --    0.96332   0.98837   1.00441   1.01933   1.02090
 Alpha virt. eigenvalues --    1.08989   1.16169   1.16582   1.17870   1.21183
 Alpha virt. eigenvalues --    1.29069   1.31303   1.33710   1.40085   1.41069
 Alpha virt. eigenvalues --    1.42257   1.48170   1.51390   1.51915   1.73573
 Alpha virt. eigenvalues --    1.74849   1.75860   1.80485   1.81159   1.82585
 Alpha virt. eigenvalues --    1.86291   1.87952   1.93593   1.93601   1.96635
 Alpha virt. eigenvalues --    1.97641   1.99349   2.00219   2.03357   2.11177
 Alpha virt. eigenvalues --    2.12639   2.17388   2.17548   2.22134   2.25804
 Alpha virt. eigenvalues --    2.28110   2.32019   2.34556   2.35087   2.35850
 Alpha virt. eigenvalues --    2.38296   2.42546   2.43886   2.44606   2.44991
 Alpha virt. eigenvalues --    2.48101   2.48765   2.51167   2.55406   2.59241
 Alpha virt. eigenvalues --    2.60309   2.63007   2.67798   2.69721   2.71502
 Alpha virt. eigenvalues --    2.79277   2.82500   2.87802   2.89663   2.97522
 Alpha virt. eigenvalues --    3.00481   3.06537   3.10677   3.19305   3.25732
 Alpha virt. eigenvalues --    3.27887   3.30663   3.31216   3.40010   3.48209
 Alpha virt. eigenvalues --    3.49425   3.57546   3.84929   4.01499   4.08770
 Alpha virt. eigenvalues --    4.13925   4.16448   4.18772   4.44440   4.46636
 Alpha virt. eigenvalues --    4.83885
          Condensed to atoms (all electrons):
               1          2          3          4          5          6
     1  N    6.851168   0.287557  -0.070969   0.004768   0.000520  -0.000000
     2  C    0.287557   4.603194   0.544610  -0.028876  -0.033225   0.000520
     3  C   -0.070969   0.544610   4.924025   0.530159  -0.028876   0.004768
     4  C    0.004768  -0.028876   0.530159   4.924024   0.544610  -0.070969
     5  C    0.000520  -0.033225  -0.028876   0.544610   4.603195   0.287557
     6  N   -0.000000   0.000520   0.004768  -0.070969   0.287557   6.851168
     7  C    0.004768  -0.028876  -0.043298  -0.050170   0.544610  -0.070969
     8  C   -0.070969   0.544610  -0.050170  -0.043298  -0.028876   0.004768
     9  H    0.343987  -0.026046   0.005457  -0.000166  -0.000018  -0.000000
    10  H    0.343987  -0.026046  -0.009627   0.000011  -0.000018  -0.000000
    11  H   -0.007308  -0.044043   0.363163  -0.034426   0.004133  -0.000114
    12  H   -0.000114   0.004133  -0.034426   0.363163  -0.044043  -0.007308
    13  H   -0.000000  -0.000018  -0.000166   0.005457  -0.026046   0.343987
    14  H   -0.000000  -0.000018   0.000011  -0.009627  -0.026046   0.343987
    15  H   -0.000114   0.004133   0.000667   0.005411  -0.044043  -0.007308
    16  H   -0.007308  -0.044043   0.005411   0.000667   0.004133  -0.000114
               7          8          9         10         11         12
     1  N    0.004768  -0.070969   0.343987   0.343987  -0.007308  -0.000114
     2  C   -0.028876   0.544610  -0.026046  -0.026046  -0.044043   0.004133
     3  C   -0.043298  -0.050170   0.005457  -0.009627   0.363163  -0.034426
     4  C   -0.050170  -0.043298  -0.000166   0.000011  -0.034426   0.363163
     5  C    0.544610  -0.028876  -0.000018  -0.000018   0.004133  -0.044043
     6  N   -0.070969   0.004768  -0.000000  -0.000000  -0.000114  -0.007308
     7  C    4.924025   0.530159   0.000011  -0.000166   0.000667   0.005411
     8  C    0.530159   4.924025  -0.009627   0.005457   0.005411   0.000667
     9  H    0.000011  -0.009627   0.440067  -0.028776  -0.000070   0.000004
    10  H   -0.000166   0.005457  -0.028776   0.440067   0.004528  -0.000005
    11  H    0.000667   0.005411  -0.000070   0.004528   0.626074  -0.006684
    12  H    0.005411   0.000667   0.000004  -0.000005  -0.006684   0.626073
    13  H   -0.009627   0.000011  -0.000000  -0.000000   0.000004  -0.000070
    14  H    0.005457  -0.000166  -0.000000  -0.000000  -0.000005   0.004528
    15  H    0.363163  -0.034426  -0.000005   0.000004   0.000015  -0.000197
    16  H   -0.034426   0.363163   0.004528  -0.000070  -0.000197   0.000015
              13         14         15         16
     1  N   -0.000000  -0.000000  -0.000114  -0.007308
     2  C   -0.000018  -0.000018   0.004133  -0.044043
     3  C   -0.000166   0.000011   0.000667   0.005411
     4  C    0.005457  -0.009627   0.005411   0.000667
     5  C   -0.026046  -0.026046  -0.044043   0.004133
     6  N    0.343987   0.343987  -0.007308  -0.000114
     7  C   -0.009627   0.005457   0.363163  -0.034426
     8  C    0.000011  -0.000166  -0.034426   0.363163
     9  H   -0.000000  -0.000000  -0.000005   0.004528
    10  H   -0.000000  -0.000000   0.000004  -0.000070
    11  H    0.000004  -0.000005   0.000015  -0.000197
    12  H   -0.000070   0.004528  -0.000197   0.000015
    13  H    0.440067  -0.028776   0.004528  -0.000005
    14  H   -0.028776   0.440067  -0.000070   0.000004
    15  H    0.004528  -0.000070   0.626074  -0.006684
    16  H   -0.000005   0.000004  -0.006684   0.626074
 Mulliken charges:
               1
     1  N   -0.679975
     2  C    0.242435
     3  C   -0.140738
     4  C   -0.140738
     5  C    0.242434
     6  N   -0.679975
     7  C   -0.140738
     8  C   -0.140738
     9  H    0.270655
    10  H    0.270655
    11  H    0.088853
    12  H    0.088853
    13  H    0.270655
    14  H    0.270655
    15  H    0.088853
    16  H    0.088853
 Sum of Mulliken charges =  -0.00000
 Mulliken charges with hydrogens summed into heavy atoms:
               1
     1  N   -0.138666
     2  C    0.242435
     3  C   -0.051885
     4  C   -0.051884
     5  C    0.242434
     6  N   -0.138666
     7  C   -0.051884
     8  C   -0.051885
 APT charges:
               1
     1  N   -1.233196
     2  C   -0.037914
     3  C   -0.501780
     4  C   -0.501779
     5  C   -0.037915
     6  N   -1.233194
     7  C   -0.501779
     8  C   -0.501780
     9  H    0.652573
    10  H    0.652574
    11  H    0.484761
    12  H    0.484762
    13  H    0.652571
    14  H    0.652573
    15  H    0.484761
    16  H    0.484761
 Sum of APT charges =  -0.00000
 APT charges with hydrogens summed into heavy atoms:
               1
     1  N    0.071951
     2  C   -0.037914
     3  C   -0.017018
     4  C   -0.017018
     5  C   -0.037915
     6  N    0.071950
     7  C   -0.017018
     8  C   -0.017018
 Electronic spatial extent (au):  <R**2>=            987.6741
 Charge=             -0.0000 electrons
 Dipole moment (field-independent basis, Debye):
    X=             -0.0000    Y=              0.0000    Z=              2.4419  Tot=              2.4419
 Quadrupole moment (field-independent basis, Debye-Ang):
   XX=            -33.9762   YY=            -40.0586   ZZ=            -51.9735
   XY=              0.0000   XZ=              0.0000   YZ=              0.0000
 Traceless Quadrupole moment (field-independent basis, Debye-Ang):
   XX=              8.0266   YY=              1.9442   ZZ=             -9.9707
   XY=              0.0000   XZ=              0.0000   YZ=              0.0000
 Octapole moment (field-independent basis, Debye-Ang**2):
  XXX=             -0.0003  YYY=             -0.0000  ZZZ=              2.0492  XYY=             -0.0000
  XXY=              0.0000  XXZ=             28.0195  XZZ=              0.0000  YZZ=             -0.0000
  YYZ=              0.6276  XYZ=             -0.0000
 Hexadecapole moment (field-independent basis, Debye-Ang**3):
 XXXX=           -724.2663 YYYY=           -283.6297 ZZZZ=            -54.2929 XXXY=              0.0002
 XXXZ=              0.0003 YYYX=              0.0000 YYYZ=              0.0000 ZZZX=              0.0000
 ZZZY=              0.0000 XXYY=           -154.3844 XXZZ=           -177.8779 YYZZ=            -66.0008
 XXYZ=             -0.0000 YYXZ=              0.0000 ZZXY=             -0.0000
 N-N= 3.451417175268D+02 E-N=-1.487038529711D+03  KE= 3.397497176382D+02
  Exact polarizability:   0.000   0.000   0.000   0.000   0.000   0.000
 Approx polarizability: 175.399  -0.000 140.123  -0.000  -0.000  43.581
 D2PCM: PCM CHGder 2nd derivatives, FixD1E=F FixD2E=F DoIter=F DoCFld=F I1PDM=0
 Calling FoFJK, ICntrl=    100147 FMM=F ISym2X=0 I1Cent= 0 IOpClX= 0 NMat=1 NMatS=1 NMatT=0.
 ***** Axes restored to original set *****
 -------------------------------------------------------------------
 Center     Atomic                   Forces (Hartrees/Bohr)
 Number     Number              X              Y              Z
 -------------------------------------------------------------------
      1        7          -0.006763359   -0.001325563   -0.000273041
      2        6          -0.005363437    0.007309783   -0.010976559
      3        6           0.010729626    0.003388665    0.008300365
      4        6          -0.013234976    0.000964480    0.004406207
      5        6           0.006999382    0.008559603   -0.008967795
      6        7           0.006629414    0.000028850    0.001903048
      7        6          -0.011202328   -0.007972892   -0.002538446
      8        6           0.012762397   -0.005549412    0.001355468
      9        1          -0.001913208    0.002465168    0.003260053
     10        1          -0.000420223   -0.004099086   -0.001840530
     11        1          -0.001335478   -0.000794574    0.000586800
     12        1           0.001212282   -0.000536663    0.001000813
     13        1           0.000274848    0.002686704    0.003615559
     14        1           0.001767500   -0.003877733   -0.001484924
     15        1           0.001202685   -0.000494800    0.001033495
     16        1          -0.001345126   -0.000752531    0.000619486
 -------------------------------------------------------------------
 Cartesian Forces:  Max     0.013234976 RMS     0.005352257
 FormGI is forming the generalized inverse of G from B-inverse, IUseBI=4.

 GradGradGradGradGradGradGradGradGradGradGradGradGradGradGradGradGradGrad
 Berny optimization.
 Internal  Forces:  Max     0.008736001 RMS     0.003173056
 Search for a local minimum.
 Step number   1 out of a maximum of   82
 All quantities printed in internal units (Hartrees-Bohrs-Radians)
 Mixed Optimization -- RFO/linear search
 Second derivative matrix not updated -- analytic derivatives used.
 ITU=  0
     Eigenvalues ---    0.00390   0.00406   0.01580   0.01610   0.01702
     Eigenvalues ---    0.01803   0.01941   0.02107   0.02267   0.02554
     Eigenvalues ---    0.02671   0.02686   0.02776   0.11310   0.11565
     Eigenvalues ---    0.11847   0.12673   0.13605   0.13614   0.15362
     Eigenvalues ---    0.15712   0.18061   0.19281   0.19872   0.19884
     Eigenvalues ---    0.22861   0.32988   0.35605   0.35649   0.35945
     Eigenvalues ---    0.35978   0.37046   0.41149   0.43374   0.45404
     Eigenvalues ---    0.45492   0.45959   0.45988   0.46860   0.47639
     Eigenvalues ---    0.48605   0.52529
 RFO step:  Lambda=-4.95217031D-03 EMin= 3.89612466D-03
 Linear search not attempted -- first point.
 Iteration  1 RMS(Cart)=  0.03232347 RMS(Int)=  0.00133012
 Iteration  2 RMS(Cart)=  0.00180080 RMS(Int)=  0.00062872
 Iteration  3 RMS(Cart)=  0.00000098 RMS(Int)=  0.00062872
 Variable       Old X    -DE/DX   Delta X   Delta X   Delta X     New X
                                 (Linear)    (Quad)   (Total)
    R1        2.64428   0.00874   0.00000   0.01756   0.01756   2.66184
    R2        1.91799  -0.00263   0.00000  -0.00282  -0.00282   1.91518
    R3        1.91799  -0.00263   0.00000  -0.00282  -0.00282   1.91518
    R4        2.63632   0.00862   0.00000   0.01577   0.01577   2.65209
    R5        2.63632   0.00862   0.00000   0.01577   0.01577   2.65209
    R6        2.64532  -0.00323   0.00000  -0.01093  -0.01093   2.63439
    R7        2.05290   0.00055   0.00000   0.00196   0.00196   2.05486
    R8        2.63632   0.00862   0.00000   0.01577   0.01577   2.65209
    R9        2.05290   0.00055   0.00000   0.00196   0.00196   2.05486
   R10        2.64428   0.00874   0.00000   0.01756   0.01756   2.66184
   R11        2.63632   0.00862   0.00000   0.01577   0.01577   2.65209
   R12        1.91799  -0.00263   0.00000  -0.00282  -0.00282   1.91518
   R13        1.91799  -0.00263   0.00000  -0.00282  -0.00282   1.91518
   R14        2.64532  -0.00323   0.00000  -0.01093  -0.01093   2.63439
   R15        2.05290   0.00055   0.00000   0.00196   0.00196   2.05486
   R16        2.05290   0.00055   0.00000   0.00196   0.00196   2.05486
    A1        1.98488   0.00176   0.00000  -0.00810  -0.00866   1.97622
    A2        1.98488   0.00176   0.00000  -0.00810  -0.00866   1.97622
    A3        1.96071  -0.00393   0.00000  -0.04894  -0.04987   1.91084
    A4        2.10072   0.00212   0.00000   0.01402   0.01230   2.11302
    A5        2.10072   0.00212   0.00000   0.01402   0.01230   2.11302
    A6        2.06466  -0.00357   0.00000  -0.00849  -0.01067   2.05399
    A7        2.10707   0.00189   0.00000   0.00773   0.00743   2.11451
    A8        2.09950  -0.00214   0.00000  -0.01378  -0.01367   2.08583
    A9        2.07653   0.00026   0.00000   0.00622   0.00632   2.08285
   A10        2.10707   0.00189   0.00000   0.00773   0.00743   2.11451
   A11        2.07653   0.00026   0.00000   0.00622   0.00632   2.08285
   A12        2.09950  -0.00214   0.00000  -0.01378  -0.01367   2.08583
   A13        2.10072   0.00212   0.00000   0.01402   0.01230   2.11302
   A14        2.06466  -0.00357   0.00000  -0.00849  -0.01067   2.05399
   A15        2.10072   0.00212   0.00000   0.01402   0.01230   2.11302
   A16        1.98488   0.00176   0.00000  -0.00810  -0.00866   1.97622
   A17        1.98488   0.00176   0.00000  -0.00810  -0.00866   1.97622
   A18        1.96071  -0.00393   0.00000  -0.04894  -0.04986   1.91084
   A19        2.10707   0.00189   0.00000   0.00773   0.00743   2.11451
   A20        2.09950  -0.00214   0.00000  -0.01378  -0.01367   2.08583
   A21        2.07653   0.00026   0.00000   0.00622   0.00632   2.08285
   A22        2.10707   0.00189   0.00000   0.00773   0.00743   2.11451
   A23        2.09950  -0.00214   0.00000  -0.01378  -0.01367   2.08583
   A24        2.07653   0.00026   0.00000   0.00622   0.00632   2.08285
    D1       -2.80824   0.00290   0.00000   0.09944   0.09960  -2.70864
    D2        0.53421  -0.00055   0.00000  -0.01326  -0.01409   0.52012
    D3       -0.53422   0.00055   0.00000   0.01326   0.01409  -0.52012
    D4        2.80824  -0.00290   0.00000  -0.09944  -0.09959   2.70864
    D5       -3.04448  -0.00164   0.00000  -0.03337  -0.03311  -3.07758
    D6        0.08338  -0.00126   0.00000  -0.01896  -0.01878   0.06460
    D7       -0.09966   0.00237   0.00000   0.07954   0.07936  -0.02031
    D8        3.02820   0.00275   0.00000   0.09394   0.09368   3.12188
    D9        3.04448   0.00164   0.00000   0.03337   0.03310   3.07758
   D10       -0.08338   0.00126   0.00000   0.01896   0.01878  -0.06460
   D11        0.09966  -0.00237   0.00000  -0.07954  -0.07936   0.02031
   D12       -3.02820  -0.00275   0.00000  -0.09394  -0.09368  -3.12188
   D13        0.00000  -0.00000   0.00000  -0.00000  -0.00000   0.00000
   D14        3.12804   0.00036   0.00000   0.01406   0.01414  -3.14100
   D15       -3.12804  -0.00036   0.00000  -0.01406  -0.01414   3.14100
   D16        0.00000  -0.00000   0.00000  -0.00000  -0.00000   0.00000
   D17        3.04448   0.00164   0.00000   0.03337   0.03310   3.07758
   D18        0.09966  -0.00237   0.00000  -0.07953  -0.07936   0.02031
   D19       -0.08338   0.00126   0.00000   0.01896   0.01878  -0.06460
   D20       -3.02820  -0.00275   0.00000  -0.09394  -0.09368  -3.12188
   D21        2.80823  -0.00290   0.00000  -0.09944  -0.09959   2.70864
   D22        0.53421  -0.00055   0.00000  -0.01326  -0.01409   0.52012
   D23       -0.53422   0.00055   0.00000   0.01327   0.01409  -0.52012
   D24       -2.80824   0.00290   0.00000   0.09944   0.09959  -2.70864
   D25       -0.09966   0.00237   0.00000   0.07953   0.07936  -0.02031
   D26        3.02820   0.00275   0.00000   0.09394   0.09368   3.12188
   D27       -3.04448  -0.00164   0.00000  -0.03337  -0.03310  -3.07758
   D28        0.08338  -0.00126   0.00000  -0.01896  -0.01878   0.06460
   D29       -0.00000   0.00000   0.00000   0.00000   0.00000  -0.00000
   D30        3.12804   0.00036   0.00000   0.01406   0.01415  -3.14100
   D31       -3.12804  -0.00036   0.00000  -0.01406  -0.01414   3.14100
   D32        0.00000   0.00000   0.00000  -0.00000  -0.00000   0.00000
         Item               Value     Threshold  Converged?
 Maximum Force            0.008736     0.000450     NO 
 RMS     Force            0.003173     0.000300     NO 
 Maximum Displacement     0.098611     0.001800     NO 
 RMS     Displacement     0.032064     0.001200     NO 
 Predicted change in Energy=-2.764452D-03
 GradGradGradGradGradGradGradGradGradGradGradGradGradGradGradGradGradGrad

                          Input orientation:                          
 ---------------------------------------------------------------------
 Center     Atomic      Atomic             Coordinates (Angstroms)
 Number     Number       Type             X           Y           Z
 ---------------------------------------------------------------------
      1          7           0       -2.770052   -0.193646   -0.561479
      2          6           0       -1.393602   -0.101877   -0.276745
      3          6           0       -0.891987    0.911512    0.554539
      4          6           0        0.477220    1.050004    0.777022
      5          6           0        1.401744    0.180865    0.177471
      6          7           0        2.788080    0.368543    0.341662
      7          6           0        0.901745   -0.816845   -0.673521
      8          6           0       -0.467462   -0.955336   -0.896003
      9          1           0       -3.064696   -1.130238   -0.812669
     10          1           0       -3.357222    0.156141    0.186850
     11          1           0       -1.582198    1.601125    1.034589
     12          1           0        0.833579    1.845473    1.427129
     13          1           0        3.323417   -0.484099    0.225338
     14          1           0        3.030892    0.802283    1.224854
     15          1           0        1.593159   -1.494778   -1.168249
     16          1           0       -0.822618   -1.739127   -1.560788
 ---------------------------------------------------------------------
                    Distance matrix (angstroms):
                    1          2          3          4          5
     1  N    0.000000
     2  C    1.408585   0.000000
     3  C    2.448264   1.403427   0.000000
     4  C    3.725993   2.436643   1.394061   0.000000
     5  C    4.253256   2.846087   2.436643   1.403427   0.000000
     6  N    5.659024   4.253256   3.725993   2.448264   1.408585
     7  C    3.725993   2.436643   2.777197   2.401961   1.403427
     8  C    2.448264   1.403427   2.401961   2.777197   2.436643
     9  H    1.013468   2.034035   3.280041   4.452611   4.759039
    10  H    1.013468   2.034035   2.604451   3.981236   4.759039
    11  H    2.679484   2.157633   1.087384   2.147388   3.414044
    12  H    4.593335   3.414044   2.147388   1.087384   2.157633
    13  H    6.150920   4.759039   4.452610   3.280040   2.034035
    14  H    6.150920   4.759039   3.981235   2.604450   2.034035
    15  H    4.593335   3.414044   3.864477   3.391948   2.157633
    16  H    2.679484   2.157633   3.391948   3.864477   3.414044
                    6          7          8          9         10
     6  N    0.000000
     7  C    2.448264   0.000000
     8  C    3.725993   1.394061   0.000000
     9  H    6.150920   3.981235   2.604450   0.000000
    10  H    6.150920   4.452610   3.280040   1.655108   0.000000
    11  H    4.593335   3.864477   3.391948   3.615315   2.440768
    12  H    2.679484   3.391948   3.864477   5.391485   4.685611
    13  H    1.013468   2.604451   3.981236   6.504072   6.711358
    14  H    1.013468   3.280041   4.452611   6.711359   6.504072
    15  H    2.679484   1.087384   2.147388   4.685611   5.391484
    16  H    4.593335   2.147388   1.087384   2.440767   3.615315
                   11         12         13         14         15
    11  H    0.000000
    12  H    2.459629   0.000000
    13  H    5.391484   3.615315   0.000000
    14  H    4.685610   2.440767   1.655108   0.000000
    15  H    4.951767   4.297700   2.440768   3.615316   0.000000
    16  H    4.297700   4.951767   4.685611   5.391485   2.459629
                   16
    16  H    0.000000
 Stoichiometry    C6H8N2
 Framework group  C1[X(C6H8N2)]
 Deg. of freedom    42
 Full point group                 C1      NOp   1
 Largest Abelian subgroup         C1      NOp   1
 Largest concise Abelian subgroup C1      NOp   1
                         Standard orientation:                         
 ---------------------------------------------------------------------
 Center     Atomic      Atomic             Coordinates (Angstroms)
 Number     Number       Type             X           Y           Z
 ---------------------------------------------------------------------
      1          7           0       -2.829512    0.000000   -0.074395
      2          6           0       -1.423043    0.000000    0.002785
      3          6           0       -0.697031    1.200980   -0.009833
      4          6           0        0.697031    1.200980   -0.009833
      5          6           0        1.423043   -0.000000    0.002785
      6          7           0        2.829512   -0.000000   -0.074395
      7          6           0        0.697031   -1.200980   -0.009833
      8          6           0       -0.697031   -1.200980   -0.009833
      9          1           0       -3.252036   -0.827554    0.330257
     10          1           0       -3.252036    0.827554    0.330259
     11          1           0       -1.229814    2.148850   -0.019231
     12          1           0        1.229814    2.148850   -0.019231
     13          1           0        3.252036   -0.827553    0.330260
     14          1           0        3.252036    0.827554    0.330257
     15          1           0        1.229814   -2.148850   -0.019231
     16          1           0       -1.229814   -2.148850   -0.019231
 ---------------------------------------------------------------------
 Rotational constants (GHZ):           5.5417114           1.4629110           1.1605026
 Standard basis: 6-31G(d,p) (6D, 7F)
 There are   160 symmetry adapted cartesian basis functions of A   symmetry.
 There are   160 symmetry adapted basis functions of A   symmetry.
   160 basis functions,   280 primitive gaussians,   160 cartesian basis functions
    29 alpha electrons       29 beta electrons
       nuclear repulsion energy       343.8036083400 Hartrees.
 NAtoms=   16 NActive=   16 NUniq=   16 SFac= 1.00D+00 NAtFMM=   60 NAOKFM=F Big=F
 Integral buffers will be    131072 words long.
 Raffenetti 2 integral format.
 Two-electron integral symmetry is turned on.
 ------------------------------------------------------------------------------
 Polarizable Continuum Model (PCM)
 =================================
 Model                : PCM.
 Atomic radii         : UFF (Universal Force Field).
 Polarization charges : Total charges.
 Charge compensation  : None.
 Solution method      : Matrix inversion.
 Cavity type          : Scaled VdW (van der Waals Surface) (Alpha=1.100).
 Cavity algorithm     : GePol (No added spheres)
                        Default sphere list used, NSphG=   16.
                        Lebedev-Laikov grids with approx.  5.0 points / Ang**2.
                        Smoothing algorithm: York/Karplus (Gamma=1.0000).
                        Polarization charges: spherical gaussians, with
                                              point-specific exponents (IZeta= 3).
                        Self-potential: point-specific (ISelfS= 7).
                        Self-field    : sphere-specific E.n sum rule (ISelfD= 2).
 1st derivatives      : Analytical E(r).r(x)/FMM algorithm (CHGder, D1EAlg=3).
                        Cavity 1st derivative terms included.
 Solvent              : Water, Eps=  78.355300 Eps(inf)=   1.777849
 ------------------------------------------------------------------------------
 Spheres list:
 ISph  on   Nord     Re0    Alpha      Xe            Ye            Ze
    1   N      1    1.8300  1.100     -2.829512      0.000000     -0.074395
    2   C      2    1.9255  1.100     -1.423043      0.000000      0.002785
    3   C      3    1.9255  1.100     -0.697031      1.200980     -0.009833
    4   C      4    1.9255  1.100      0.697031      1.200980     -0.009833
    5   C      5    1.9255  1.100      1.423043     -0.000000      0.002785
    6   N      6    1.8300  1.100      2.829512     -0.000000     -0.074395
    7   C      7    1.9255  1.100      0.697031     -1.200980     -0.009833
    8   C      8    1.9255  1.100     -0.697031     -1.200980     -0.009833
    9   H      9    1.4430  1.100     -3.252036     -0.827554      0.330257
   10   H     10    1.4430  1.100     -3.252036      0.827554      0.330259
   11   H     11    1.4430  1.100     -1.229814      2.148850     -0.019231
   12   H     12    1.4430  1.100      1.229814      2.148850     -0.019231
   13   H     13    1.4430  1.100      3.252036     -0.827553      0.330260
   14   H     14    1.4430  1.100      3.252036      0.827554      0.330257
   15   H     15    1.4430  1.100      1.229814     -2.148850     -0.019231
   16   H     16    1.4430  1.100     -1.229814     -2.148850     -0.019231
 ------------------------------------------------------------------------------
 One-electron integrals computed using PRISM.
 NBasis=   160 RedAO= T EigKep=  4.09D-04  NBF=   160
 NBsUse=   160 1.00D-06 EigRej= -1.00D+00 NBFU=   160
 Initial guess from the checkpoint file:  "CBCKQZAAMUWICA-UHFFFAOYSA-N_conf_0_0.chk"
 B after Tr=     0.000000   -0.000000   -0.000000
         Rot=    1.000000    0.000000   -0.000000   -0.000000 Ang=   0.00 deg.
 ExpMin= 1.61D-01 ExpMax= 4.17D+03 ExpMxC= 6.27D+02 IAcc=2 IRadAn=         4 AccDes= 0.00D+00
 Harris functional with IExCor=  402 and IRadAn=       4 diagonalized for initial guess.
 HarFok:  IExCor=  402 AccDes= 0.00D+00 IRadAn=         4 IDoV= 1 UseB2=F ITyADJ=14
 ICtDFT=  3500011 ScaDFX=  1.000000  1.000000  1.000000  1.000000
 FoFCou: FMM=F IPFlag=           0 FMFlag=      100000 FMFlg1=           0
         NFxFlg=           0 DoJE=T BraDBF=F KetDBF=T FulRan=T
         wScrn=  0.000000 ICntrl=       500 IOpCl=  0 I1Cent=   200000004 NGrid=           0
         NMat0=    1 NMatS0=      1 NMatT0=    0 NMatD0=    1 NMtDS0=    0 NMtDT0=    0
 Petite list used in FoFCou.
 Keep R1 ints in memory in canonical form, NReq=85041267.
 Requested convergence on RMS density matrix=1.00D-08 within  32 cycles.
 Requested convergence on MAX density matrix=1.00D-06.
 Requested convergence on             energy=1.00D-06.
 No special actions if energy rises.
 Inv3:  Mode=1 IEnd=     5306700.
 Iteration    1 A*A^-1 deviation from unit magnitude is 5.66D-15 for     70.
 Iteration    1 A*A^-1 deviation from orthogonality  is 3.92D-15 for   1211    335.
 Iteration    1 A^-1*A deviation from unit magnitude is 5.77D-15 for     24.
 Iteration    1 A^-1*A deviation from orthogonality  is 2.53D-15 for   1278    738.
 Error on total polarization charges =  0.00726
 SCF Done:  E(RB3LYP) =  -342.981242371     A.U. after    9 cycles
            NFock=  9  Conv=0.55D-08     -V/T= 2.0098
 QCSCF skips out because SCF is already converged.
 D1PCM: PCM CHGder 1st derivatives, ID1Alg=3 FixD1E=F DoIter=F DoCFld=F I1PDM=0.
 Calling FoFJK, ICntrl=      2127 FMM=F ISym2X=0 I1Cent= 0 IOpClX= 0 NMat=1 NMatS=1 NMatT=0.
 ***** Axes restored to original set *****
 -------------------------------------------------------------------
 Center     Atomic                   Forces (Hartrees/Bohr)
 Number     Number              X              Y              Z
 -------------------------------------------------------------------
      1        7          -0.000565466   -0.000249713    0.000155878
      2        6           0.000128679    0.001619665   -0.002046810
      3        6           0.000298723   -0.000084731    0.000939414
      4        6          -0.000555583   -0.000171130    0.000800590
      5        6           0.000206052    0.001627408   -0.002034177
      6        7           0.000525319   -0.000139353    0.000333106
      7        6          -0.000397011   -0.000868532    0.000258655
      8        6           0.000457362   -0.000782151    0.000397509
      9        1          -0.000099248   -0.000069939    0.000140303
     10        1          -0.000082309   -0.000144406    0.000082431
     11        1          -0.000062700   -0.000151963    0.000160095
     12        1           0.000037739   -0.000141788    0.000176403
     13        1           0.000061893   -0.000053634    0.000166478
     14        1           0.000078828   -0.000128121    0.000108618
     15        1           0.000034079   -0.000125728    0.000188914
     16        1          -0.000066358   -0.000135885    0.000172592
 -------------------------------------------------------------------
 Cartesian Forces:  Max     0.002046810 RMS     0.000624746

 GradGradGradGradGradGradGradGradGradGradGradGradGradGradGradGradGradGrad
 Berny optimization.
 Using GEDIIS/GDIIS optimizer.
 FormGI is forming the generalized inverse of G from B-inverse, IUseBI=4.
 Internal  Forces:  Max     0.000683681 RMS     0.000286012
 Search for a local minimum.
 Step number   2 out of a maximum of   82
 All quantities printed in internal units (Hartrees-Bohrs-Radians)
 Mixed Optimization -- En-DIIS/RFO-DIIS
 Update second derivatives using D2CorX and points    1    2
 DE= -2.80D-03 DEPred=-2.76D-03 R= 1.01D+00
 TightC=F SS=  1.41D+00  RLast= 3.41D-01 DXNew= 5.0454D-01 1.0239D+00
 Trust test= 1.01D+00 RLast= 3.41D-01 DXMaxT set to 5.05D-01
 ITU=  1  0
 Use linear search instead of GDIIS.
     Eigenvalues ---    0.00390   0.00406   0.01595   0.01608   0.01702
     Eigenvalues ---    0.01803   0.01935   0.02107   0.02267   0.02544
     Eigenvalues ---    0.02668   0.02686   0.02733   0.11308   0.11562
     Eigenvalues ---    0.11846   0.12669   0.13593   0.13635   0.15340
     Eigenvalues ---    0.15696   0.18018   0.19237   0.19808   0.19873
     Eigenvalues ---    0.22753   0.32951   0.35601   0.35641   0.35945
     Eigenvalues ---    0.35977   0.37042   0.41102   0.43245   0.45403
     Eigenvalues ---    0.45544   0.45958   0.45987   0.46707   0.47603
     Eigenvalues ---    0.48578   0.51796
 RFO step:  Lambda=-4.29690343D-05 EMin= 3.89609594D-03
 Quartic linear search produced a step of  0.16386.
 Iteration  1 RMS(Cart)=  0.00779677 RMS(Int)=  0.00014587
 Iteration  2 RMS(Cart)=  0.00008815 RMS(Int)=  0.00013523
 Iteration  3 RMS(Cart)=  0.00000000 RMS(Int)=  0.00013523
 Variable       Old X    -DE/DX   Delta X   Delta X   Delta X     New X
                                 (Linear)    (Quad)   (Total)
    R1        2.66184   0.00068   0.00288  -0.00129   0.00159   2.66343
    R2        1.91518   0.00006  -0.00046   0.00077   0.00031   1.91548
    R3        1.91518   0.00006  -0.00046   0.00077   0.00031   1.91548
    R4        2.65209   0.00056   0.00258  -0.00172   0.00086   2.65295
    R5        2.65209   0.00056   0.00258  -0.00172   0.00086   2.65295
    R6        2.63439  -0.00000  -0.00179   0.00165  -0.00014   2.63426
    R7        2.05486   0.00001   0.00032  -0.00027   0.00005   2.05491
    R8        2.65209   0.00056   0.00258  -0.00172   0.00086   2.65295
    R9        2.05486   0.00001   0.00032  -0.00027   0.00005   2.05491
   R10        2.66184   0.00068   0.00288  -0.00129   0.00159   2.66343
   R11        2.65209   0.00056   0.00258  -0.00172   0.00086   2.65295
   R12        1.91518   0.00006  -0.00046   0.00077   0.00031   1.91548
   R13        1.91518   0.00006  -0.00046   0.00077   0.00031   1.91548
   R14        2.63439  -0.00000  -0.00179   0.00165  -0.00014   2.63426
   R15        2.05486   0.00001   0.00032  -0.00027   0.00005   2.05491
   R16        2.05486   0.00001   0.00032  -0.00027   0.00005   2.05491
    A1        1.97622   0.00001  -0.00142   0.00019  -0.00132   1.97490
    A2        1.97622   0.00001  -0.00142   0.00019  -0.00132   1.97490
    A3        1.91084  -0.00015  -0.00817   0.00579  -0.00253   1.90831
    A4        2.11302   0.00008   0.00202  -0.00071   0.00092   2.11395
    A5        2.11302   0.00008   0.00202  -0.00071   0.00092   2.11395
    A6        2.05399  -0.00010  -0.00175   0.00216  -0.00009   2.05390
    A7        2.11451   0.00005   0.00122  -0.00100   0.00014   2.11464
    A8        2.08583  -0.00008  -0.00224   0.00177  -0.00044   2.08539
    A9        2.08285   0.00002   0.00104  -0.00077   0.00029   2.08314
   A10        2.11451   0.00005   0.00122  -0.00100   0.00014   2.11464
   A11        2.08285   0.00002   0.00104  -0.00077   0.00029   2.08314
   A12        2.08583  -0.00008  -0.00224   0.00177  -0.00044   2.08539
   A13        2.11302   0.00008   0.00202  -0.00071   0.00092   2.11395
   A14        2.05399  -0.00010  -0.00175   0.00216  -0.00009   2.05390
   A15        2.11302   0.00008   0.00202  -0.00071   0.00092   2.11395
   A16        1.97622   0.00001  -0.00142   0.00019  -0.00132   1.97490
   A17        1.97622   0.00001  -0.00142   0.00019  -0.00132   1.97490
   A18        1.91084  -0.00015  -0.00817   0.00579  -0.00253   1.90831
   A19        2.11451   0.00005   0.00122  -0.00100   0.00014   2.11464
   A20        2.08583  -0.00008  -0.00224   0.00177  -0.00044   2.08539
   A21        2.08285   0.00002   0.00104  -0.00077   0.00029   2.08314
   A22        2.11451   0.00005   0.00122  -0.00100   0.00014   2.11464
   A23        2.08583  -0.00008  -0.00224   0.00177  -0.00044   2.08539
   A24        2.08285   0.00002   0.00104  -0.00077   0.00029   2.08314
    D1       -2.70864   0.00046   0.01632   0.00102   0.01736  -2.69128
    D2        0.52012  -0.00027  -0.00231  -0.00927  -0.01172   0.50840
    D3       -0.52012   0.00027   0.00231   0.00927   0.01172  -0.50840
    D4        2.70864  -0.00046  -0.01632  -0.00101  -0.01736   2.69128
    D5       -3.07758  -0.00025  -0.00542  -0.00091  -0.00629  -3.08388
    D6        0.06460  -0.00019  -0.00308   0.00010  -0.00294   0.06166
    D7       -0.02031   0.00047   0.01300   0.00890   0.02187   0.00156
    D8        3.12188   0.00053   0.01535   0.00991   0.02521  -3.13609
    D9        3.07758   0.00025   0.00542   0.00091   0.00629   3.08388
   D10       -0.06460   0.00019   0.00308  -0.00010   0.00294  -0.06166
   D11        0.02031  -0.00047  -0.01300  -0.00890  -0.02187  -0.00156
   D12       -3.12188  -0.00053  -0.01535  -0.00991  -0.02521   3.13609
   D13        0.00000  -0.00000  -0.00000  -0.00000  -0.00000   0.00000
   D14       -3.14100   0.00006   0.00232   0.00101   0.00334  -3.13766
   D15        3.14100  -0.00006  -0.00232  -0.00101  -0.00334   3.13766
   D16        0.00000  -0.00000  -0.00000  -0.00000  -0.00000  -0.00000
   D17        3.07758   0.00025   0.00542   0.00091   0.00629   3.08388
   D18        0.02031  -0.00047  -0.01300  -0.00890  -0.02187  -0.00156
   D19       -0.06460   0.00019   0.00308  -0.00010   0.00294  -0.06166
   D20       -3.12188  -0.00053  -0.01535  -0.00991  -0.02521   3.13609
   D21        2.70864  -0.00046  -0.01632  -0.00101  -0.01736   2.69128
   D22        0.52012  -0.00027  -0.00231  -0.00926  -0.01172   0.50840
   D23       -0.52012   0.00027   0.00231   0.00927   0.01172  -0.50840
   D24       -2.70864   0.00046   0.01632   0.00102   0.01736  -2.69128
   D25       -0.02031   0.00047   0.01300   0.00890   0.02187   0.00156
   D26        3.12188   0.00053   0.01535   0.00991   0.02521  -3.13609
   D27       -3.07758  -0.00025  -0.00542  -0.00091  -0.00629  -3.08388
   D28        0.06460  -0.00019  -0.00308   0.00010  -0.00294   0.06166
   D29       -0.00000   0.00000   0.00000  -0.00000   0.00000   0.00000
   D30       -3.14100   0.00006   0.00232   0.00101   0.00334  -3.13766
   D31        3.14100  -0.00006  -0.00232  -0.00101  -0.00334   3.13766
   D32        0.00000  -0.00000  -0.00000  -0.00000  -0.00000   0.00000
         Item               Value     Threshold  Converged?
 Maximum Force            0.000684     0.000450     NO 
 RMS     Force            0.000286     0.000300     YES
 Maximum Displacement     0.021294     0.001800     NO 
 RMS     Displacement     0.007801     0.001200     NO 
 Predicted change in Energy=-7.502168D-05
 GradGradGradGradGradGradGradGradGradGradGradGradGradGradGradGradGradGrad

                          Input orientation:                          
 ---------------------------------------------------------------------
 Center     Atomic      Atomic             Coordinates (Angstroms)
 Number     Number       Type             X           Y           Z
 ---------------------------------------------------------------------
      1          7           0       -2.771192   -0.189595   -0.567026
      2          6           0       -1.393041   -0.092994   -0.288013
      3          6           0       -0.891966    0.912269    0.554161
      4          6           0        0.477171    1.050753    0.776632
      5          6           0        1.403022    0.189820    0.166319
      6          7           0        2.790087    0.372913    0.336626
      7          6           0        0.901822   -0.816648   -0.674340
      8          6           0       -0.467315   -0.955132   -0.896811
      9          1           0       -3.063089   -1.128488   -0.813441
     10          1           0       -3.355399    0.156944    0.185342
     11          1           0       -1.583337    1.593144    1.044954
     12          1           0        0.832945    1.837545    1.437576
     13          1           0        3.321825   -0.482672    0.224045
     14          1           0        3.029515    0.802760    1.222827
     15          1           0        1.592617   -1.503109   -1.158114
     16          1           0       -0.823665   -1.747509   -1.550736
 ---------------------------------------------------------------------
                    Distance matrix (angstroms):
                    1          2          3          4          5
     1  N    0.000000
     2  C    1.409425   0.000000
     3  C    2.450031   1.403883   0.000000
     4  C    3.727699   2.437072   1.393990   0.000000
     5  C    4.255092   2.846818   2.437072   1.403883   0.000000
     6  N    5.662228   4.255092   3.727699   2.450031   1.409425
     7  C    3.727699   2.437072   2.777777   2.402673   1.403883
     8  C    2.450031   1.403883   2.402673   2.777777   2.437072
     9  H    1.013630   2.034056   3.278536   4.450940   4.758573
    10  H    1.013630   2.034056   2.602892   3.979587   4.758573
    11  H    2.680978   2.157795   1.087411   2.147528   3.414624
    12  H    4.595381   3.414624   2.147528   1.087411   2.157795
    13  H    6.151141   4.758573   4.450940   3.278536   2.034056
    14  H    6.151141   4.758573   3.979587   2.602892   2.034056
    15  H    4.595381   3.414624   3.865111   3.392591   2.157795
    16  H    2.680978   2.157795   3.392591   3.865111   3.414624
                    6          7          8          9         10
     6  N    0.000000
     7  C    2.450031   0.000000
     8  C    3.727699   1.393990   0.000000
     9  H    6.151141   3.979587   2.602892   0.000000
    10  H    6.151141   4.450940   3.278536   1.653889   0.000000
    11  H    4.595381   3.865111   3.392591   3.612559   2.437583
    12  H    2.680978   3.392591   3.865111   5.389204   4.683454
    13  H    1.013630   2.602892   3.979587   6.500814   6.707900
    14  H    1.013630   3.278536   4.450940   6.707900   6.500814
    15  H    2.680978   1.087411   2.147528   4.683454   5.389204
    16  H    4.595381   2.147528   1.087411   2.437583   3.612559
                   11         12         13         14         15
    11  H    0.000000
    12  H    2.460143   0.000000
    13  H    5.389204   3.612559   0.000000
    14  H    4.683454   2.437583   1.653889   0.000000
    15  H    4.952472   4.298217   2.437583   3.612559   0.000000
    16  H    4.298217   4.952472   4.683454   5.389204   2.460143
                   16
    16  H    0.000000
 Stoichiometry    C6H8N2
 Framework group  C1[X(C6H8N2)]
 Deg. of freedom    42
 Full point group                 C1      NOp   1
 Largest Abelian subgroup         C1      NOp   1
 Largest concise Abelian subgroup C1      NOp   1
                         Standard orientation:                         
 ---------------------------------------------------------------------
 Center     Atomic      Atomic             Coordinates (Angstroms)
 Number     Number       Type             X           Y           Z
 ---------------------------------------------------------------------
      1          7           0       -2.831114    0.000000   -0.077030
      2          6           0       -1.423409    0.000000   -0.007428
      3          6           0       -0.696995    1.201336   -0.006459
      4          6           0        0.696995    1.201336   -0.006459
      5          6           0        1.423409    0.000000   -0.007428
      6          7           0        2.831114    0.000000   -0.077030
      7          6           0        0.696995   -1.201336   -0.006459
      8          6           0       -0.696995   -1.201336   -0.006459
      9          1           0       -3.250407   -0.826944    0.332606
     10          1           0       -3.250407    0.826944    0.332606
     11          1           0       -1.230071    2.149109   -0.001964
     12          1           0        1.230071    2.149109   -0.001964
     13          1           0        3.250407   -0.826944    0.332607
     14          1           0        3.250407    0.826944    0.332606
     15          1           0        1.230071   -2.149109   -0.001964
     16          1           0       -1.230071   -2.149109   -0.001964
 ---------------------------------------------------------------------
 Rotational constants (GHZ):           5.5384267           1.4618572           1.1597627
 Standard basis: 6-31G(d,p) (6D, 7F)
 There are   160 symmetry adapted cartesian basis functions of A   symmetry.
 There are   160 symmetry adapted basis functions of A   symmetry.
   160 basis functions,   280 primitive gaussians,   160 cartesian basis functions
    29 alpha electrons       29 beta electrons
       nuclear repulsion energy       343.7093428270 Hartrees.
 NAtoms=   16 NActive=   16 NUniq=   16 SFac= 1.00D+00 NAtFMM=   60 NAOKFM=F Big=F
 Integral buffers will be    131072 words long.
 Raffenetti 2 integral format.
 Two-electron integral symmetry is turned on.
 ------------------------------------------------------------------------------
 Polarizable Continuum Model (PCM)
 =================================
 Model                : PCM.
 Atomic radii         : UFF (Universal Force Field).
 Polarization charges : Total charges.
 Charge compensation  : None.
 Solution method      : Matrix inversion.
 Cavity type          : Scaled VdW (van der Waals Surface) (Alpha=1.100).
 Cavity algorithm     : GePol (No added spheres)
                        Default sphere list used, NSphG=   16.
                        Lebedev-Laikov grids with approx.  5.0 points / Ang**2.
                        Smoothing algorithm: York/Karplus (Gamma=1.0000).
                        Polarization charges: spherical gaussians, with
                                              point-specific exponents (IZeta= 3).
                        Self-potential: point-specific (ISelfS= 7).
                        Self-field    : sphere-specific E.n sum rule (ISelfD= 2).
 1st derivatives      : Analytical E(r).r(x)/FMM algorithm (CHGder, D1EAlg=3).
                        Cavity 1st derivative terms included.
 Solvent              : Water, Eps=  78.355300 Eps(inf)=   1.777849
 ------------------------------------------------------------------------------
 Spheres list:
 ISph  on   Nord     Re0    Alpha      Xe            Ye            Ze
    1   N      1    1.8300  1.100     -2.831114      0.000000     -0.077030
    2   C      2    1.9255  1.100     -1.423409     -0.000000     -0.007428
    3   C      3    1.9255  1.100     -0.696995      1.201336     -0.006459
    4   C      4    1.9255  1.100      0.696995      1.201336     -0.006459
    5   C      5    1.9255  1.100      1.423409      0.000000     -0.007428
    6   N      6    1.8300  1.100      2.831114      0.000000     -0.077030
    7   C      7    1.9255  1.100      0.696995     -1.201336     -0.006459
    8   C      8    1.9255  1.100     -0.696995     -1.201336     -0.006459
    9   H      9    1.4430  1.100     -3.250407     -0.826944      0.332606
   10   H     10    1.4430  1.100     -3.250407      0.826944      0.332606
   11   H     11    1.4430  1.100     -1.230071      2.149109     -0.001964
   12   H     12    1.4430  1.100      1.230071      2.149109     -0.001964
   13   H     13    1.4430  1.100      3.250407     -0.826944      0.332607
   14   H     14    1.4430  1.100      3.250407      0.826944      0.332606
   15   H     15    1.4430  1.100      1.230071     -2.149109     -0.001964
   16   H     16    1.4430  1.100     -1.230071     -2.149109     -0.001964
 ------------------------------------------------------------------------------
 One-electron integrals computed using PRISM.
 NBasis=   160 RedAO= T EigKep=  4.05D-04  NBF=   160
 NBsUse=   160 1.00D-06 EigRej= -1.00D+00 NBFU=   160
 Initial guess from the checkpoint file:  "CBCKQZAAMUWICA-UHFFFAOYSA-N_conf_0_0.chk"
 B after Tr=     0.000000    0.000000    0.000000
         Rot=    1.000000   -0.000000   -0.000000   -0.000000 Ang=   0.00 deg.
 ExpMin= 1.61D-01 ExpMax= 4.17D+03 ExpMxC= 6.27D+02 IAcc=2 IRadAn=         4 AccDes= 0.00D+00
 Harris functional with IExCor=  402 and IRadAn=       4 diagonalized for initial guess.
 HarFok:  IExCor=  402 AccDes= 0.00D+00 IRadAn=         4 IDoV= 1 UseB2=F ITyADJ=14
 ICtDFT=  3500011 ScaDFX=  1.000000  1.000000  1.000000  1.000000
 FoFCou: FMM=F IPFlag=           0 FMFlag=      100000 FMFlg1=           0
         NFxFlg=           0 DoJE=T BraDBF=F KetDBF=T FulRan=T
         wScrn=  0.000000 ICntrl=       500 IOpCl=  0 I1Cent=   200000004 NGrid=           0
         NMat0=    1 NMatS0=      1 NMatT0=    0 NMatD0=    1 NMtDS0=    0 NMtDT0=    0
 Petite list used in FoFCou.
 Keep R1 ints in memory in canonical form, NReq=85041267.
 Requested convergence on RMS density matrix=1.00D-08 within  32 cycles.
 Requested convergence on MAX density matrix=1.00D-06.
 Requested convergence on             energy=1.00D-06.
 No special actions if energy rises.
 Inv3:  Mode=1 IEnd=     5370732.
 Iteration    1 A*A^-1 deviation from unit magnitude is 5.44D-15 for    153.
 Iteration    1 A*A^-1 deviation from orthogonality  is 5.47D-15 for   1124    488.
 Iteration    1 A^-1*A deviation from unit magnitude is 5.55D-15 for   1312.
 Iteration    1 A^-1*A deviation from orthogonality  is 3.93D-15 for   1040    619.
 Error on total polarization charges =  0.00727
 SCF Done:  E(RB3LYP) =  -342.981319551     A.U. after    9 cycles
            NFock=  9  Conv=0.73D-09     -V/T= 2.0098
 QCSCF skips out because SCF is already converged.
 D1PCM: PCM CHGder 1st derivatives, ID1Alg=3 FixD1E=F DoIter=F DoCFld=F I1PDM=0.
 Calling FoFJK, ICntrl=      2127 FMM=F ISym2X=0 I1Cent= 0 IOpClX= 0 NMat=1 NMatS=1 NMatT=0.
 ***** Axes restored to original set *****
 -------------------------------------------------------------------
 Center     Atomic                   Forces (Hartrees/Bohr)
 Number     Number              X              Y              Z
 -------------------------------------------------------------------
      1        7          -0.000070521   -0.000024835    0.000011323
      2        6           0.000012151    0.000030224   -0.000035352
      3        6           0.000027944    0.000047975    0.000075533
      4        6          -0.000059001    0.000039180    0.000061400
      5        6          -0.000006110    0.000028383   -0.000038312
      6        7           0.000066823   -0.000010947    0.000033646
      7        6          -0.000031445   -0.000082006   -0.000032757
      8        6           0.000055494   -0.000073208   -0.000018627
      9        1          -0.000001218   -0.000002810   -0.000007158
     10        1          -0.000003444    0.000006970    0.000000440
     11        1           0.000001363    0.000007143   -0.000012687
     12        1           0.000001317    0.000007136   -0.000012693
     13        1           0.000003926   -0.000002288   -0.000006327
     14        1           0.000001702    0.000007494    0.000001276
     15        1           0.000000486    0.000010793   -0.000009855
     16        1           0.000000531    0.000010797   -0.000009847
 -------------------------------------------------------------------
 Cartesian Forces:  Max     0.000082006 RMS     0.000033009

 GradGradGradGradGradGradGradGradGradGradGradGradGradGradGradGradGradGrad
 Berny optimization.
 Using GEDIIS/GDIIS optimizer.
 FormGI is forming the generalized inverse of G from B-inverse, IUseBI=4.
 Internal  Forces:  Max     0.000081754 RMS     0.000023690
 Search for a local minimum.
 Step number   3 out of a maximum of   82
 All quantities printed in internal units (Hartrees-Bohrs-Radians)
 Mixed Optimization -- En-DIIS/RFO-DIIS
 Swapping is turned off.
 Update second derivatives using D2CorX and points    1    2    3
 DE= -7.72D-05 DEPred=-7.50D-05 R= 1.03D+00
 TightC=F SS=  1.41D+00  RLast= 8.05D-02 DXNew= 8.4853D-01 2.4152D-01
 Trust test= 1.03D+00 RLast= 8.05D-02 DXMaxT set to 5.05D-01
 ITU=  1  1  0
     Eigenvalues ---    0.00390   0.00406   0.01608   0.01608   0.01702
     Eigenvalues ---    0.01802   0.01931   0.02107   0.02267   0.02511
     Eigenvalues ---    0.02667   0.02686   0.02689   0.11307   0.11556
     Eigenvalues ---    0.11846   0.12668   0.13590   0.13636   0.15326
     Eigenvalues ---    0.15686   0.17992   0.19211   0.19764   0.19865
     Eigenvalues ---    0.22691   0.32929   0.35599   0.35637   0.35945
     Eigenvalues ---    0.35977   0.37040   0.41073   0.43217   0.45402
     Eigenvalues ---    0.45544   0.45958   0.45986   0.46614   0.47583
     Eigenvalues ---    0.48562   0.51543
 En-DIIS/RFO-DIIS/Sim-DIIS IScMMF=       -3 using points:     3    2
 RFO step:  Lambda=-1.59730106D-07.
 DidBck=F Rises=F RFO-DIIS coefs:    0.99897    0.00103
 Iteration  1 RMS(Cart)=  0.00027813 RMS(Int)=  0.00000005
 Iteration  2 RMS(Cart)=  0.00000005 RMS(Int)=  0.00000004
 Variable       Old X    -DE/DX   Delta X   Delta X   Delta X     New X
                                 (Linear)    (Quad)   (Total)
    R1        2.66343   0.00007  -0.00000   0.00014   0.00014   2.66357
    R2        1.91548   0.00000  -0.00000  -0.00001  -0.00001   1.91547
    R3        1.91548   0.00000  -0.00000  -0.00001  -0.00001   1.91547
    R4        2.65295   0.00008  -0.00000   0.00016   0.00016   2.65312
    R5        2.65295   0.00008  -0.00000   0.00016   0.00016   2.65312
    R6        2.63426  -0.00001   0.00000  -0.00003  -0.00003   2.63422
    R7        2.05491  -0.00000  -0.00000  -0.00001  -0.00001   2.05490
    R8        2.65295   0.00008  -0.00000   0.00016   0.00016   2.65312
    R9        2.05491  -0.00000  -0.00000  -0.00001  -0.00001   2.05490
   R10        2.66343   0.00007  -0.00000   0.00014   0.00014   2.66357
   R11        2.65295   0.00008  -0.00000   0.00016   0.00016   2.65312
   R12        1.91548   0.00000  -0.00000  -0.00001  -0.00001   1.91547
   R13        1.91548   0.00000  -0.00000  -0.00001  -0.00001   1.91547
   R14        2.63426  -0.00001   0.00000  -0.00003  -0.00003   2.63422
   R15        2.05491  -0.00000  -0.00000  -0.00001  -0.00001   2.05490
   R16        2.05491  -0.00000  -0.00000  -0.00001  -0.00001   2.05490
    A1        1.97490   0.00000   0.00000   0.00007   0.00007   1.97497
    A2        1.97490   0.00000   0.00000   0.00007   0.00007   1.97497
    A3        1.90831   0.00000   0.00000   0.00016   0.00016   1.90847
    A4        2.11395  -0.00001  -0.00000  -0.00003  -0.00003   2.11392
    A5        2.11395  -0.00001  -0.00000  -0.00003  -0.00003   2.11392
    A6        2.05390   0.00001   0.00000   0.00008   0.00008   2.05397
    A7        2.11464  -0.00001  -0.00000  -0.00004  -0.00004   2.11460
    A8        2.08539   0.00000   0.00000  -0.00003  -0.00003   2.08536
[...]
 Alpha virt. eigenvalues --    2.38253   2.41131   2.42809   2.42965   2.45467
 Alpha virt. eigenvalues --    2.47178   2.48536   2.52522   2.56245   2.60159
 Alpha virt. eigenvalues --    2.60385   2.61579   2.66909   2.70162   2.71980
 Alpha virt. eigenvalues --    2.79051   2.81732   2.88284   2.88872   2.97643
 Alpha virt. eigenvalues --    3.00706   3.06616   3.09218   3.20536   3.25435
 Alpha virt. eigenvalues --    3.27123   3.29282   3.31423   3.38491   3.48086
 Alpha virt. eigenvalues --    3.50813   3.55134   3.83285   4.02568   4.09713
 Alpha virt. eigenvalues --    4.13374   4.16375   4.18118   4.44043   4.45887
 Alpha virt. eigenvalues --    4.83308
          Condensed to atoms (all electrons):
               1          2          3          4          5          6
     1  N    6.794535   0.274210  -0.060368   0.004419   0.000487   0.000001
     2  C    0.274210   4.663192   0.507328  -0.020983  -0.032755   0.000487
     3  C   -0.060368   0.507328   5.122927   0.412651  -0.020983   0.004419
     4  C    0.004419  -0.020983   0.412651   5.122927   0.507328  -0.060368
     5  C    0.000487  -0.032755  -0.020983   0.507328   4.663192   0.274210
     6  N    0.000001   0.000487   0.004419  -0.060368   0.274210   6.794535
     7  C    0.004419  -0.020983  -0.021163  -0.092578   0.507328  -0.060368
     8  C   -0.060368   0.507328  -0.092578  -0.021163  -0.020983   0.004419
     9  H    0.333431  -0.022525   0.005086  -0.000091  -0.000017  -0.000000
    10  H    0.333431  -0.022525  -0.007641  -0.000225  -0.000017  -0.000000
    11  H   -0.008422  -0.046567   0.360534  -0.035067   0.004451  -0.000117
    12  H   -0.000117   0.004451  -0.035067   0.360534  -0.046567  -0.008422
    13  H   -0.000000  -0.000017  -0.000091   0.005086  -0.022525   0.333431
    14  H   -0.000000  -0.000017  -0.000225  -0.007641  -0.022525   0.333431
    15  H   -0.000117   0.004451   0.000724   0.005755  -0.046567  -0.008422
    16  H   -0.008422  -0.046567   0.005755   0.000724   0.004451  -0.000117
               7          8          9         10         11         12
     1  N    0.004419  -0.060368   0.333431   0.333431  -0.008422  -0.000117
     2  C   -0.020983   0.507328  -0.022525  -0.022525  -0.046567   0.004451
     3  C   -0.021163  -0.092578   0.005086  -0.007641   0.360534  -0.035067
     4  C   -0.092578  -0.021163  -0.000091  -0.000225  -0.035067   0.360534
     5  C    0.507328  -0.020983  -0.000017  -0.000017   0.004451  -0.046567
     6  N   -0.060368   0.004419  -0.000000  -0.000000  -0.000117  -0.008422
     7  C    5.122927   0.412651  -0.000225  -0.000091   0.000724   0.005755
     8  C    0.412651   5.122927  -0.007641   0.005086   0.005755   0.000724
     9  H   -0.000225  -0.007641   0.425415  -0.033174  -0.000094   0.000003
    10  H   -0.000091   0.005086  -0.033174   0.425415   0.004855  -0.000008
    11  H    0.000724   0.005755  -0.000094   0.004855   0.657435  -0.007425
    12  H    0.005755   0.000724   0.000003  -0.000008  -0.007425   0.657435
    13  H   -0.007641  -0.000225  -0.000000   0.000000   0.000003  -0.000094
    14  H    0.005086  -0.000091   0.000000  -0.000000  -0.000008   0.004855
    15  H    0.360534  -0.035067  -0.000008   0.000003   0.000015  -0.000216
    16  H   -0.035067   0.360534   0.004855  -0.000094  -0.000216   0.000015
              13         14         15         16
     1  N   -0.000000  -0.000000  -0.000117  -0.008422
     2  C   -0.000017  -0.000017   0.004451  -0.046567
     3  C   -0.000091  -0.000225   0.000724   0.005755
     4  C    0.005086  -0.007641   0.005755   0.000724
     5  C   -0.022525  -0.022525  -0.046567   0.004451
     6  N    0.333431   0.333431  -0.008422  -0.000117
     7  C   -0.007641   0.005086   0.360534  -0.035067
     8  C   -0.000225  -0.000091  -0.035067   0.360534
     9  H   -0.000000   0.000000  -0.000008   0.004855
    10  H    0.000000  -0.000000   0.000003  -0.000094
    11  H    0.000003  -0.000008   0.000015  -0.000216
    12  H   -0.000094   0.004855  -0.000216   0.000015
    13  H    0.425415  -0.033174   0.004855  -0.000008
    14  H   -0.033174   0.425415  -0.000094   0.000003
    15  H    0.004855  -0.000094   0.657435  -0.007425
    16  H   -0.000008   0.000003  -0.007425   0.657435
 Mulliken charges:
               1
     1  N   -0.607121
     2  C    0.251491
     3  C   -0.181310
     4  C   -0.181310
     5  C    0.251491
     6  N   -0.607121
     7  C   -0.181310
     8  C   -0.181310
     9  H    0.294984
    10  H    0.294984
    11  H    0.064141
    12  H    0.064141
    13  H    0.294984
    14  H    0.294984
    15  H    0.064141
    16  H    0.064141
 Sum of Mulliken charges =  -0.00000
 Mulliken charges with hydrogens summed into heavy atoms:
               1
     1  N   -0.017153
     2  C    0.251491
     3  C   -0.117169
     4  C   -0.117169
     5  C    0.251491
     6  N   -0.017153
     7  C   -0.117169
     8  C   -0.117169
 Electronic spatial extent (au):  <R**2>=            992.6665
 Charge=              0.0000 electrons
 Dipole moment (field-independent basis, Debye):
    X=             -0.0000    Y=              0.0000    Z=              2.6487  Tot=              2.6487
 Quadrupole moment (field-independent basis, Debye-Ang):
   XX=            -24.1751   YY=            -44.2313   ZZ=            -52.1661
   XY=              0.0000   XZ=              0.0000   YZ=             -0.0000
 Traceless Quadrupole moment (field-independent basis, Debye-Ang):
   XX=             16.0158   YY=             -4.0405   ZZ=            -11.9753
   XY=              0.0000   XZ=              0.0000   YZ=             -0.0000
 Octapole moment (field-independent basis, Debye-Ang**2):
  XXX=             -0.0000  YYY=              0.0000  ZZZ=              2.2995  XYY=             -0.0000
  XXY=             -0.0000  XXZ=             30.1343  XZZ=              0.0000  YZZ=              0.0000
  YYZ=              2.1049  XYZ=             -0.0000
 Hexadecapole moment (field-independent basis, Debye-Ang**3):
 XXXX=           -621.2498 YYYY=           -304.4441 ZZZZ=            -55.4998 XXXY=              0.0000
 XXXZ=              0.0000 YYYX=              0.0000 YYYZ=             -0.0000 ZZZX=              0.0000
 ZZZY=             -0.0000 XXYY=           -160.4500 XXZZ=           -170.6983 YYZZ=            -69.7373
 XXYZ=              0.0000 YYXZ=              0.0000 ZZXY=             -0.0000
 N-N= 3.437093428270D+02 E-N=-1.484027153327D+03  KE= 3.397277775691D+02
 Evaluate density.
 Using the total density.
 Monte-Carlo method of calculating molar volume:
 based on  0.001 e/bohr**3 density envelope.
 Number of points per bohr**3 =   20 CutOff= 1.00D-04
 Using the CI density.
 There are       341 points.  Will hold       341 in memory.
 LenV=   536789228 MDV=   536870912.
 Box volume = 4958.098 fraction occupied=0.217
 Integrated density= 3.1069957323201134D+01 error=-2.6930042676798866D+01
 Molar volume = 1075.951 bohr**3/mol ( 96.017 cm**3/mol)
 Recommended a0 for SCRF calculation =  4.20 angstrom (  7.94 bohr)
 ******************************Gaussian NBO Version 3.1******************************
             N A T U R A L   A T O M I C   O R B I T A L   A N D
          N A T U R A L   B O N D   O R B I T A L   A N A L Y S I S
 ******************************Gaussian NBO Version 3.1******************************
       /RESON  / : Allow strongly delocalized NBO set

 Analyzing the CI density

 Job title: CBCKQZAAMUWICA-UHFFFAOYSA-N_conf_0                              

 Storage needed:     77744 in NPA ( 536869504 available)
 GSVD:  LWork=       14656 too small for GESVD, short by        6584 words or        6584 for optimal perf.


 NATURAL POPULATIONS:  Natural atomic orbital occupancies 
                                                          
   NAO  Atom  No  lang   Type(AO)    Occupancy
 --------------------------------------------
     1    N    1  S      Cor( 1S)     1.99949
     2    N    1  S      Val( 2S)     1.38523
     3    N    1  S      Ryd( 3S)     0.00011
     4    N    1  S      Ryd( 4S)     0.00001
     5    N    1  px     Val( 2p)     1.32463
     6    N    1  px     Ryd( 3p)     0.00208
     7    N    1  py     Val( 2p)     1.42252
     8    N    1  py     Ryd( 3p)     0.00209
     9    N    1  pz     Val( 2p)     1.60266
    10    N    1  pz     Ryd( 3p)     0.00294
    11    N    1  dxy    Ryd( 3d)     0.00037
    12    N    1  dxz    Ryd( 3d)     0.00098
    13    N    1  dyz    Ryd( 3d)     0.00097
    14    N    1  dx2y2  Ryd( 3d)     0.00049
    15    N    1  dz2    Ryd( 3d)     0.00069

    16    C    2  S      Cor( 1S)     1.99894
    17    C    2  S      Val( 2S)     0.85361
    18    C    2  S      Ryd( 3S)     0.00117
    19    C    2  S      Ryd( 4S)     0.00009
    20    C    2  px     Val( 2p)     0.89109
    21    C    2  px     Ryd( 3p)     0.00537
    22    C    2  py     Val( 2p)     1.10234
    23    C    2  py     Ryd( 3p)     0.00454
    24    C    2  pz     Val( 2p)     0.94518
    25    C    2  pz     Ryd( 3p)     0.00164
    26    C    2  dxy    Ryd( 3d)     0.00088
    27    C    2  dxz    Ryd( 3d)     0.00125
    28    C    2  dyz    Ryd( 3d)     0.00143
    29    C    2  dx2y2  Ryd( 3d)     0.00123
    30    C    2  dz2    Ryd( 3d)     0.00040

    31    C    3  S      Cor( 1S)     1.99906
    32    C    3  S      Val( 2S)     0.94408
    33    C    3  S      Ryd( 3S)     0.00066
    34    C    3  S      Ryd( 4S)     0.00004
    35    C    3  px     Val( 2p)     1.09526
    36    C    3  px     Ryd( 3p)     0.00472
    37    C    3  py     Val( 2p)     1.14587
    38    C    3  py     Ryd( 3p)     0.00445
    39    C    3  pz     Val( 2p)     1.16889
    40    C    3  pz     Ryd( 3p)     0.00728
    41    C    3  dxy    Ryd( 3d)     0.00069
    42    C    3  dxz    Ryd( 3d)     0.00061
    43    C    3  dyz    Ryd( 3d)     0.00033
    44    C    3  dx2y2  Ryd( 3d)     0.00054
    45    C    3  dz2    Ryd( 3d)     0.00039

    46    C    4  S      Cor( 1S)     1.99906
    47    C    4  S      Val( 2S)     0.94408
    48    C    4  S      Ryd( 3S)     0.00066
    49    C    4  S      Ryd( 4S)     0.00004
    50    C    4  px     Val( 2p)     1.09526
    51    C    4  px     Ryd( 3p)     0.00472
    52    C    4  py     Val( 2p)     1.14587
    53    C    4  py     Ryd( 3p)     0.00445
    54    C    4  pz     Val( 2p)     1.16889
    55    C    4  pz     Ryd( 3p)     0.00728
    56    C    4  dxy    Ryd( 3d)     0.00069
    57    C    4  dxz    Ryd( 3d)     0.00061
    58    C    4  dyz    Ryd( 3d)     0.00033
    59    C    4  dx2y2  Ryd( 3d)     0.00054
    60    C    4  dz2    Ryd( 3d)     0.00039

    61    C    5  S      Cor( 1S)     1.99894
    62    C    5  S      Val( 2S)     0.85361
    63    C    5  S      Ryd( 3S)     0.00117
    64    C    5  S      Ryd( 4S)     0.00009
    65    C    5  px     Val( 2p)     0.89109
    66    C    5  px     Ryd( 3p)     0.00537
    67    C    5  py     Val( 2p)     1.10234
    68    C    5  py     Ryd( 3p)     0.00454
    69    C    5  pz     Val( 2p)     0.94518
    70    C    5  pz     Ryd( 3p)     0.00164
    71    C    5  dxy    Ryd( 3d)     0.00088
    72    C    5  dxz    Ryd( 3d)     0.00125
    73    C    5  dyz    Ryd( 3d)     0.00143
    74    C    5  dx2y2  Ryd( 3d)     0.00123
    75    C    5  dz2    Ryd( 3d)     0.00040

    76    N    6  S      Cor( 1S)     1.99949
    77    N    6  S      Val( 2S)     1.38523
    78    N    6  S      Ryd( 3S)     0.00011
    79    N    6  S      Ryd( 4S)     0.00001
    80    N    6  px     Val( 2p)     1.32463
    81    N    6  px     Ryd( 3p)     0.00208
    82    N    6  py     Val( 2p)     1.42252
    83    N    6  py     Ryd( 3p)     0.00209
    84    N    6  pz     Val( 2p)     1.60266
    85    N    6  pz     Ryd( 3p)     0.00294
    86    N    6  dxy    Ryd( 3d)     0.00037
    87    N    6  dxz    Ryd( 3d)     0.00098
    88    N    6  dyz    Ryd( 3d)     0.00097
    89    N    6  dx2y2  Ryd( 3d)     0.00049
    90    N    6  dz2    Ryd( 3d)     0.00069

    91    C    7  S      Cor( 1S)     1.99906
    92    C    7  S      Val( 2S)     0.94408
    93    C    7  S      Ryd( 3S)     0.00066
    94    C    7  S      Ryd( 4S)     0.00004
    95    C    7  px     Val( 2p)     1.09526
    96    C    7  px     Ryd( 3p)     0.00472
    97    C    7  py     Val( 2p)     1.14587
    98    C    7  py     Ryd( 3p)     0.00445
    99    C    7  pz     Val( 2p)     1.16889
   100    C    7  pz     Ryd( 3p)     0.00728
   101    C    7  dxy    Ryd( 3d)     0.00069
   102    C    7  dxz    Ryd( 3d)     0.00061
   103    C    7  dyz    Ryd( 3d)     0.00033
   104    C    7  dx2y2  Ryd( 3d)     0.00054
   105    C    7  dz2    Ryd( 3d)     0.00039

   106    C    8  S      Cor( 1S)     1.99906
   107    C    8  S      Val( 2S)     0.94408
   108    C    8  S      Ryd( 3S)     0.00066
   109    C    8  S      Ryd( 4S)     0.00004
   110    C    8  px     Val( 2p)     1.09526
   111    C    8  px     Ryd( 3p)     0.00472
   112    C    8  py     Val( 2p)     1.14587
   113    C    8  py     Ryd( 3p)     0.00445
   114    C    8  pz     Val( 2p)     1.16889
   115    C    8  pz     Ryd( 3p)     0.00728
   116    C    8  dxy    Ryd( 3d)     0.00069
   117    C    8  dxz    Ryd( 3d)     0.00061
   118    C    8  dyz    Ryd( 3d)     0.00033
   119    C    8  dx2y2  Ryd( 3d)     0.00054
   120    C    8  dz2    Ryd( 3d)     0.00039

   121    H    9  S      Val( 1S)     0.57597
   122    H    9  S      Ryd( 2S)     0.00201
   123    H    9  px     Ryd( 2p)     0.00030
   124    H    9  py     Ryd( 2p)     0.00047
   125    H    9  pz     Ryd( 2p)     0.00049

   126    H   10  S      Val( 1S)     0.57597
   127    H   10  S      Ryd( 2S)     0.00201
   128    H   10  px     Ryd( 2p)     0.00030
   129    H   10  py     Ryd( 2p)     0.00047
   130    H   10  pz     Ryd( 2p)     0.00049

   131    H   11  S      Val( 1S)     0.76890
   132    H   11  S      Ryd( 2S)     0.00111
   133    H   11  px     Ryd( 2p)     0.00014
   134    H   11  py     Ryd( 2p)     0.00031
   135    H   11  pz     Ryd( 2p)     0.00022

   136    H   12  S      Val( 1S)     0.76890
   137    H   12  S      Ryd( 2S)     0.00111
   138    H   12  px     Ryd( 2p)     0.00014
   139    H   12  py     Ryd( 2p)     0.00031
   140    H   12  pz     Ryd( 2p)     0.00022

   141    H   13  S      Val( 1S)     0.57597
   142    H   13  S      Ryd( 2S)     0.00201
   143    H   13  px     Ryd( 2p)     0.00030
   144    H   13  py     Ryd( 2p)     0.00047
   145    H   13  pz     Ryd( 2p)     0.00049

   146    H   14  S      Val( 1S)     0.57597
   147    H   14  S      Ryd( 2S)     0.00201
   148    H   14  px     Ryd( 2p)     0.00030
   149    H   14  py     Ryd( 2p)     0.00047
   150    H   14  pz     Ryd( 2p)     0.00049

   151    H   15  S      Val( 1S)     0.76890
   152    H   15  S      Ryd( 2S)     0.00111
   153    H   15  px     Ryd( 2p)     0.00014
   154    H   15  py     Ryd( 2p)     0.00031
   155    H   15  pz     Ryd( 2p)     0.00022

   156    H   16  S      Val( 1S)     0.76890
   157    H   16  S      Ryd( 2S)     0.00111
   158    H   16  px     Ryd( 2p)     0.00014
   159    H   16  py     Ryd( 2p)     0.00031
   160    H   16  pz     Ryd( 2p)     0.00022

 WARNING:  1 low occupancy (<1.9990e) core orbital  found on  C    2
           1 low occupancy (<1.9990e) core orbital  found on  C    5


 Summary of Natural Population Analysis:                  
                                                          
                                       Natural Population 
                Natural  -----------------------------------------------
    Atom  No    Charge         Core      Valence    Rydberg      Total
 -----------------------------------------------------------------------
      N    1   -0.74527      1.99949     5.73504    0.01074     7.74527
      C    2    0.19085      1.99894     3.79222    0.01799     5.80915
      C    3   -0.37287      1.99906     4.35410    0.01971     6.37287
      C    4   -0.37287      1.99906     4.35410    0.01971     6.37287
      C    5    0.19085      1.99894     3.79222    0.01799     5.80915
      N    6   -0.74527      1.99949     5.73504    0.01074     7.74527
      C    7   -0.37287      1.99906     4.35410    0.01971     6.37287
      C    8   -0.37287      1.99906     4.35410    0.01971     6.37287
      H    9    0.42076      0.00000     0.57597    0.00327     0.57924
      H   10    0.42076      0.00000     0.57597    0.00327     0.57924
      H   11    0.22932      0.00000     0.76890    0.00178     0.77068
      H   12    0.22932      0.00000     0.76890    0.00178     0.77068
      H   13    0.42076      0.00000     0.57597    0.00327     0.57924
      H   14    0.42076      0.00000     0.57597    0.00327     0.57924
      H   15    0.22932      0.00000     0.76890    0.00178     0.77068
      H   16    0.22932      0.00000     0.76890    0.00178     0.77068
 =======================================================================
   * Total *    0.00000     15.99311    41.85041    0.15649    58.00000

                                 Natural Population      
 --------------------------------------------------------
   Core                      15.99311 ( 99.9569% of  16)
   Valence                   41.85041 ( 99.6438% of  42)
   Natural Minimal Basis     57.84351 ( 99.7302% of  58)
   Natural Rydberg Basis      0.15649 (  0.2698% of  58)
 --------------------------------------------------------

    Atom  No          Natural Electron Configuration
 ----------------------------------------------------------------------------
      N    1      [core]2S( 1.39)2p( 4.35)3p( 0.01)
      C    2      [core]2S( 0.85)2p( 2.94)3p( 0.01)3d( 0.01)
      C    3      [core]2S( 0.94)2p( 3.41)3p( 0.02)
      C    4      [core]2S( 0.94)2p( 3.41)3p( 0.02)
      C    5      [core]2S( 0.85)2p( 2.94)3p( 0.01)3d( 0.01)
      N    6      [core]2S( 1.39)2p( 4.35)3p( 0.01)
      C    7      [core]2S( 0.94)2p( 3.41)3p( 0.02)
      C    8      [core]2S( 0.94)2p( 3.41)3p( 0.02)
      H    9            1S( 0.58)
      H   10            1S( 0.58)
      H   11            1S( 0.77)
      H   12            1S( 0.77)
      H   13            1S( 0.58)
      H   14            1S( 0.58)
      H   15            1S( 0.77)
      H   16            1S( 0.77)


 NBO analysis skipped by request.
 1\1\GINC-CN34\SP\RB3LYP TD-FC\6-31G(d,p)\C6H8N2\QDUEZ\11-Jul-2024\0\\#
  TD(NStates=10, Root=1) B3LYP/6-31G** SCRF=(Solvent=water) volume pop=
 NPA density=current Geom=AllCheck Guess=Read\\CBCKQZAAMUWICA-UHFFFAOYS
 A-N_conf_0\\0,1\N,0,-2.7711916582,-0.1895947674,-0.5670264363\C,0,-1.3
 930413581,-0.092994032,-0.288013198\C,0,-0.8919657895,0.9122688447,0.5
 541607042\C,0,0.4771710894,1.0507531924,0.7766318133\C,0,1.4030217657,
 0.1898199027,0.1663192046\N,0,2.79008735,0.3729129629,0.3366260174\C,0
 ,0.9018219727,-0.8166480798,-0.6743400896\C,0,-0.4673149031,-0.9551324
 328,-0.896811199\H,0,-3.0630892588,-1.1284884879,-0.8134406584\H,0,-3.
 3553993236,0.156944328,0.1853415957\H,0,-1.5833365016,1.593144406,1.04
 49543519\H,0,0.832945471,1.8375445579,1.4375760889\H,0,3.3218246309,-0
 .4826724997,0.2240445362\H,0,3.0295145577,0.8027604588,1.2228265267\H,
 0,1.592616959,-1.5031091064,-1.1581137389\H,0,-0.8236650066,-1.7475092
 339,-1.5507355084\\Version=EM64L-G16RevA.03\State=1-A\HF=-342.9813196\
 RMSD=4.851e-11\Dipole=-0.0667412,-0.6474926,0.8137903\Quadrupole=11.35
 61756,-5.1343442,-6.2218314,1.2201821,2.6323672,3.0988665\PG=C01 [X(C6
 H8N2)]\\@


 IN THE UNIVERSE THE DIFFICULT THINGS ARE DONE AS IF THEY WERE EASY.

                                                          -- LAO-TSU
 Job cpu time:       0 days  0 hours 26 minutes 52.4 seconds.
 Elapsed time:       0 days  0 hours 19 minutes 48.9 seconds.
 File lengths (MBytes):  RWF=    270 Int=      0 D2E=      0 Chk=     16 Scr=      1
 Normal termination of Gaussian 16 at Thu Jul 11 18:06:44 2024.
