 Entering Gaussian System, Link 0=g16
 Initial command:
 /opt/sw/arch/manual/gaussian/G16_A03/g16/l1.exe "/scratch/1032018.jesse.materianova.be/Gau-16811.inp" -scrdir="/scratch/1032018.jesse.materianova.be/"
 Entering Link 1 = /opt/sw/arch/manual/gaussian/G16_A03/g16/l1.exe PID=     16815.
  
 Copyright (c) 1988,1990,1992,1993,1995,1998,2003,2009,2016,
            Gaussian, Inc.  All Rights Reserved.
  
 This is part of the Gaussian(R) 16 program.  It is based on
 the Gaussian(R) 09 system (copyright 2009, Gaussian, Inc.),
 the Gaussian(R) 03 system (copyright 2003, Gaussian, Inc.),
 the Gaussian(R) 98 system (copyright 1998, Gaussian, Inc.),
 the Gaussian(R) 94 system (copyright 1995, Gaussian, Inc.),
 the Gaussian 92(TM) system (copyright 1992, Gaussian, Inc.),
 the Gaussian 90(TM) system (copyright 1990, Gaussian, Inc.),
 the Gaussian 88(TM) system (copyright 1988, Gaussian, Inc.),
 the Gaussian 86(TM) system (copyright 1986, Carnegie Mellon
 University), and the Gaussian 82(TM) system (copyright 1983,
 Carnegie Mellon University). Gaussian is a federally registered
 trademark of Gaussian, Inc.
  
 This software contains proprietary and confidential information,
 including trade secrets, belonging to Gaussian, Inc.
  
 This software is provided under written license and may be
 used, copied, transmitted, or stored only in accord with that
 written license.
  
 The following legend is applicable only to US Government
 contracts under FAR:
  
                    RESTRICTED RIGHTS LEGEND
  
 Use, reproduction and disclosure by the US Government is
 subject to restrictions as set forth in subparagraphs (a)
 and (c) of the Commercial Computer Software - Restricted
 Rights clause in FAR 52.227-19.
  
 Gaussian, Inc.
 340 Quinnipiac St., Bldg. 40, Wallingford CT 06492
  
  
 ---------------------------------------------------------------
 Warning -- This program may not be used in any manner that
 competes with the business of Gaussian, Inc. or will provide
 assistance to any competitor of Gaussian, Inc.  The licensee
 of this program is prohibited from giving any competitor of
 Gaussian, Inc. access to this program.  By using this program,
 the user acknowledges that Gaussian, Inc. is engaged in the
 business of creating and licensing software in the field of
 computational chemistry and represents and warrants to the
 licensee that it is not a competitor of Gaussian, Inc. and that
 it will not use this program in any manner prohibited above.
 ---------------------------------------------------------------
  

 Cite this work as:
 Gaussian 16, Revision A.03,
 M. J. Frisch, G. W. Trucks, H. B. Schlegel, G. E. Scuseria, 
 M. A. Robb, J. R. Cheeseman, G. Scalmani, V. Barone, 
 G. A. Petersson, H. Nakatsuji, X. Li, M. Caricato, A. V. Marenich, 
 J. Bloino, B. G. Janesko, R. Gomperts, B. Mennucci, H. P. Hratchian, 
 J. V. Ortiz, A. F. Izmaylov, J. L. Sonnenberg, D. Williams-Young, 
 F. Ding, F. Lipparini, F. Egidi, J. Goings, B. Peng, A. Petrone, 
 T. Henderson, D. Ranasinghe, V. G. Zakrzewski, J. Gao, N. Rega, 
 G. Zheng, W. Liang, M. Hada, M. Ehara, K. Toyota, R. Fukuda, 
 J. Hasegawa, M. Ishida, T. Nakajima, Y. Honda, O. Kitao, H. Nakai, 
 T. Vreven, K. Throssell, J. A. Montgomery, Jr., J. E. Peralta, 
 F. Ogliaro, M. J. Bearpark, J. J. Heyd, E. N. Brothers, K. N. Kudin, 
 V. N. Staroverov, T. A. Keith, R. Kobayashi, J. Normand, 
 K. Raghavachari, A. P. Rendell, J. C. Burant, S. S. Iyengar, 
 J. Tomasi, M. Cossi, J. M. Millam, M. Klene, C. Adamo, R. Cammi, 
 J. W. Ochterski, R. L. Martin, K. Morokuma, O. Farkas, 
 J. B. Foresman, and D. J. Fox, Gaussian, Inc., Wallingford CT, 2016.
 
 ******************************************
 Gaussian 16:  EM64L-G16RevA.03 25-Dec-2016
                11-Jul-2024 
 ******************************************
 %nprocshared=3
 Will use up to    3 processors via shared memory.
 %mem=6GB
 %Chk=AGAHETWGCFCMDK-UHFFFAOYSA-N_conf_2_0.chk
 -------------------------------------------------------
 # opt=CalcFc B3LYP/6-31G** SCRF=(Solvent=water) scf=xqc
 -------------------------------------------------------
 1/10=4,18=20,19=15,26=3,38=1/1,3;
 2/9=110,12=2,17=6,18=5,40=1/2;
 3/5=1,6=6,7=101,11=2,25=1,30=1,70=2201,71=2,72=1,74=-5,140=1/1,2,3;
 4//1;
 5/5=2,8=3,13=1,38=5,53=1/2,8;
 8/6=4,10=90,11=11/1;
 11/6=1,8=1,9=11,15=111,16=1/1,2,10;
 10/6=1,13=1/2;
 6/7=2,8=2,9=2,10=2,28=1/1;
 7/10=1,18=20,25=1/1,2,3,16;
 1/10=4,18=20,19=15,26=3/3(2);
 2/9=110/2;
 99//99;
 2/9=110/2;
 3/5=1,6=6,7=101,11=2,25=1,30=1,70=2205,71=1,72=1,74=-5/1,2,3;
 4/5=5,16=3,69=1/1;
 5/5=2,8=3,13=1,38=5,53=1/2,8;
 7//1,2,3,16;
 1/18=20,19=15,26=3/3(-5);
 2/9=110/2;
 6/7=2,8=2,9=2,10=2,19=2,28=1/1;
 99/9=1/99;
 ----------------------------------
 AGAHETWGCFCMDK-UHFFFAOYSA-N_conf_2
 ----------------------------------
 Symbolic Z-matrix:
 Charge =  0 Multiplicity = 1
 N                    -2.93959  -1.02198  -0.20772 
 C                    -1.55352  -0.78837  -0.05957 
 C                    -0.74666  -1.72688   0.58227 
 C                     0.61627  -1.47653   0.75369 
 C                     1.18228  -0.28      0.30839 
 O                     2.53317  -0.18201   0.50307 
 C                     3.16743   0.99757   0.02547 
 C                     0.36171   0.69247  -0.26663 
 C                    -1.01791   0.47794  -0.37454 
 N                    -1.84352   1.45237  -0.98678 
 H                    -3.2744   -0.5416   -1.0415 
 H                    -3.15822  -2.0128   -0.24967 
 H                    -1.1618   -2.6681    0.92944 
 H                     1.24516  -2.2263    1.22729 
 H                     2.79885   1.88388   0.5523 
 H                     4.23815   0.90876   0.23316 
 H                     3.04606   1.1014   -1.05789 
 H                     0.76694   1.63503  -0.61484 
 H                    -2.78371   1.38278  -0.59918 
 H                    -1.47667   2.39236  -0.87478 
 

 GradGradGradGradGradGradGradGradGradGradGradGradGradGradGradGradGradGrad
 Berny optimization.
 Initialization pass.
                           ----------------------------
                           !    Initial Parameters    !
                           ! (Angstroms and Degrees)  !
 --------------------------                            --------------------------
 ! Name  Definition              Value          Derivative Info.                !
 --------------------------------------------------------------------------------
 ! R1    R(1,2)                  1.4134         calculate D2E/DX2 analytically  !
 ! R2    R(1,11)                 1.0189         calculate D2E/DX2 analytically  !
 ! R3    R(1,12)                 1.0155         calculate D2E/DX2 analytically  !
 ! R4    R(2,3)                  1.3942         calculate D2E/DX2 analytically  !
 ! R5    R(2,9)                  1.4105         calculate D2E/DX2 analytically  !
 ! R6    R(3,4)                  1.3963         calculate D2E/DX2 analytically  !
 ! R7    R(3,13)                 1.0857         calculate D2E/DX2 analytically  !
 ! R8    R(4,5)                  1.3965         calculate D2E/DX2 analytically  !
 ! R9    R(4,14)                 1.0872         calculate D2E/DX2 analytically  !
 ! R10   R(5,6)                  1.3684         calculate D2E/DX2 analytically  !
 ! R11   R(5,8)                  1.3963         calculate D2E/DX2 analytically  !
 ! R12   R(6,7)                  1.4219         calculate D2E/DX2 analytically  !
 ! R13   R(7,15)                 1.095          calculate D2E/DX2 analytically  !
 ! R14   R(7,16)                 1.0943         calculate D2E/DX2 analytically  !
 ! R15   R(7,17)                 1.0951         calculate D2E/DX2 analytically  !
 ! R16   R(8,9)                  1.4004         calculate D2E/DX2 analytically  !
 ! R17   R(8,18)                 1.0835         calculate D2E/DX2 analytically  !
 ! R18   R(9,10)                 1.4163         calculate D2E/DX2 analytically  !
 ! R19   R(10,19)                1.0193         calculate D2E/DX2 analytically  !
 ! R20   R(10,20)                1.0152         calculate D2E/DX2 analytically  !
 ! A1    A(2,1,11)             109.2751         calculate D2E/DX2 analytically  !
 ! A2    A(2,1,12)             112.1308         calculate D2E/DX2 analytically  !
 ! A3    A(11,1,12)            110.8226         calculate D2E/DX2 analytically  !
 ! A4    A(1,2,3)              120.2998         calculate D2E/DX2 analytically  !
 ! A5    A(1,2,9)              119.8252         calculate D2E/DX2 analytically  !
 ! A6    A(3,2,9)              119.168          calculate D2E/DX2 analytically  !
 ! A7    A(2,3,4)              120.0476         calculate D2E/DX2 analytically  !
 ! A8    A(2,3,13)             120.6301         calculate D2E/DX2 analytically  !
 ! A9    A(4,3,13)             119.3018         calculate D2E/DX2 analytically  !
 ! A10   A(3,4,5)              120.6692         calculate D2E/DX2 analytically  !
 ! A11   A(3,4,14)             119.6345         calculate D2E/DX2 analytically  !
 ! A12   A(5,4,14)             119.6916         calculate D2E/DX2 analytically  !
 ! A13   A(4,5,6)              114.589          calculate D2E/DX2 analytically  !
 ! A14   A(4,5,8)              119.33           calculate D2E/DX2 analytically  !
 ! A15   A(6,5,8)              126.0781         calculate D2E/DX2 analytically  !
 ! A16   A(5,6,7)              116.8713         calculate D2E/DX2 analytically  !
 ! A17   A(6,7,15)             111.0841         calculate D2E/DX2 analytically  !
 ! A18   A(6,7,16)             107.7809         calculate D2E/DX2 analytically  !
 ! A19   A(6,7,17)             111.1933         calculate D2E/DX2 analytically  !
 ! A20   A(15,7,16)            107.6823         calculate D2E/DX2 analytically  !
 ! A21   A(15,7,17)            111.2192         calculate D2E/DX2 analytically  !
 ! A22   A(16,7,17)            107.6927         calculate D2E/DX2 analytically  !
 ! A23   A(5,8,9)              120.2652         calculate D2E/DX2 analytically  !
 ! A24   A(5,8,18)             121.2274         calculate D2E/DX2 analytically  !
 ! A25   A(9,8,18)             118.489          calculate D2E/DX2 analytically  !
 ! A26   A(2,9,8)              119.6316         calculate D2E/DX2 analytically  !
 ! A27   A(2,9,10)             119.5267         calculate D2E/DX2 analytically  !
 ! A28   A(8,9,10)             120.1454         calculate D2E/DX2 analytically  !
 ! A29   A(9,10,19)            109.0457         calculate D2E/DX2 analytically  !
 ! A30   A(9,10,20)            112.252          calculate D2E/DX2 analytically  !
 ! A31   A(19,10,20)           110.7663         calculate D2E/DX2 analytically  !
 ! D1    D(11,1,2,3)          -151.7261         calculate D2E/DX2 analytically  !
 ! D2    D(11,1,2,9)            37.9877         calculate D2E/DX2 analytically  !
 ! D3    D(12,1,2,3)           -28.4443         calculate D2E/DX2 analytically  !
 ! D4    D(12,1,2,9)           161.2695         calculate D2E/DX2 analytically  !
 ! D5    D(1,2,3,4)           -178.4887         calculate D2E/DX2 analytically  !
 ! D6    D(1,2,3,13)             3.1667         calculate D2E/DX2 analytically  !
 ! D7    D(9,2,3,4)             -8.1391         calculate D2E/DX2 analytically  !
 ! D8    D(9,2,3,13)           173.5163         calculate D2E/DX2 analytically  !
 ! D9    D(1,2,9,8)           -177.9921         calculate D2E/DX2 analytically  !
 ! D10   D(1,2,9,10)            -7.5379         calculate D2E/DX2 analytically  !
 ! D11   D(3,2,9,8)             11.6117         calculate D2E/DX2 analytically  !
 ! D12   D(3,2,9,10)          -177.9341         calculate D2E/DX2 analytically  !
 ! D13   D(2,3,4,5)              1.122          calculate D2E/DX2 analytically  !
 ! D14   D(2,3,4,14)          -178.0943         calculate D2E/DX2 analytically  !
 ! D15   D(13,3,4,5)           179.4886         calculate D2E/DX2 analytically  !
 ! D16   D(13,3,4,14)            0.2722         calculate D2E/DX2 analytically  !
 ! D17   D(3,4,5,6)           -178.1103         calculate D2E/DX2 analytically  !
 ! D18   D(3,4,5,8)              2.4731         calculate D2E/DX2 analytically  !
 ! D19   D(14,4,5,6)             1.1056         calculate D2E/DX2 analytically  !
 ! D20   D(14,4,5,8)          -178.311          calculate D2E/DX2 analytically  !
 ! D21   D(4,5,6,7)            177.8848         calculate D2E/DX2 analytically  !
 ! D22   D(8,5,6,7)             -2.7446         calculate D2E/DX2 analytically  !
 ! D23   D(4,5,8,9)              1.0653         calculate D2E/DX2 analytically  !
 ! D24   D(4,5,8,18)           179.4792         calculate D2E/DX2 analytically  !
 ! D25   D(6,5,8,9)           -178.2783         calculate D2E/DX2 analytically  !
 ! D26   D(6,5,8,18)             0.1356         calculate D2E/DX2 analytically  !
 ! D27   D(5,6,7,15)            63.721          calculate D2E/DX2 analytically  !
 ! D28   D(5,6,7,16)          -178.536          calculate D2E/DX2 analytically  !
 ! D29   D(5,6,7,17)           -60.7187         calculate D2E/DX2 analytically  !
 ! D30   D(5,8,9,2)             -8.111          calculate D2E/DX2 analytically  !
 ! D31   D(5,8,9,10)          -178.5053         calculate D2E/DX2 analytically  !
 ! D32   D(18,8,9,2)           173.4321         calculate D2E/DX2 analytically  !
 ! D33   D(18,8,9,10)            3.0378         calculate D2E/DX2 analytically  !
 ! D34   D(2,9,10,19)           36.9553         calculate D2E/DX2 analytically  !
 ! D35   D(2,9,10,20)          160.0838         calculate D2E/DX2 analytically  !
 ! D36   D(8,9,10,19)         -152.6403         calculate D2E/DX2 analytically  !
 ! D37   D(8,9,10,20)          -29.5118         calculate D2E/DX2 analytically  !
 --------------------------------------------------------------------------------
 Trust Radius=3.00D-01 FncErr=1.00D-07 GrdErr=1.00D-06 EigMax=2.50D+02 EigMin=1.00D-04
 Number of steps in this run=     98 maximum allowed number of steps=    120.
 GradGradGradGradGradGradGradGradGradGradGradGradGradGradGradGradGradGrad

                          Input orientation:                          
 ---------------------------------------------------------------------
 Center     Atomic      Atomic             Coordinates (Angstroms)
 Number     Number       Type             X           Y           Z
 ---------------------------------------------------------------------
      1          7           0       -2.939594   -1.021985   -0.207718
      2          6           0       -1.553521   -0.788367   -0.059566
      3          6           0       -0.746663   -1.726882    0.582268
      4          6           0        0.616272   -1.476527    0.753691
      5          6           0        1.182283   -0.279998    0.308388
      6          8           0        2.533174   -0.182013    0.503067
      7          6           0        3.167433    0.997569    0.025468
      8          6           0        0.361708    0.692474   -0.266632
      9          6           0       -1.017913    0.477940   -0.374536
     10          7           0       -1.843524    1.452373   -0.986776
     11          1           0       -3.274403   -0.541596   -1.041498
     12          1           0       -3.158223   -2.012797   -0.249671
     13          1           0       -1.161801   -2.668102    0.929435
     14          1           0        1.245161   -2.226299    1.227286
     15          1           0        2.798850    1.883884    0.552304
     16          1           0        4.238147    0.908756    0.233161
     17          1           0        3.046061    1.101401   -1.057893
     18          1           0        0.766941    1.635033   -0.614836
     19          1           0       -2.783714    1.382781   -0.599175
     20          1           0       -1.476674    2.392355   -0.874778
 ---------------------------------------------------------------------
                    Distance matrix (angstroms):
                    1          2          3          4          5
     1  N    0.000000
     2  C    1.413409   0.000000
     3  C    2.435140   1.394195   0.000000
     4  C    3.711482   2.417220   1.396300   0.000000
     5  C    4.219808   2.806858   2.426791   1.396547   0.000000
     6  O    5.582290   4.169568   3.626324   2.326606   1.368360
     7  C    6.436517   5.048188   4.801334   3.627655   2.377613
     8  C    3.720408   2.429788   2.793278   2.410483   1.396314
     9  C    2.443453   1.410537   2.418737   2.786288   2.425226
    10  N    2.816159   2.442281   3.711154   4.202175   3.719417
    11  H    1.018852   1.996627   3.229704   4.385675   4.663976
    12  H    1.015513   2.027421   2.567000   3.942224   4.706805
    13  H    2.676447   2.159854   1.085707   2.147622   3.403450
    14  H    4.584952   3.399449   2.152401   1.087176   2.153233
    15  H    6.476995   5.143778   5.060553   4.012053   2.712042
    16  H    7.445946   6.042295   5.649495   4.367895   3.279802
    17  H    6.407780   5.071887   5.007402   3.978873   2.692334
    18  H    4.578634   3.400844   3.876407   3.402554   2.166148
    19  H    2.441400   2.553123   3.900691   4.643899   4.395183
    20  H    3.773967   3.284428   4.429900   4.690478   3.951127
                    6          7          8          9         10
     6  O    0.000000
     7  C    1.421900   0.000000
     8  C    2.464230   2.837340   0.000000
     9  C    3.716981   4.236407   1.400366   0.000000
    10  N    4.903706   5.132365   2.441127   1.416330   0.000000
    11  H    6.020210   6.708554   3.917224   2.564378   2.454857
    12  H    6.025810   7.010843   4.439447   3.286379   3.778777
    13  H    4.473843   5.744264   3.878805   3.408611   4.595098
    14  H    2.522415   3.941170   3.395808   3.873015   5.289109
    15  H    2.083492   1.094972   2.833686   4.171738   4.909848
    16  H    2.041950   1.094282   3.914505   5.308584   6.226595
    17  H    2.084899   1.095073   2.828262   4.167922   4.902681
    18  H    2.769647   2.564900   1.083456   2.140634   2.643148
    19  H    5.650913   5.996225   3.237405   1.996810   1.019331
    20  H    4.960313   4.931896   2.576643   2.031179   1.015228
                   11         12         13         14         15
    11  H    0.000000
    12  H    1.674789   0.000000
    13  H    3.587435   2.409443   0.000000
    14  H    5.330296   4.649384   2.465233   0.000000
    15  H    6.731089   7.163380   6.045624   4.445578   0.000000
    16  H    7.756718   7.967113   6.514457   4.446889   1.767569
    17  H    6.530542   6.988891   5.988718   4.420280   1.807243
    18  H    4.610012   5.370933   4.962035   4.304880   2.356438
    19  H    2.034613   3.434000   4.623516   5.709050   5.722066
    20  H    3.444952   4.756441   5.381687   5.758387   4.535991
                   16         17         18         19         20
    16  H    0.000000
    17  H    1.767767   0.000000
    18  H    3.646347   2.382321   0.000000
    19  H    7.086890   5.854561   3.559638   0.000000
    20  H    6.007310   4.706934   2.382207   1.674381   0.000000
 Stoichiometry    C7H10N2O
 Framework group  C1[X(C7H10N2O)]
 Deg. of freedom    54
 Full point group                 C1      NOp   1
 Largest Abelian subgroup         C1      NOp   1
 Largest concise Abelian subgroup C1      NOp   1
                         Standard orientation:                         
 ---------------------------------------------------------------------
 Center     Atomic      Atomic             Coordinates (Angstroms)
 Number     Number       Type             X           Y           Z
 ---------------------------------------------------------------------
      1          7           0        3.037549   -0.434788    0.035101
      2          6           0        1.624215   -0.423396    0.044241
      3          6           0        0.910498   -1.616756   -0.057152
      4          6           0       -0.485484   -1.596788   -0.079355
      5          6           0       -1.181575   -0.387338   -0.024281
      6          8           0       -2.543965   -0.514506   -0.012939
      7          6           0       -3.300576    0.685028    0.089327
      8          6           0       -0.467463    0.812282    0.001179
      9          6           0        0.931902    0.801878   -0.050734
     10          7           0        1.654876    2.018410    0.007127
     11          1           0        3.383751    0.366063    0.561258
     12          1           0        3.415550   -1.301224    0.406141
     13          1           0        1.428904   -2.570044   -0.092602
     14          1           0       -1.035810   -2.533164   -0.127234
     15          1           0       -3.141303    1.326819   -0.783427
     16          1           0       -4.359793    0.411137    0.111621
     17          1           0       -3.074841    1.217402    1.019276
     18          1           0       -0.976253    1.768230    0.035422
     19          1           0        2.543719    1.900500   -0.477733
     20          1           0        1.131720    2.795516   -0.384157
 ---------------------------------------------------------------------
 Rotational constants (GHZ):           2.7054783           0.9141102           0.6885573
 Standard basis: 6-31G(d,p) (6D, 7F)
 There are   200 symmetry adapted cartesian basis functions of A   symmetry.
 There are   200 symmetry adapted basis functions of A   symmetry.
   200 basis functions,   350 primitive gaussians,   200 cartesian basis functions
    37 alpha electrons       37 beta electrons
       nuclear repulsion energy       516.2286660954 Hartrees.
 NAtoms=   20 NActive=   20 NUniq=   20 SFac= 1.00D+00 NAtFMM=   60 NAOKFM=F Big=F
 Integral buffers will be    131072 words long.
 Raffenetti 2 integral format.
 Two-electron integral symmetry is turned on.
 Force inversion solution in PCM.
 ------------------------------------------------------------------------------
 Polarizable Continuum Model (PCM)
 =================================
 Model                : PCM.
 Atomic radii         : UFF (Universal Force Field).
 Polarization charges : Total charges.
 Charge compensation  : None.
 Solution method      : Matrix inversion.
 Cavity type          : Scaled VdW (van der Waals Surface) (Alpha=1.100).
 Cavity algorithm     : GePol (No added spheres)
                        Default sphere list used, NSphG=   20.
                        Lebedev-Laikov grids with approx.  5.0 points / Ang**2.
                        Smoothing algorithm: York/Karplus (Gamma=1.0000).
                        Polarization charges: spherical gaussians, with
                                              point-specific exponents (IZeta= 3).
                        Self-potential: point-specific (ISelfS= 7).
                        Self-field    : sphere-specific E.n sum rule (ISelfD= 2).
 1st derivatives      : Analytical E(r).r(x)/FMM algorithm (CHGder, D1EAlg=3).
                        Cavity 1st derivative terms included.
 2nd derivatives      : Analytical E(r).r(xy)/FMM algorithm (CHGder, D2EAlg=3).
                        Cavity 2nd derivative terms included.
 Solvent              : Water, Eps=  78.355300 Eps(inf)=   1.777849
 ------------------------------------------------------------------------------
 Spheres list:
 ISph  on   Nord     Re0    Alpha      Xe            Ye            Ze
    1   N      1    1.8300  1.100      3.037549     -0.434788      0.035101
    2   C      2    1.9255  1.100      1.624215     -0.423396      0.044241
    3   C      3    1.9255  1.100      0.910498     -1.616756     -0.057152
    4   C      4    1.9255  1.100     -0.485484     -1.596788     -0.079355
    5   C      5    1.9255  1.100     -1.181575     -0.387338     -0.024281
    6   O      6    1.7500  1.100     -2.543965     -0.514506     -0.012939
    7   C      7    1.9255  1.100     -3.300576      0.685028      0.089327
    8   C      8    1.9255  1.100     -0.467463      0.812282      0.001179
    9   C      9    1.9255  1.100      0.931902      0.801878     -0.050734
   10   N     10    1.8300  1.100      1.654876      2.018410      0.007127
   11   H     11    1.4430  1.100      3.383751      0.366063      0.561258
   12   H     12    1.4430  1.100      3.415550     -1.301224      0.406141
   13   H     13    1.4430  1.100      1.428904     -2.570044     -0.092602
   14   H     14    1.4430  1.100     -1.035810     -2.533164     -0.127234
   15   H     15    1.4430  1.100     -3.141303      1.326819     -0.783427
   16   H     16    1.4430  1.100     -4.359793      0.411137      0.111621
   17   H     17    1.4430  1.100     -3.074841      1.217402      1.019276
   18   H     18    1.4430  1.100     -0.976253      1.768230      0.035422
   19   H     19    1.4430  1.100      2.543719      1.900500     -0.477733
   20   H     20    1.4430  1.100      1.131720      2.795516     -0.384157
 ------------------------------------------------------------------------------
 One-electron integrals computed using PRISM.
 NBasis=   200 RedAO= T EigKep=  4.32D-04  NBF=   200
 NBsUse=   200 1.00D-06 EigRej= -1.00D+00 NBFU=   200
 ExpMin= 1.61D-01 ExpMax= 5.48D+03 ExpMxC= 8.25D+02 IAcc=3 IRadAn=         5 AccDes= 0.00D+00
 Harris functional with IExCor=  402 and IRadAn=       5 diagonalized for initial guess.
 HarFok:  IExCor=  402 AccDes= 0.00D+00 IRadAn=         5 IDoV= 1 UseB2=F ITyADJ=14
 ICtDFT=  3500011 ScaDFX=  1.000000  1.000000  1.000000  1.000000
 FoFCou: FMM=F IPFlag=           0 FMFlag=      100000 FMFlg1=           0
         NFxFlg=           0 DoJE=T BraDBF=F KetDBF=T FulRan=T
         wScrn=  0.000000 ICntrl=       500 IOpCl=  0 I1Cent=   200000004 NGrid=           0
         NMat0=    1 NMatS0=      1 NMatT0=    0 NMatD0=    1 NMtDS0=    0 NMtDT0=    0
 Petite list used in FoFCou.
 Keep R1 ints in memory in canonical form, NReq=206076599.
 Requested convergence on RMS density matrix=1.00D-08 within  32 cycles.
 Requested convergence on MAX density matrix=1.00D-06.
 Requested convergence on             energy=1.00D-06.
 No special actions if energy rises.
 Inv3:  Mode=1 IEnd=     7357068.
 Iteration    1 A*A^-1 deviation from unit magnitude is 6.88D-15 for    296.
 Iteration    1 A*A^-1 deviation from orthogonality  is 3.78D-15 for    825    549.
 Iteration    1 A^-1*A deviation from unit magnitude is 6.66D-15 for    296.
 Iteration    1 A^-1*A deviation from orthogonality  is 4.46D-15 for   1343    851.
 Error on total polarization charges =  0.00768
 SCF Done:  E(RB3LYP) =  -457.503442593     A.U. after   12 cycles
            NFock= 12  Conv=0.73D-08     -V/T= 2.0094
 QCSCF skips out because SCF is already converged.
 DoSCS=F DFT=T ScalE2(SS,OS)=  1.000000  1.000000
 Range of M.O.s used for correlation:     1   200
 NBasis=   200 NAE=    37 NBE=    37 NFC=     0 NFV=     0
 NROrb=    200 NOA=    37 NOB=    37 NVA=   163 NVB=   163
 Symmetrizing basis deriv contribution to polar:
 IMax=3 JMax=2 DiffMx= 0.00D+00
 G2DrvN: will do    21 centers at a time, making    1 passes.
 Calling FoFCou, ICntrl=  3107 FMM=F I1Cent=   0 AccDes= 0.00D+00.
 NEqPCM:  Using equilibrium solvation (IEInf=0, Eps=  78.3553, EpsInf=   1.7778)
 G2PCM: DoFxE=T DoFxN=T DoGrad=T DoDP/DQ/DG/TGxP=FFFF NFrqRd=   0 IEInf=0 SqF1=F DoCFld=F IF1Alg=4.
 End of G2Drv F.D. properties file   721 does not exist.
 End of G2Drv F.D. properties file   722 does not exist.
 End of G2Drv F.D. properties file   788 does not exist.
          IDoAtm=11111111111111111111
 NEqPCM:  Using equilibrium solvation (IEInf=0, Eps=  78.3553, EpsInf=   1.7778)
          Differentiating once with respect to nuclear coordinates.
 Keep R1 ints in memory in canonical form, NReq=208939060.
          There are    63 degrees of freedom in the 1st order CPHF.  IDoFFX=6 NUNeed=     0.
     57 vectors produced by pass  0 Test12= 9.57D-15 1.59D-09 XBig12= 1.64D-01 2.53D-01.
 AX will form    57 AO Fock derivatives at one time.
     57 vectors produced by pass  1 Test12= 9.57D-15 1.59D-09 XBig12= 2.82D-02 3.32D-02.
     57 vectors produced by pass  2 Test12= 9.57D-15 1.59D-09 XBig12= 2.68D-04 3.51D-03.
     57 vectors produced by pass  3 Test12= 9.57D-15 1.59D-09 XBig12= 9.78D-07 1.50D-04.
     57 vectors produced by pass  4 Test12= 9.57D-15 1.59D-09 XBig12= 1.58D-09 4.68D-06.
     34 vectors produced by pass  5 Test12= 9.57D-15 1.59D-09 XBig12= 1.45D-12 1.99D-07.
      5 vectors produced by pass  6 Test12= 9.57D-15 1.59D-09 XBig12= 1.25D-15 4.01D-09.
 InvSVY:  IOpt=1 It=  1 EMax= 5.00D-16
 Solved reduced A of dimension   324 with    63 vectors.
 End of Minotr F.D. properties file   721 does not exist.
 End of Minotr F.D. properties file   722 does not exist.
 End of Minotr F.D. properties file   788 does not exist.

 **********************************************************************

            Population analysis using the SCF density.

 **********************************************************************

 Orbital symmetries:
       Occupied  (A) (A) (A) (A) (A) (A) (A) (A) (A) (A) (A) (A)
                 (A) (A) (A) (A) (A) (A) (A) (A) (A) (A) (A) (A)
                 (A) (A) (A) (A) (A) (A) (A) (A) (A) (A) (A) (A)
                 (A)
       Virtual   (A) (A) (A) (A) (A) (A) (A) (A) (A) (A) (A) (A)
                 (A) (A) (A) (A) (A) (A) (A) (A) (A) (A) (A) (A)
                 (A) (A) (A) (A) (A) (A) (A) (A) (A) (A) (A) (A)
                 (A) (A) (A) (A) (A) (A) (A) (A) (A) (A) (A) (A)
                 (A) (A) (A) (A) (A) (A) (A) (A) (A) (A) (A) (A)
                 (A) (A) (A) (A) (A) (A) (A) (A) (A) (A) (A) (A)
                 (A) (A) (A) (A) (A) (A) (A) (A) (A) (A) (A) (A)
                 (A) (A) (A) (A) (A) (A) (A) (A) (A) (A) (A) (A)
                 (A) (A) (A) (A) (A) (A) (A) (A) (A) (A) (A) (A)
                 (A) (A) (A) (A) (A) (A) (A) (A) (A) (A) (A) (A)
                 (A) (A) (A) (A) (A) (A) (A) (A) (A) (A) (A) (A)
                 (A) (A) (A) (A) (A) (A) (A) (A) (A) (A) (A) (A)
                 (A) (A) (A) (A) (A) (A) (A) (A) (A) (A) (A) (A)
                 (A) (A) (A) (A) (A) (A) (A)
 The electronic state is 1-A.
 Alpha  occ. eigenvalues --  -19.17213 -14.33760 -14.33258 -10.23602 -10.23182
 Alpha  occ. eigenvalues --  -10.22139 -10.21232 -10.18136 -10.17941 -10.17278
 Alpha  occ. eigenvalues --   -1.05661  -0.92880  -0.88466  -0.82382  -0.73239
 Alpha  occ. eigenvalues --   -0.73020  -0.67712  -0.61091  -0.58346  -0.53013
 Alpha  occ. eigenvalues --   -0.52210  -0.49031  -0.47387  -0.46260  -0.45574
 Alpha  occ. eigenvalues --   -0.44756  -0.42411  -0.39978  -0.39481  -0.37570
 Alpha  occ. eigenvalues --   -0.35479  -0.34444  -0.32697  -0.31306  -0.27196
 Alpha  occ. eigenvalues --   -0.22187  -0.17911
 Alpha virt. eigenvalues --    0.00937   0.03292   0.07702   0.10468   0.11212
 Alpha virt. eigenvalues --    0.12216   0.14471   0.15664   0.16179   0.16714
 Alpha virt. eigenvalues --    0.17765   0.18157   0.19001   0.19501   0.25784
 Alpha virt. eigenvalues --    0.26812   0.28315   0.34120   0.35026   0.37291
 Alpha virt. eigenvalues --    0.39468   0.48800   0.50377   0.51442   0.52913
 Alpha virt. eigenvalues --    0.55075   0.55759   0.57466   0.58378   0.59314
 Alpha virt. eigenvalues --    0.60373   0.61482   0.61765   0.62081   0.63929
 Alpha virt. eigenvalues --    0.67688   0.68589   0.69310   0.71922   0.74591
 Alpha virt. eigenvalues --    0.76319   0.77801   0.81031   0.81997   0.82816
 Alpha virt. eigenvalues --    0.83695   0.84409   0.85578   0.87027   0.87340
 Alpha virt. eigenvalues --    0.88344   0.91272   0.92477   0.92912   0.95039
 Alpha virt. eigenvalues --    0.96821   0.98161   0.99844   1.01075   1.03852
 Alpha virt. eigenvalues --    1.04994   1.08166   1.11907   1.17287   1.18034
 Alpha virt. eigenvalues --    1.23750   1.24474   1.28414   1.29278   1.32898
 Alpha virt. eigenvalues --    1.34646   1.37864   1.39406   1.41374   1.41989
 Alpha virt. eigenvalues --    1.44872   1.49341   1.57503   1.65050   1.68780
 Alpha virt. eigenvalues --    1.74260   1.77963   1.80259   1.81424   1.82541
 Alpha virt. eigenvalues --    1.84670   1.86684   1.88129   1.89718   1.90545
 Alpha virt. eigenvalues --    1.92567   1.93437   1.95029   1.99200   1.99982
 Alpha virt. eigenvalues --    2.00435   2.02204   2.02975   2.05495   2.09681
 Alpha virt. eigenvalues --    2.10762   2.11701   2.14542   2.19129   2.22083
 Alpha virt. eigenvalues --    2.23541   2.25348   2.27459   2.29707   2.30481
 Alpha virt. eigenvalues --    2.32573   2.37591   2.38516   2.40625   2.42656
 Alpha virt. eigenvalues --    2.45184   2.45976   2.46362   2.50799   2.51829
 Alpha virt. eigenvalues --    2.53600   2.56718   2.58664   2.60443   2.62484
 Alpha virt. eigenvalues --    2.66845   2.67776   2.69848   2.70943   2.73051
 Alpha virt. eigenvalues --    2.77359   2.80105   2.81100   2.83812   2.85764
 Alpha virt. eigenvalues --    2.91969   2.96347   2.98413   3.03451   3.11729
 Alpha virt. eigenvalues --    3.16774   3.17229   3.20680   3.27265   3.29542
 Alpha virt. eigenvalues --    3.34005   3.34932   3.40705   3.44726   3.45393
 Alpha virt. eigenvalues --    3.49031   3.51249   3.78995   4.01342   4.09151
 Alpha virt. eigenvalues --    4.13675   4.14372   4.17758   4.34469   4.43939
 Alpha virt. eigenvalues --    4.47566   4.53775   4.84617
          Condensed to atoms (all electrons):
               1          2          3          4          5          6
     1  N    6.882086   0.273238  -0.072390   0.004684   0.000480   0.000000
     2  C    0.273238   4.742119   0.529979  -0.030489  -0.039055   0.000283
     3  C   -0.072390   0.529979   4.929209   0.516914  -0.018685   0.003284
     4  C    0.004684  -0.030489   0.516914   4.957851   0.540778  -0.057728
     5  C    0.000480  -0.039055  -0.018685   0.540778   4.580518   0.264927
     6  O    0.000000   0.000283   0.003284  -0.057728   0.264927   8.246164
     7  C   -0.000000  -0.000012  -0.000122   0.004073  -0.044221   0.247756
     8  C    0.005217  -0.038554  -0.050039  -0.066219   0.457727  -0.055963
     9  C   -0.067478   0.523452  -0.028963  -0.037403   0.003819   0.003663
    10  N   -0.013311  -0.067621   0.004524   0.000652   0.002941  -0.000022
    11  H    0.326213  -0.027947   0.006403  -0.000246   0.000053  -0.000000
    12  H    0.343511  -0.026326  -0.010382  -0.000047   0.000004  -0.000000
    13  H   -0.007192  -0.041618   0.364567  -0.033083   0.004246  -0.000063
    14  H   -0.000114   0.004894  -0.037486   0.355427  -0.040686  -0.000219
    15  H   -0.000000  -0.000019   0.000014   0.000032  -0.004678  -0.036025
    16  H   -0.000000   0.000000   0.000004  -0.000160   0.002987  -0.030812
    17  H    0.000000   0.000014  -0.000020   0.000193  -0.004661  -0.035916
    18  H   -0.000108   0.004468   0.000596   0.004624  -0.039078  -0.007561
    19  H    0.015627  -0.019267  -0.000386   0.000052  -0.000160   0.000000
    20  H    0.000170   0.006108  -0.000155  -0.000001  -0.000086  -0.000000
               7          8          9         10         11         12
     1  N   -0.000000   0.005217  -0.067478  -0.013311   0.326213   0.343511
     2  C   -0.000012  -0.038554   0.523452  -0.067621  -0.027947  -0.026326
     3  C   -0.000122  -0.050039  -0.028963   0.004524   0.006403  -0.010382
     4  C    0.004073  -0.066219  -0.037403   0.000652  -0.000246  -0.000047
     5  C   -0.044221   0.457727   0.003819   0.002941   0.000053   0.000004
     6  O    0.247756  -0.055963   0.003663  -0.000022  -0.000000  -0.000000
     7  C    4.735312  -0.005242   0.000501  -0.000006  -0.000000   0.000000
     8  C   -0.005242   5.154783   0.474505  -0.063896  -0.000436  -0.000168
     9  C    0.000501   0.474505   4.738066   0.280787  -0.018989   0.005965
    10  N   -0.000006  -0.063896   0.280787   6.864677   0.014569   0.000160
    11  H   -0.000000  -0.000436  -0.018989   0.014569   0.464357  -0.025635
    12  H    0.000000  -0.000168   0.005965   0.000160  -0.025635   0.432548
    13  H    0.000003   0.000568   0.004417  -0.000114  -0.000001   0.004709
    14  H   -0.000158   0.007651   0.000299   0.000005   0.000003  -0.000010
    15  H    0.376335   0.004566  -0.000031   0.000005  -0.000000  -0.000000
    16  H    0.393058   0.000103  -0.000002  -0.000000  -0.000000   0.000000
    17  H    0.375822   0.004962  -0.000278  -0.000001   0.000000   0.000000
    18  H    0.004984   0.359798  -0.037437  -0.006976  -0.000006   0.000004
    19  H    0.000000   0.006359  -0.027809   0.326735  -0.006601  -0.000333
    20  H   -0.000006  -0.011338  -0.023893   0.341533  -0.000328  -0.000002
              13         14         15         16         17         18
     1  N   -0.007192  -0.000114  -0.000000  -0.000000   0.000000  -0.000108
     2  C   -0.041618   0.004894  -0.000019   0.000000   0.000014   0.004468
     3  C    0.364567  -0.037486   0.000014   0.000004  -0.000020   0.000596
     4  C   -0.033083   0.355427   0.000032  -0.000160   0.000193   0.004624
     5  C    0.004246  -0.040686  -0.004678   0.002987  -0.004661  -0.039078
     6  O   -0.000063  -0.000219  -0.036025  -0.030812  -0.035916  -0.007561
     7  C    0.000003  -0.000158   0.376335   0.393058   0.375822   0.004984
     8  C    0.000568   0.007651   0.004566   0.000103   0.004962   0.359798
     9  C    0.004417   0.000299  -0.000031  -0.000002  -0.000278  -0.037437
    10  N   -0.000114   0.000005   0.000005  -0.000000  -0.000001  -0.006976
    11  H   -0.000001   0.000003  -0.000000  -0.000000   0.000000  -0.000006
    12  H    0.004709  -0.000010  -0.000000   0.000000   0.000000   0.000004
    13  H    0.615023  -0.006910   0.000000  -0.000000  -0.000000   0.000014
    14  H   -0.006910   0.633920   0.000027  -0.000031   0.000033  -0.000167
    15  H    0.000000   0.000027   0.619682  -0.034323  -0.046602   0.001597
    16  H   -0.000000  -0.000031  -0.034323   0.576150  -0.033641  -0.000183
    17  H   -0.000000   0.000033  -0.046602  -0.033641   0.618625   0.001755
    18  H    0.000014  -0.000167   0.001597  -0.000183   0.001755   0.609694
    19  H   -0.000004  -0.000000   0.000000   0.000000  -0.000000  -0.000014
    20  H    0.000004  -0.000000   0.000004   0.000000  -0.000008   0.004886
              19         20
     1  N    0.015627   0.000170
     2  C   -0.019267   0.006108
     3  C   -0.000386  -0.000155
     4  C    0.000052  -0.000001
     5  C   -0.000160  -0.000086
     6  O    0.000000  -0.000000
     7  C    0.000000  -0.000006
     8  C    0.006359  -0.011338
     9  C   -0.027809  -0.023893
    10  N    0.326735   0.341533
    11  H   -0.006601  -0.000328
    12  H   -0.000333  -0.000002
    13  H   -0.000004   0.000004
    14  H   -0.000000  -0.000000
    15  H    0.000000   0.000004
    16  H    0.000000   0.000000
    17  H   -0.000000  -0.000008
    18  H   -0.000014   0.004886
    19  H    0.458369  -0.025340
    20  H   -0.025340   0.429594
 Mulliken charges:
               1
     1  N   -0.690631
     2  C    0.206354
     3  C   -0.136868
     4  C   -0.159904
     5  C    0.332830
     6  O   -0.541770
     7  C   -0.088078
     8  C   -0.184386
     9  C    0.206809
    10  N   -0.684640
    11  H    0.268590
    12  H    0.276002
    13  H    0.095434
    14  H    0.083524
    15  H    0.119416
    16  H    0.126852
    17  H    0.119723
    18  H    0.099111
    19  H    0.272773
    20  H    0.278859
 Sum of Mulliken charges =  -0.00000
 Mulliken charges with hydrogens summed into heavy atoms:
               1
     1  N   -0.146038
     2  C    0.206354
     3  C   -0.041434
     4  C   -0.076380
     5  C    0.332830
     6  O   -0.541770
     7  C    0.277913
     8  C   -0.085275
     9  C    0.206809
    10  N   -0.133008
 APT charges:
               1
     1  N   -1.220078
     2  C    0.011056
     3  C   -0.431664
     4  C   -0.532656
     5  C   -0.072386
     6  O   -0.260585
     7  C   -1.107001
     8  C   -0.498040
     9  C   -0.061606
    10  N   -1.167470
    11  H    0.535552
    12  H    0.716891
    13  H    0.568839
    14  H    0.516174
    15  H    0.306448
    16  H    0.792498
    17  H    0.290719
    18  H    0.414925
    19  H    0.627543
    20  H    0.570841
 Sum of APT charges =  -0.00000
 APT charges with hydrogens summed into heavy atoms:
               1
     1  N    0.032365
     2  C    0.011056
     3  C    0.137175
     4  C   -0.016482
     5  C   -0.072386
     6  O   -0.260585
     7  C    0.282663
     8  C   -0.083115
     9  C   -0.061606
    10  N    0.030914
 Electronic spatial extent (au):  <R**2>=           1627.6317
 Charge=             -0.0000 electrons
 Dipole moment (field-independent basis, Debye):
    X=              1.0730    Y=              2.4059    Z=              0.1424  Tot=              2.6382
 Quadrupole moment (field-independent basis, Debye-Ang):
   XX=            -47.7640   YY=            -50.6874   ZZ=            -62.2288
   XY=             -5.6036   XZ=              1.9787   YZ=             -3.9083
 Traceless Quadrupole moment (field-independent basis, Debye-Ang):
   XX=              5.7960   YY=              2.8727   ZZ=             -8.6687
   XY=             -5.6036   XZ=              1.9787   YZ=             -3.9083
 Octapole moment (field-independent basis, Debye-Ang**2):
  XXX=              3.9606  YYY=              8.8966  ZZZ=              0.6329  XYY=              9.7651
  XXY=             13.7088  XXZ=             14.1917  XZZ=             -2.4987  YZZ=              3.0676
  YYZ=             -8.3456  XYZ=             -8.7269
 Hexadecapole moment (field-independent basis, Debye-Ang**3):
 XXXX=          -1255.8358 YYYY=           -483.0532 ZZZZ=            -72.3954 XXXY=            -42.0403
 XXXZ=             48.2642 YYYX=             -0.2077 YYYZ=            -24.6021 ZZZX=              1.8028
 ZZZY=             -3.7603 XXYY=           -299.6966 XXZZ=           -259.4402 YYZZ=           -110.9103
 XXYZ=            -20.6184 YYXZ=            -10.8333 ZZXY=              0.6579
 N-N= 5.162286660954D+02 E-N=-2.097514020208D+03  KE= 4.532454439125D+02
  Exact polarizability:   0.000   0.000   0.000   0.000   0.000   0.000
 Approx polarizability: 191.839   7.470 171.134   1.902   1.826  62.236
 D2PCM: PCM CHGder 2nd derivatives, FixD1E=F FixD2E=F DoIter=F DoCFld=F I1PDM=0
 Calling FoFJK, ICntrl=    100147 FMM=F ISym2X=0 I1Cent= 0 IOpClX= 0 NMat=1 NMatS=1 NMatT=0.
 ***** Axes restored to original set *****
 -------------------------------------------------------------------
 Center     Atomic                   Forces (Hartrees/Bohr)
 Number     Number              X              Y              Z
 -------------------------------------------------------------------
      1        7          -0.000196128    0.009174703   -0.005482282
      2        6          -0.008597271   -0.000211650    0.013609581
      3        6           0.013301083    0.003598009   -0.003519108
      4        6          -0.003736215   -0.008804216    0.003403425
      5        6          -0.003546646   -0.007362075    0.003301839
      6        8           0.005791420    0.005302066   -0.002412365
      7        6           0.005852057   -0.000344880    0.001572173
      8        6           0.003549637    0.003082249    0.003634093
      9        6           0.003847751   -0.001157383   -0.014902895
     10        7          -0.003189666   -0.009888132    0.006930862
     11        1          -0.004327066   -0.008135837    0.000259758
     12        1          -0.001270947    0.002538293   -0.001929256
     13        1          -0.001609346   -0.000265163   -0.001429596
     14        1           0.000920031    0.002206183   -0.000529548
     15        1          -0.001852406    0.002068651   -0.002635362
     16        1          -0.002091880   -0.003280259    0.001334867
     17        1          -0.002356897    0.002829529   -0.000369690
     18        1           0.000245008    0.001104417    0.000827235
     19        1           0.002010160    0.008167943   -0.001548853
     20        1          -0.002742679   -0.000622449   -0.000114877
 -------------------------------------------------------------------
 Cartesian Forces:  Max     0.014902895 RMS     0.005043233
 FormGI is forming the generalized inverse of G from B-inverse, IUseBI=4.

 GradGradGradGradGradGradGradGradGradGradGradGradGradGradGradGradGradGrad
 Berny optimization.
 Internal  Forces:  Max     0.009403315 RMS     0.003093887
 Search for a local minimum.
 Step number   1 out of a maximum of   98
 All quantities printed in internal units (Hartrees-Bohrs-Radians)
 Mixed Optimization -- RFO/linear search
 Second derivative matrix not updated -- analytic derivatives used.
 ITU=  0
     Eigenvalues ---    0.00267   0.00369   0.00689   0.01261   0.01636
     Eigenvalues ---    0.01720   0.01888   0.02037   0.02257   0.02335
     Eigenvalues ---    0.02522   0.02749   0.02944   0.03019   0.03690
     Eigenvalues ---    0.08704   0.08943   0.10938   0.11648   0.12156
     Eigenvalues ---    0.13063   0.14039   0.14546   0.16222   0.16477
     Eigenvalues ---    0.17904   0.18476   0.18657   0.19156   0.19571
     Eigenvalues ---    0.20750   0.22869   0.23458   0.29681   0.32971
     Eigenvalues ---    0.33366   0.33921   0.34592   0.35635   0.35999
     Eigenvalues ---    0.36274   0.37343   0.37776   0.38782   0.42857
     Eigenvalues ---    0.43718   0.44219   0.44553   0.45645   0.45733
     Eigenvalues ---    0.47112   0.47979   0.49892   0.53637
 RFO step:  Lambda=-6.59099980D-03 EMin= 2.67368172D-03
 Linear search not attempted -- first point.
 Iteration  1 RMS(Cart)=  0.05684092 RMS(Int)=  0.00300582
 Iteration  2 RMS(Cart)=  0.00329988 RMS(Int)=  0.00050438
 Iteration  3 RMS(Cart)=  0.00001510 RMS(Int)=  0.00050426
 Iteration  4 RMS(Cart)=  0.00000000 RMS(Int)=  0.00050426
 Variable       Old X    -DE/DX   Delta X   Delta X   Delta X     New X
                                 (Linear)    (Quad)   (Total)
    R1        2.67096   0.00584   0.00000   0.00408   0.00408   2.67503
    R2        1.92535  -0.00263   0.00000  -0.00351  -0.00351   1.92184
    R3        1.91904  -0.00212   0.00000  -0.00231  -0.00231   1.91673
    R4        2.63465   0.00629   0.00000   0.00580   0.00573   2.64037
    R5        2.66553   0.00026   0.00000   0.00361   0.00349   2.66902
    R6        2.63863  -0.00092   0.00000  -0.00276  -0.00270   2.63593
    R7        2.05169   0.00039   0.00000   0.00296   0.00296   2.05465
    R8        2.63909   0.00277   0.00000   0.00355   0.00369   2.64278
    R9        2.05446  -0.00122   0.00000  -0.00438  -0.00438   2.05009
   R10        2.58583   0.00538   0.00000   0.01038   0.01038   2.59620
   R11        2.63865   0.00200   0.00000   0.00623   0.00630   2.64495
   R12        2.68700   0.00090   0.00000  -0.00007  -0.00007   2.68693
   R13        2.06920   0.00103   0.00000   0.00377   0.00377   2.07297
   R14        2.06789  -0.00153   0.00000  -0.00628  -0.00628   2.06162
   R15        2.06939   0.00090   0.00000   0.00342   0.00342   2.07281
   R16        2.64631   0.00377   0.00000   0.00290   0.00282   2.64913
   R17        2.04744   0.00079   0.00000   0.00145   0.00145   2.04889
   R18        2.67648  -0.00160   0.00000  -0.01867  -0.01867   2.65780
   R19        1.92626  -0.00300   0.00000  -0.00623  -0.00623   1.92002
   R20        1.91850  -0.00158   0.00000  -0.00314  -0.00314   1.91536
    A1        1.90721   0.00940   0.00000   0.03689   0.03693   1.94414
    A2        1.95705   0.00024   0.00000   0.00094   0.00098   1.95803
    A3        1.93422  -0.00662   0.00000  -0.04209  -0.04202   1.89220
    A4        2.09963   0.00694   0.00000   0.04090   0.04044   2.14007
    A5        2.09134  -0.00227   0.00000  -0.02087  -0.02160   2.06975
    A6        2.07987  -0.00429   0.00000  -0.00802  -0.00976   2.07011
    A7        2.09523   0.00570   0.00000   0.02533   0.02473   2.11996
    A8        2.10539  -0.00476   0.00000  -0.02739  -0.02711   2.07828
    A9        2.08221  -0.00094   0.00000   0.00232   0.00259   2.08480
   A10        2.10608  -0.00330   0.00000  -0.01761  -0.01797   2.08811
   A11        2.08802   0.00383   0.00000   0.02309   0.02327   2.11128
   A12        2.08901  -0.00052   0.00000  -0.00544  -0.00527   2.08374
   A13        1.99996   0.00703   0.00000   0.02483   0.02500   2.02495
   A14        2.08270   0.00038   0.00000   0.00853   0.00818   2.09088
   A15        2.20048  -0.00741   0.00000  -0.03333  -0.03316   2.16732
   A16        2.03979   0.00366   0.00000   0.02022   0.02022   2.06000
   A17        1.93878   0.00212   0.00000   0.01084   0.01091   1.94969
   A18        1.88113  -0.00515   0.00000  -0.02784  -0.02775   1.85338
   A19        1.94069   0.00153   0.00000   0.00822   0.00828   1.94897
   A20        1.87941   0.00265   0.00000   0.02316   0.02325   1.90266
   A21        1.94114  -0.00395   0.00000  -0.03710  -0.03706   1.90408
   A22        1.87959   0.00282   0.00000   0.02397   0.02405   1.90364
   A23        2.09902   0.00116   0.00000   0.00195   0.00138   2.10040
   A24        2.11582  -0.00071   0.00000  -0.00300  -0.00273   2.11309
   A25        2.06802  -0.00045   0.00000   0.00117   0.00145   2.06947
   A26        2.08797   0.00080   0.00000   0.00825   0.00634   2.09431
   A27        2.08613  -0.00283   0.00000  -0.01970  -0.02064   2.06550
   A28        2.09693   0.00242   0.00000   0.02469   0.02392   2.12086
   A29        1.90321   0.00908   0.00000   0.05026   0.04984   1.95304
   A30        1.95917   0.00059   0.00000   0.01714   0.01673   1.97590
   A31        1.93324  -0.00598   0.00000  -0.02299  -0.02369   1.90954
    D1       -2.64812   0.00360   0.00000   0.17996   0.18022  -2.46790
    D2        0.66301   0.00146   0.00000   0.09892   0.09871   0.76172
    D3       -0.49645   0.00203   0.00000   0.15320   0.15341  -0.34304
    D4        2.81468  -0.00011   0.00000   0.07216   0.07190   2.88658
    D5       -3.11522  -0.00026   0.00000   0.00760   0.00631  -3.10891
    D6        0.05527  -0.00043   0.00000  -0.00306  -0.00403   0.05124
    D7       -0.14205   0.00206   0.00000   0.08682   0.08669  -0.05536
    D8        3.02843   0.00188   0.00000   0.07616   0.07636   3.10479
    D9       -3.10655  -0.00007   0.00000  -0.03667  -0.03765   3.13899
   D10       -0.13156   0.00284   0.00000   0.05568   0.05385  -0.07772
   D11        0.20266  -0.00328   0.00000  -0.12157  -0.12082   0.08185
   D12       -3.10554  -0.00037   0.00000  -0.02922  -0.02932  -3.13486
   D13        0.01958  -0.00008   0.00000  -0.01684  -0.01721   0.00237
   D14       -3.10833  -0.00049   0.00000  -0.01986  -0.01999  -3.12832
   D15        3.13267   0.00003   0.00000  -0.00682  -0.00733   3.12534
   D16        0.00475  -0.00038   0.00000  -0.00984  -0.01011  -0.00536
   D17       -3.10861  -0.00061   0.00000  -0.01595  -0.01582  -3.12443
   D18        0.04316  -0.00070   0.00000  -0.01862  -0.01857   0.02459
   D19        0.01930  -0.00017   0.00000  -0.01270  -0.01286   0.00644
   D20       -3.11211  -0.00025   0.00000  -0.01537  -0.01561  -3.12772
   D21        3.10468   0.00026   0.00000   0.01750   0.01750   3.12218
   D22       -0.04790   0.00042   0.00000   0.02070   0.02069  -0.02721
   D23        0.01859  -0.00029   0.00000  -0.01609  -0.01601   0.00258
   D24        3.13250  -0.00033   0.00000  -0.01111  -0.01127   3.12123
   D25       -3.11154  -0.00048   0.00000  -0.01950  -0.01940  -3.13094
   D26        0.00237  -0.00053   0.00000  -0.01452  -0.01465  -0.01229
   D27        1.11214  -0.00127   0.00000  -0.02093  -0.02089   1.09126
   D28       -3.11604   0.00003   0.00000  -0.00356  -0.00357  -3.11961
   D29       -1.05974   0.00119   0.00000   0.01327   0.01324  -1.04651
   D30       -0.14156   0.00174   0.00000   0.08476   0.08512  -0.05644
   D31       -3.11551  -0.00068   0.00000  -0.00387  -0.00498  -3.12048
   D32        3.02696   0.00180   0.00000   0.07998   0.08056   3.10753
   D33        0.05302  -0.00062   0.00000  -0.00865  -0.00953   0.04349
   D34        0.64499   0.00060   0.00000   0.03889   0.03866   0.68365
   D35        2.79399  -0.00015   0.00000   0.05707   0.05736   2.85135
   D36       -2.66408   0.00336   0.00000   0.13011   0.12982  -2.53426
   D37       -0.51508   0.00261   0.00000   0.14829   0.14852  -0.36655
         Item               Value     Threshold  Converged?
 Maximum Force            0.009403     0.000450     NO 
 RMS     Force            0.003094     0.000300     NO 
 Maximum Displacement     0.246146     0.001800     NO 
 RMS     Displacement     0.057141     0.001200     NO 
 Predicted change in Energy=-3.902402D-03
 GradGradGradGradGradGradGradGradGradGradGradGradGradGradGradGradGradGrad

                          Input orientation:                          
 ---------------------------------------------------------------------
 Center     Atomic      Atomic             Coordinates (Angstroms)
 Number     Number       Type             X           Y           Z
 ---------------------------------------------------------------------
      1          7           0       -2.959103   -0.969560   -0.183989
      2          6           0       -1.563859   -0.783646   -0.033790
      3          6           0       -0.736480   -1.739393    0.561381
      4          6           0        0.629627   -1.515002    0.731881
      5          6           0        1.191117   -0.308143    0.302907
      6          8           0        2.545830   -0.174191    0.488050
      7          6           0        3.165230    1.026606    0.045199
      8          6           0        0.374251    0.675592   -0.266307
      9          6           0       -1.003660    0.458429   -0.405621
     10          7           0       -1.843339    1.419474   -0.996750
     11          1           0       -3.288048   -0.605483   -1.074786
     12          1           0       -3.224501   -1.946381   -0.119417
     13          1           0       -1.167047   -2.684848    0.882152
     14          1           0        1.266809   -2.267685    1.183975
     15          1           0        2.778072    1.903488    0.578607
     16          1           0        4.228683    0.918736    0.263426
     17          1           0        3.034084    1.175979   -1.033525
     18          1           0        0.784625    1.625959   -0.588709
     19          1           0       -2.762705    1.436680   -0.564556
     20          1           0       -1.449587    2.353390   -0.988139
 ---------------------------------------------------------------------
                    Distance matrix (angstroms):
                    1          2          3          4          5
     1  N    0.000000
     2  C    1.415566   0.000000
     3  C    2.467442   1.397225   0.000000
     4  C    3.743702   2.435675   1.394873   0.000000
     5  C    4.230705   2.815912   2.414729   1.398498   0.000000
     6  O    5.602547   4.187279   3.637142   2.351396   1.373852
     7  C    6.445514   5.064339   4.810461   3.655213   2.396891
     8  C    3.718138   2.437153   2.784052   2.420805   1.399646
     9  C    2.431467   1.412386   2.415969   2.802850   2.430369
    10  N    2.759165   2.420566   3.692066   4.208904   3.725814
    11  H    1.016994   2.021940   3.236247   4.409019   4.695676
    12  H    1.014291   2.029043   2.587774   3.970528   4.728622
    13  H    2.700062   2.147319   1.087275   2.149223   3.397821
    14  H    4.627611   3.420234   2.163304   1.084860   2.149840
    15  H    6.461511   5.142770   5.061913   4.040468   2.736010
    16  H    7.445140   6.044832   5.639794   4.369867   3.276217
    17  H    6.422097   5.097125   5.025960   4.017393   2.717571
    18  H    4.573403   3.410207   3.868083   3.410808   2.168171
    19  H    2.444053   2.578525   3.932018   4.679860   4.407903
    20  H    3.737284   3.280981   4.434006   4.716572   3.965334
                    6          7          8          9         10
     6  O    0.000000
     7  C    1.421860   0.000000
     8  C    2.450906   2.830160   0.000000
     9  C    3.714531   4.231513   1.401859   0.000000
    10  N    4.899919   5.130864   2.450432   1.406450   0.000000
    11  H    6.054966   6.750028   3.963235   2.607321   2.488720
    12  H    6.066827   7.049426   4.455035   3.285904   3.742500
    13  H    4.499353   5.765761   3.871320   3.400772   4.564329
    14  H    2.550083   3.969025   3.400419   3.887614   5.293743
    15  H    2.092579   1.096968   2.828421   4.166341   4.906471
    16  H    2.019143   1.090960   3.898254   5.294991   6.221595
    17  H    2.092018   1.096885   2.813133   4.148797   4.883636
    18  H    2.738940   2.535417   1.084226   2.143504   2.667458
    19  H    5.646542   5.973305   3.241713   2.019028   1.016032
    20  H    4.952894   4.911688   2.581169   2.032007   1.013565
                   11         12         13         14         15
    11  H    0.000000
    12  H    1.647658   0.000000
    13  H    3.556966   2.404493   0.000000
    14  H    5.348985   4.687636   2.487725   0.000000
    15  H    6.769524   7.165167   6.058790   4.477618   0.000000
    16  H    7.785584   7.994087   6.517864   4.446728   1.781389
    17  H    6.568460   7.053695   6.018746   4.460873   1.787115
    18  H    4.669291   5.390263   4.955352   4.305272   2.326688
    19  H    2.169505   3.443329   4.650385   5.746012   5.676701
    20  H    3.484592   4.732128   5.381604   5.783703   4.531027
                   16         17         18         19         20
    16  H    0.000000
    17  H    1.781944   0.000000
    18  H    3.617711   2.336751   0.000000
    19  H    7.059273   5.821568   3.552458   0.000000
    20  H    5.988940   4.635910   2.383360   1.656519   0.000000
 Stoichiometry    C7H10N2O
 Framework group  C1[X(C7H10N2O)]
 Deg. of freedom    54
 Full point group                 C1      NOp   1
 Largest Abelian subgroup         C1      NOp   1
 Largest concise Abelian subgroup C1      NOp   1
                         Standard orientation:                         
 ---------------------------------------------------------------------
 Center     Atomic      Atomic             Coordinates (Angstroms)
 Number     Number       Type             X           Y           Z
 ---------------------------------------------------------------------
      1          7           0        3.047638   -0.390897   -0.009431
      2          6           0        1.632707   -0.425351    0.015289
      3          6           0        0.907419   -1.618533   -0.034830
      4          6           0       -0.487387   -1.622736   -0.047812
      5          6           0       -1.183022   -0.410023   -0.012936
      6          8           0       -2.553819   -0.501444   -0.007468
      7          6           0       -3.303709    0.705130    0.051931
      8          6           0       -0.475449    0.797467    0.004793
      9          6           0        0.926265    0.797284   -0.015347
     10          7           0        1.662312    1.995005    0.027068
     11          1           0        3.412174    0.325405    0.613706
     12          1           0        3.457083   -1.281370    0.251720
     13          1           0        1.444976   -2.563551   -0.046651
     14          1           0       -1.042577   -2.554388   -0.074492
     15          1           0       -3.124526    1.337874   -0.826059
     16          1           0       -4.353874    0.410083    0.069069
     17          1           0       -3.077605    1.278238    0.959445
     18          1           0       -0.993806    1.749720    0.012928
     19          1           0        2.512487    1.937169   -0.526265
     20          1           0        1.125631    2.804186   -0.263646
 ---------------------------------------------------------------------
 Rotational constants (GHZ):           2.7174253           0.9100256           0.6863620
 Standard basis: 6-31G(d,p) (6D, 7F)
 There are   200 symmetry adapted cartesian basis functions of A   symmetry.
 There are   200 symmetry adapted basis functions of A   symmetry.
   200 basis functions,   350 primitive gaussians,   200 cartesian basis functions
    37 alpha electrons       37 beta electrons
       nuclear repulsion energy       515.7378016062 Hartrees.
 NAtoms=   20 NActive=   20 NUniq=   20 SFac= 1.00D+00 NAtFMM=   60 NAOKFM=F Big=F
 Integral buffers will be    131072 words long.
 Raffenetti 2 integral format.
 Two-electron integral symmetry is turned on.
 ------------------------------------------------------------------------------
 Polarizable Continuum Model (PCM)
 =================================
 Model                : PCM.
 Atomic radii         : UFF (Universal Force Field).
 Polarization charges : Total charges.
 Charge compensation  : None.
 Solution method      : Matrix inversion.
 Cavity type          : Scaled VdW (van der Waals Surface) (Alpha=1.100).
 Cavity algorithm     : GePol (No added spheres)
                        Default sphere list used, NSphG=   20.
                        Lebedev-Laikov grids with approx.  5.0 points / Ang**2.
                        Smoothing algorithm: York/Karplus (Gamma=1.0000).
                        Polarization charges: spherical gaussians, with
                                              point-specific exponents (IZeta= 3).
                        Self-potential: point-specific (ISelfS= 7).
                        Self-field    : sphere-specific E.n sum rule (ISelfD= 2).
 1st derivatives      : Analytical E(r).r(x)/FMM algorithm (CHGder, D1EAlg=3).
                        Cavity 1st derivative terms included.
 Solvent              : Water, Eps=  78.355300 Eps(inf)=   1.777849
 ------------------------------------------------------------------------------
 Spheres list:
 ISph  on   Nord     Re0    Alpha      Xe            Ye            Ze
    1   N      1    1.8300  1.100      3.047638     -0.390897     -0.009431
    2   C      2    1.9255  1.100      1.632707     -0.425351      0.015289
    3   C      3    1.9255  1.100      0.907419     -1.618533     -0.034830
    4   C      4    1.9255  1.100     -0.487387     -1.622736     -0.047812
    5   C      5    1.9255  1.100     -1.183022     -0.410023     -0.012936
    6   O      6    1.7500  1.100     -2.553819     -0.501444     -0.007468
    7   C      7    1.9255  1.100     -3.303709      0.705130      0.051931
    8   C      8    1.9255  1.100     -0.475449      0.797467      0.004793
    9   C      9    1.9255  1.100      0.926265      0.797284     -0.015347
   10   N     10    1.8300  1.100      1.662312      1.995005      0.027068
   11   H     11    1.4430  1.100      3.412174      0.325405      0.613706
   12   H     12    1.4430  1.100      3.457083     -1.281370      0.251720
   13   H     13    1.4430  1.100      1.444976     -2.563551     -0.046651
   14   H     14    1.4430  1.100     -1.042577     -2.554388     -0.074492
   15   H     15    1.4430  1.100     -3.124526      1.337874     -0.826059
   16   H     16    1.4430  1.100     -4.353874      0.410083      0.069069
   17   H     17    1.4430  1.100     -3.077605      1.278238      0.959445
   18   H     18    1.4430  1.100     -0.993806      1.749720      0.012928
   19   H     19    1.4430  1.100      2.512487      1.937169     -0.526265
   20   H     20    1.4430  1.100      1.125631      2.804186     -0.263646
 ------------------------------------------------------------------------------
 One-electron integrals computed using PRISM.
 NBasis=   200 RedAO= T EigKep=  3.68D-04  NBF=   200
 NBsUse=   200 1.00D-06 EigRej= -1.00D+00 NBFU=   200
 Initial guess from the checkpoint file:  "AGAHETWGCFCMDK-UHFFFAOYSA-N_conf_2_0.chk"
 B after Tr=    -0.000000   -0.000000    0.000000
         Rot=    1.000000    0.000322   -0.000117   -0.000208 Ang=   0.05 deg.
 ExpMin= 1.61D-01 ExpMax= 5.48D+03 ExpMxC= 8.25D+02 IAcc=2 IRadAn=         4 AccDes= 0.00D+00
 Harris functional with IExCor=  402 and IRadAn=       4 diagonalized for initial guess.
 HarFok:  IExCor=  402 AccDes= 0.00D+00 IRadAn=         4 IDoV= 1 UseB2=F ITyADJ=14
 ICtDFT=  3500011 ScaDFX=  1.000000  1.000000  1.000000  1.000000
 FoFCou: FMM=F IPFlag=           0 FMFlag=      100000 FMFlg1=           0
         NFxFlg=           0 DoJE=T BraDBF=F KetDBF=T FulRan=T
         wScrn=  0.000000 ICntrl=       500 IOpCl=  0 I1Cent=   200000004 NGrid=           0
         NMat0=    1 NMatS0=      1 NMatT0=    0 NMatD0=    1 NMtDS0=    0 NMtDT0=    0
 Petite list used in FoFCou.
 Keep R1 ints in memory in canonical form, NReq=206076599.
 Requested convergence on RMS density matrix=1.00D-08 within  32 cycles.
 Requested convergence on MAX density matrix=1.00D-06.
 Requested convergence on             energy=1.00D-06.
 No special actions if energy rises.
 Inv3:  Mode=1 IEnd=     7338288.
 Iteration    1 A*A^-1 deviation from unit magnitude is 6.00D-15 for   1134.
 Iteration    1 A*A^-1 deviation from orthogonality  is 4.11D-15 for   1520   1003.
 Iteration    1 A^-1*A deviation from unit magnitude is 5.77D-15 for    348.
 Iteration    1 A^-1*A deviation from orthogonality  is 3.72D-15 for   1514    930.
 Error on total polarization charges =  0.00770
 SCF Done:  E(RB3LYP) =  -457.507355928     A.U. after   10 cycles
            NFock= 10  Conv=0.84D-08     -V/T= 2.0095
 QCSCF skips out because SCF is already converged.
 D1PCM: PCM CHGder 1st derivatives, ID1Alg=3 FixD1E=F DoIter=F DoCFld=F I1PDM=0.
 Calling FoFJK, ICntrl=      2127 FMM=F ISym2X=0 I1Cent= 0 IOpClX= 0 NMat=1 NMatS=1 NMatT=0.
 ***** Axes restored to original set *****
 -------------------------------------------------------------------
 Center     Atomic                   Forces (Hartrees/Bohr)
 Number     Number              X              Y              Z
 -------------------------------------------------------------------
      1        7          -0.000048051    0.001082272   -0.001163936
      2        6          -0.000929533    0.000876147    0.003418242
      3        6           0.001112528   -0.000696018   -0.001667689
      4        6          -0.000315015   -0.000352449    0.000482193
      5        6          -0.000067122   -0.000210484   -0.000128216
      6        8           0.000221375    0.000049300   -0.000245071
      7        6           0.000408341    0.000055660    0.000189958
      8        6           0.000224947    0.000630302    0.001439146
      9        6           0.000654213   -0.001024027   -0.003067586
     10        7          -0.000800774   -0.000234082    0.001019591
     11        1          -0.000314133   -0.001318342   -0.000254716
     12        1          -0.000173508    0.000025349    0.000613557
     13        1          -0.000034656   -0.000096616   -0.000227445
     14        1           0.000094585    0.000088522    0.000014714
     15        1          -0.000158003    0.000101921   -0.000174033
     16        1          -0.000018728   -0.000155003    0.000085948
     17        1          -0.000159876    0.000149187   -0.000008844
     18        1          -0.000089201    0.000114887    0.000282160
     19        1           0.000163568    0.000926557   -0.000016247
     20        1           0.000229042   -0.000013083   -0.000591726
 -------------------------------------------------------------------
 Cartesian Forces:  Max     0.003418242 RMS     0.000819046

 GradGradGradGradGradGradGradGradGradGradGradGradGradGradGradGradGradGrad
 Berny optimization.
 Using GEDIIS/GDIIS optimizer.
 FormGI is forming the generalized inverse of G from B-inverse, IUseBI=4.
 Internal  Forces:  Max     0.001225308 RMS     0.000403412
 Search for a local minimum.
 Step number   2 out of a maximum of   98
 All quantities printed in internal units (Hartrees-Bohrs-Radians)
 Mixed Optimization -- En-DIIS/RFO-DIIS
 Update second derivatives using D2CorX and points    1    2
 DE= -3.91D-03 DEPred=-3.90D-03 R= 1.00D+00
 TightC=F SS=  1.41D+00  RLast= 4.29D-01 DXNew= 5.0454D-01 1.2875D+00
 Trust test= 1.00D+00 RLast= 4.29D-01 DXMaxT set to 5.05D-01
 ITU=  1  0
 Use linear search instead of GDIIS.
     Eigenvalues ---    0.00267   0.00369   0.00712   0.01261   0.01634
     Eigenvalues ---    0.01718   0.01888   0.02003   0.02261   0.02334
     Eigenvalues ---    0.02520   0.02748   0.02942   0.03016   0.03711
     Eigenvalues ---    0.08701   0.08943   0.10930   0.11655   0.12145
     Eigenvalues ---    0.13062   0.14034   0.14473   0.15954   0.16380
     Eigenvalues ---    0.17811   0.18475   0.18633   0.19130   0.19499
     Eigenvalues ---    0.20873   0.22841   0.23414   0.29661   0.32967
     Eigenvalues ---    0.33366   0.33921   0.34631   0.35638   0.36019
     Eigenvalues ---    0.36274   0.37358   0.37767   0.38808   0.42719
     Eigenvalues ---    0.43696   0.44230   0.44586   0.45653   0.45738
     Eigenvalues ---    0.47085   0.48039   0.49741   0.53471
 RFO step:  Lambda=-4.52086804D-04 EMin= 2.67211172D-03
 Quartic linear search produced a step of  0.23612.
 Iteration  1 RMS(Cart)=  0.04532896 RMS(Int)=  0.00249841
 Iteration  2 RMS(Cart)=  0.00258708 RMS(Int)=  0.00019384
 Iteration  3 RMS(Cart)=  0.00000914 RMS(Int)=  0.00019372
 Iteration  4 RMS(Cart)=  0.00000000 RMS(Int)=  0.00019372
 Variable       Old X    -DE/DX   Delta X   Delta X   Delta X     New X
                                 (Linear)    (Quad)   (Total)
    R1        2.67503   0.00064   0.00096  -0.00081   0.00015   2.67518
    R2        1.92184  -0.00015  -0.00083   0.00215   0.00132   1.92316
    R3        1.91673   0.00006  -0.00055   0.00055   0.00000   1.91674
    R4        2.64037   0.00061   0.00135  -0.00238  -0.00108   2.63929
    R5        2.66902   0.00078   0.00082   0.00045   0.00119   2.67021
    R6        2.63593  -0.00009  -0.00064   0.00148   0.00088   2.63681
    R7        2.05465   0.00003   0.00070  -0.00034   0.00036   2.05501
    R8        2.64278   0.00014   0.00087  -0.00075   0.00021   2.64299
    R9        2.05009   0.00000  -0.00103   0.00098  -0.00005   2.05004
   R10        2.59620   0.00029   0.00245  -0.00202   0.00043   2.59664
   R11        2.64495   0.00005   0.00149  -0.00046   0.00108   2.64603
   R12        2.68693   0.00013  -0.00002   0.00043   0.00041   2.68734
   R13        2.07297   0.00005   0.00089  -0.00077   0.00012   2.07309
   R14        2.06162   0.00001  -0.00148   0.00140  -0.00008   2.06154
   R15        2.07281   0.00005   0.00081  -0.00057   0.00024   2.07305
   R16        2.64913   0.00050   0.00067  -0.00088  -0.00025   2.64888
   R17        2.04889  -0.00002   0.00034  -0.00041  -0.00007   2.04882
   R18        2.65780   0.00053  -0.00441   0.00037  -0.00403   2.65377
   R19        1.92002  -0.00014  -0.00147   0.00165   0.00018   1.92020
   R20        1.91536   0.00007  -0.00074   0.00025  -0.00050   1.91486
    A1        1.94414   0.00087   0.00872  -0.00559   0.00313   1.94727
    A2        1.95803  -0.00012   0.00023   0.00088   0.00111   1.95914
    A3        1.89220  -0.00052  -0.00992   0.01410   0.00419   1.89638
    A4        2.14007  -0.00022   0.00955   0.00195   0.01140   2.15146
    A5        2.06975   0.00064  -0.00510  -0.00538  -0.01065   2.05910
    A6        2.07011  -0.00037  -0.00231   0.00414   0.00105   2.07116
    A7        2.11996   0.00044   0.00584  -0.00507   0.00045   2.12041
    A8        2.07828  -0.00030  -0.00640   0.00660   0.00033   2.07861
    A9        2.08480  -0.00014   0.00061  -0.00140  -0.00066   2.08413
   A10        2.08811  -0.00010  -0.00424   0.00382  -0.00058   2.08753
   A11        2.11128   0.00018   0.00549  -0.00435   0.00121   2.11250
   A12        2.08374  -0.00008  -0.00124   0.00047  -0.00070   2.08304
   A13        2.02495   0.00016   0.00590  -0.00566   0.00031   2.02526
   A14        2.09088   0.00002   0.00193  -0.00083   0.00097   2.09185
   A15        2.16732  -0.00018  -0.00783   0.00649  -0.00127   2.16605
   A16        2.06000   0.00027   0.00477  -0.00323   0.00154   2.06154
   A17        1.94969   0.00006   0.00257  -0.00260  -0.00001   1.94967
   A18        1.85338  -0.00019  -0.00655   0.00541  -0.00112   1.85226
   A19        1.94897   0.00004   0.00196  -0.00160   0.00037   1.94934
   A20        1.90266   0.00017   0.00549  -0.00364   0.00187   1.90453
   A21        1.90408  -0.00023  -0.00875   0.00641  -0.00233   1.90176
   A22        1.90364   0.00017   0.00568  -0.00430   0.00140   1.90504
   A23        2.10040   0.00028   0.00033  -0.00063  -0.00058   2.09982
   A24        2.11309  -0.00010  -0.00064   0.00069   0.00017   2.11326
   A25        2.06947  -0.00018   0.00034   0.00004   0.00051   2.06998
   A26        2.09431  -0.00021   0.00150   0.00017   0.00088   2.09519
   A27        2.06550   0.00081  -0.00487  -0.00053  -0.00561   2.05989
   A28        2.12086  -0.00056   0.00565   0.00072   0.00620   2.12705
   A29        1.95304   0.00100   0.01177  -0.00680   0.00480   1.95784
   A30        1.97590  -0.00007   0.00395   0.00241   0.00620   1.98210
   A31        1.90954  -0.00038  -0.00559   0.01863   0.01275   1.92229
    D1       -2.46790   0.00123   0.04255   0.10986   0.15247  -2.31543
    D2        0.76172   0.00057   0.02331   0.10014   0.12339   0.88511
    D3       -0.34304   0.00109   0.03622   0.12470   0.16098  -0.18205
    D4        2.88658   0.00043   0.01698   0.11498   0.13190   3.01848
    D5       -3.10891  -0.00007   0.00149   0.01462   0.01560  -3.09331
    D6        0.05124  -0.00018  -0.00095   0.00594   0.00461   0.05585
    D7       -0.05536   0.00063   0.02047   0.02388   0.04431  -0.01105
    D8        3.10479   0.00052   0.01803   0.01521   0.03332   3.13811
    D9        3.13899  -0.00026  -0.00889  -0.01711  -0.02639   3.11260
   D10       -0.07772   0.00034   0.01271  -0.01171   0.00034  -0.07738
   D11        0.08185  -0.00089  -0.02853  -0.02635  -0.05467   0.02718
   D12       -3.13486  -0.00029  -0.00692  -0.02094  -0.02794   3.12038
   D13        0.00237  -0.00014  -0.00406  -0.01132  -0.01549  -0.01312
   D14       -3.12832  -0.00016  -0.00472  -0.00472  -0.00945  -3.13778
   D15        3.12534  -0.00003  -0.00173  -0.00253  -0.00445   3.12089
   D16       -0.00536  -0.00005  -0.00239   0.00407   0.00158  -0.00378
   D17       -3.12443  -0.00011  -0.00374   0.00035  -0.00335  -3.12778
   D18        0.02459  -0.00012  -0.00438   0.00095  -0.00340   0.02119
   D19        0.00644  -0.00008  -0.00304  -0.00617  -0.00927  -0.00283
   D20       -3.12772  -0.00009  -0.00369  -0.00557  -0.00932  -3.13705
   D21        3.12218   0.00012   0.00413   0.01499   0.01913   3.14131
   D22       -0.02721   0.00013   0.00489   0.01432   0.01920  -0.00801
   D23        0.00258  -0.00012  -0.00378  -0.00386  -0.00762  -0.00504
   D24        3.12123  -0.00006  -0.00266   0.00139  -0.00137   3.11987
   D25       -3.13094  -0.00013  -0.00458  -0.00315  -0.00769  -3.13863
   D26       -0.01229  -0.00007  -0.00346   0.00210  -0.00143  -0.01372
   D27        1.09126  -0.00015  -0.00493  -0.00763  -0.01255   1.07871
   D28       -3.11961  -0.00003  -0.00084  -0.01014  -0.01099  -3.13060
   D29       -1.04651   0.00008   0.00313  -0.01290  -0.00979  -1.05629
   D30       -0.05644   0.00062   0.02010   0.01692   0.03706  -0.01938
   D31       -3.12048  -0.00006  -0.00117   0.01140   0.00981  -3.11067
   D32        3.10753   0.00056   0.01902   0.01180   0.03096   3.13849
   D33        0.04349  -0.00012  -0.00225   0.00627   0.00371   0.04720
   D34        0.68365   0.00015   0.00913  -0.00063   0.00839   0.69204
   D35        2.85135   0.00038   0.01354   0.02078   0.03442   2.88578
   D36       -2.53426   0.00077   0.03065   0.00483   0.03538  -2.49888
   D37       -0.36655   0.00100   0.03507   0.02624   0.06141  -0.30514
         Item               Value     Threshold  Converged?
 Maximum Force            0.001225     0.000450     NO 
 RMS     Force            0.000403     0.000300     NO 
 Maximum Displacement     0.281318     0.001800     NO 
 RMS     Displacement     0.045665     0.001200     NO 
 Predicted change in Energy=-3.813050D-04
 GradGradGradGradGradGradGradGradGradGradGradGradGradGradGradGradGradGrad

                          Input orientation:                          
 ---------------------------------------------------------------------
 Center     Atomic      Atomic             Coordinates (Angstroms)
 Number     Number       Type             X           Y           Z
 ---------------------------------------------------------------------
      1          7           0       -2.965602   -0.938127   -0.166979
      2          6           0       -1.565960   -0.776466   -0.029425
      3          6           0       -0.734425   -1.746488    0.534707
      4          6           0        0.632827   -1.525359    0.704095
      5          6           0        1.193555   -0.313533    0.287956
      6          8           0        2.548430   -0.180343    0.474159
      7          6           0        3.164757    1.034596    0.066274
      8          6           0        0.376747    0.676932   -0.270982
      9          6           0       -0.999521    0.457388   -0.421040
     10          7           0       -1.842902    1.413040   -1.010563
     11          1           0       -3.281610   -0.684257   -1.100462
     12          1           0       -3.263712   -1.887514    0.029450
     13          1           0       -1.163671   -2.697351    0.841603
     14          1           0        1.272573   -2.285377    1.139941
     15          1           0        2.767547    1.896035    0.617292
     16          1           0        4.226818    0.925784    0.290525
     17          1           0        3.040289    1.211196   -1.009251
     18          1           0        0.787039    1.631131   -0.581839
     19          1           0       -2.754862    1.447470   -0.563734
     20          1           0       -1.438317    2.341242   -1.049737
 ---------------------------------------------------------------------
                    Distance matrix (angstroms):
                    1          2          3          4          5
     1  N    0.000000
     2  C    1.415646   0.000000
     3  C    2.474664   1.396653   0.000000
     4  C    3.748640   2.435890   1.395338   0.000000
     5  C    4.230328   2.816019   2.414819   1.398610   0.000000
     6  O    5.602664   4.187740   3.637804   2.351909   1.374081
     7  C    6.444171   5.066437   4.812221   3.656618   2.398381
     8  C    3.713560   2.438202   2.785104   2.422073   1.400217
     9  C    2.424352   1.413015   2.416774   2.803886   2.430345
    10  N    2.738627   2.415215   3.687709   4.207550   3.726563
    11  H    1.017694   2.024618   3.207844   4.391662   4.700239
    12  H    1.014293   2.029842   2.583112   3.971060   4.734076
    13  H    2.712759   2.147166   1.087464   2.149390   3.397886
    14  H    4.635219   3.420745   2.164428   1.084833   2.149487
    15  H    6.443334   5.132230   5.053573   4.033671   2.732784
    16  H    7.444083   6.046180   5.640442   4.369887   3.276674
    17  H    6.434262   5.111593   5.037873   4.027426   2.723594
    18  H    4.566783   3.411494   3.869088   3.411868   2.168760
    19  H    2.427529   2.577763   3.935747   4.682044   4.406416
    20  H    3.723724   3.282900   4.440210   4.724000   3.970391
                    6          7          8          9         10
     6  O    0.000000
     7  C    1.422077   0.000000
     8  C    2.450788   2.831018   0.000000
     9  C    3.714302   4.232240   1.401725   0.000000
    10  N    4.901741   5.136092   2.452688   1.404315   0.000000
    11  H    6.059928   6.772841   3.990546   2.640625   2.544921
    12  H    6.073977   7.061536   4.463137   3.290603   3.740854
    13  H    4.500004   5.767482   3.872534   3.401997   4.559297
    14  H    2.549951   3.969300   3.401247   3.888680   5.292366
    15  H    2.092808   1.097030   2.826865   4.163970   4.913190
    16  H    2.018470   1.090918   3.898751   5.295313   6.226696
    17  H    2.092560   1.097011   2.815125   4.151419   4.887360
    18  H    2.738443   2.535636   1.084190   2.143671   2.673566
    19  H    5.643749   5.967349   3.238272   2.020358   1.016127
    20  H    4.957298   4.913359   2.582799   2.033890   1.013303
                   11         12         13         14         15
[...]
    10  N   -0.000137   0.000004  -0.000007  -0.000000   0.000006  -0.008813
    11  H   -0.000015   0.000003  -0.000000  -0.000000   0.000000  -0.000002
    12  H    0.006418  -0.000012  -0.000000   0.000000   0.000000   0.000004
    13  H    0.650860  -0.007186  -0.000000  -0.000000   0.000000   0.000013
    14  H   -0.007186   0.645060   0.000026  -0.000029   0.000027  -0.000179
    15  H   -0.000000   0.000026   0.602802  -0.032120  -0.045437   0.001606
    16  H   -0.000000  -0.000029  -0.032120   0.567402  -0.031878  -0.000097
    17  H    0.000000   0.000027  -0.045437  -0.031878   0.603003   0.001325
    18  H    0.000013  -0.000179   0.001606  -0.000097   0.001325   0.637983
    19  H   -0.000006  -0.000000  -0.000000   0.000000   0.000000  -0.000058
    20  H    0.000004  -0.000000   0.000001   0.000000  -0.000009   0.006091
              19         20
     1  N    0.013330  -0.000004
     2  C   -0.015703   0.007394
     3  C    0.000202  -0.000058
     4  C   -0.000035  -0.000030
     5  C   -0.000066  -0.000099
     6  O    0.000000   0.000000
     7  C   -0.000000  -0.000008
     8  C    0.005240  -0.010775
     9  C   -0.033102  -0.028858
    10  N    0.332222   0.328330
    11  H   -0.003618  -0.000217
    12  H   -0.000304  -0.000006
    13  H   -0.000006   0.000004
    14  H   -0.000000  -0.000000
    15  H   -0.000000   0.000001
    16  H    0.000000   0.000000
    17  H    0.000000  -0.000009
    18  H   -0.000058   0.006091
    19  H    0.444559  -0.023389
    20  H   -0.023389   0.445448
 Mulliken charges:
               1
     1  N   -0.641501
     2  C    0.226847
     3  C   -0.200046
     4  C   -0.163525
     5  C    0.331962
     6  O   -0.514645
     7  C   -0.087686
     8  C   -0.239817
     9  C    0.201597
    10  N   -0.662309
    11  H    0.296801
    12  H    0.292402
    13  H    0.064834
    14  H    0.074489
    15  H    0.128962
    16  H    0.132063
    17  H    0.128701
    18  H    0.073961
    19  H    0.280726
    20  H    0.276186
 Sum of Mulliken charges =  -0.00000
 Mulliken charges with hydrogens summed into heavy atoms:
               1
     1  N   -0.052298
     2  C    0.226847
     3  C   -0.135212
     4  C   -0.089037
     5  C    0.331962
     6  O   -0.514645
     7  C    0.302039
     8  C   -0.165856
     9  C    0.201597
    10  N   -0.105397
 Electronic spatial extent (au):  <R**2>=           1628.7503
 Charge=             -0.0000 electrons
 Dipole moment (field-independent basis, Debye):
    X=              2.2727    Y=              2.9265    Z=              0.0571  Tot=              3.7058
 Quadrupole moment (field-independent basis, Debye-Ang):
   XX=            -39.9256   YY=            -52.2272   ZZ=            -62.6784
   XY=             -5.4131   XZ=              1.8848   YZ=             -2.8958
 Traceless Quadrupole moment (field-independent basis, Debye-Ang):
   XX=             11.6848   YY=             -0.6169   ZZ=            -11.0680
   XY=             -5.4131   XZ=              1.8848   YZ=             -2.8958
 Octapole moment (field-independent basis, Debye-Ang**2):
  XXX=             22.3778  YYY=             18.3671  ZZZ=              0.4711  XYY=             10.2780
  XXY=             10.3539  XXZ=             10.8759  XZZ=             -1.5544  YZZ=              3.7515
  YYZ=             -7.1201  XYZ=             -5.8676
 Hexadecapole moment (field-independent basis, Debye-Ang**3):
 XXXX=          -1152.3163 YYYY=           -490.3636 ZZZZ=            -71.7195 XXXY=            -62.3714
 XXXZ=             44.5324 YYYX=             11.0893 YYYZ=            -18.7152 ZZZX=              2.6057
 ZZZY=             -2.6587 XXYY=           -295.2261 XXZZ=           -256.1692 YYZZ=           -114.3304
 XXYZ=            -12.7421 YYXZ=            -12.8602 ZZXY=              2.0021
 N-N= 5.155907519425D+02 E-N=-2.096345758710D+03  KE= 4.533317698415D+02
 Evaluate density.
 Using the total density.
 Monte-Carlo method of calculating molar volume:
 based on  0.001 e/bohr**3 density envelope.
 Number of points per bohr**3 =   20 CutOff= 1.00D-04
 Using the CI density.
 There are       362 points.  Will hold       362 in memory.
 LenV=   805192320 MDV=   805306368.
 Box volume = 5931.924 fraction occupied=0.180
 Integrated density= 3.0534996700081724D+01 error=-4.3465003299918280D+01
 Molar volume = 1065.124 bohr**3/mol ( 95.051 cm**3/mol)
 Recommended a0 for SCRF calculation =  4.19 angstrom (  7.92 bohr)
 ******************************Gaussian NBO Version 3.1******************************
             N A T U R A L   A T O M I C   O R B I T A L   A N D
          N A T U R A L   B O N D   O R B I T A L   A N A L Y S I S
 ******************************Gaussian NBO Version 3.1******************************
       /RESON  / : Allow strongly delocalized NBO set

 Analyzing the CI density

 Job title: AGAHETWGCFCMDK-UHFFFAOYSA-N_conf_2                              

 Storage needed:    121420 in NPA ( 805304168 available)
 GSVD:  LWork=       23080 too small for GESVD, short by        9950 words or        9950 for optimal perf.


 NATURAL POPULATIONS:  Natural atomic orbital occupancies 
                                                          
   NAO  Atom  No  lang   Type(AO)    Occupancy
 --------------------------------------------
     1    N    1  S      Cor( 1S)     1.99952
     2    N    1  S      Val( 2S)     1.39682
     3    N    1  S      Ryd( 3S)     0.00020
     4    N    1  S      Ryd( 4S)     0.00001
     5    N    1  px     Val( 2p)     1.32568
     6    N    1  px     Ryd( 3p)     0.00245
     7    N    1  py     Val( 2p)     1.46116
     8    N    1  py     Ryd( 3p)     0.00239
     9    N    1  pz     Val( 2p)     1.59302
    10    N    1  pz     Ryd( 3p)     0.00321
    11    N    1  dxy    Ryd( 3d)     0.00039
    12    N    1  dxz    Ryd( 3d)     0.00100
    13    N    1  dyz    Ryd( 3d)     0.00086
    14    N    1  dx2y2  Ryd( 3d)     0.00060
    15    N    1  dz2    Ryd( 3d)     0.00091

    16    C    2  S      Cor( 1S)     1.99889
    17    C    2  S      Val( 2S)     0.84631
    18    C    2  S      Ryd( 3S)     0.00111
    19    C    2  S      Ryd( 4S)     0.00009
    20    C    2  px     Val( 2p)     0.88967
    21    C    2  px     Ryd( 3p)     0.00527
    22    C    2  py     Val( 2p)     1.09267
    23    C    2  py     Ryd( 3p)     0.00405
    24    C    2  pz     Val( 2p)     1.00453
    25    C    2  pz     Ryd( 3p)     0.00241
    26    C    2  dxy    Ryd( 3d)     0.00094
    27    C    2  dxz    Ryd( 3d)     0.00114
    28    C    2  dyz    Ryd( 3d)     0.00131
    29    C    2  dx2y2  Ryd( 3d)     0.00113
    30    C    2  dz2    Ryd( 3d)     0.00041

    31    C    3  S      Cor( 1S)     1.99907
    32    C    3  S      Val( 2S)     0.94045
    33    C    3  S      Ryd( 3S)     0.00069
    34    C    3  S      Ryd( 4S)     0.00005
    35    C    3  px     Val( 2p)     1.09135
    36    C    3  px     Ryd( 3p)     0.00478
    37    C    3  py     Val( 2p)     1.14421
    38    C    3  py     Ryd( 3p)     0.00437
    39    C    3  pz     Val( 2p)     1.19969
    40    C    3  pz     Ryd( 3p)     0.00765
    41    C    3  dxy    Ryd( 3d)     0.00067
    42    C    3  dxz    Ryd( 3d)     0.00054
    43    C    3  dyz    Ryd( 3d)     0.00041
    44    C    3  dx2y2  Ryd( 3d)     0.00052
    45    C    3  dz2    Ryd( 3d)     0.00039

    46    C    4  S      Cor( 1S)     1.99906
    47    C    4  S      Val( 2S)     0.95760
    48    C    4  S      Ryd( 3S)     0.00074
    49    C    4  S      Ryd( 4S)     0.00004
    50    C    4  px     Val( 2p)     1.09724
    51    C    4  px     Ryd( 3p)     0.00527
    52    C    4  py     Val( 2p)     1.15090
    53    C    4  py     Ryd( 3p)     0.00449
    54    C    4  pz     Val( 2p)     1.09732
    55    C    4  pz     Ryd( 3p)     0.00608
    56    C    4  dxy    Ryd( 3d)     0.00074
    57    C    4  dxz    Ryd( 3d)     0.00072
    58    C    4  dyz    Ryd( 3d)     0.00041
    59    C    4  dx2y2  Ryd( 3d)     0.00052
    60    C    4  dz2    Ryd( 3d)     0.00040

    61    C    5  S      Cor( 1S)     1.99878
    62    C    5  S      Val( 2S)     0.83574
    63    C    5  S      Ryd( 3S)     0.00140
    64    C    5  S      Ryd( 4S)     0.00013
    65    C    5  px     Val( 2p)     0.74547
    66    C    5  px     Ryd( 3p)     0.00725
    67    C    5  py     Val( 2p)     1.08943
    68    C    5  py     Ryd( 3p)     0.00613
    69    C    5  pz     Val( 2p)     0.96890
    70    C    5  pz     Ryd( 3p)     0.00163
    71    C    5  dxy    Ryd( 3d)     0.00128
    72    C    5  dxz    Ryd( 3d)     0.00182
    73    C    5  dyz    Ryd( 3d)     0.00137
    74    C    5  dx2y2  Ryd( 3d)     0.00175
    75    C    5  dz2    Ryd( 3d)     0.00048

    76    O    6  S      Cor( 1S)     1.99975
    77    O    6  S      Val( 2S)     1.59741
    78    O    6  S      Ryd( 3S)     0.00084
    79    O    6  S      Ryd( 4S)     0.00006
    80    O    6  px     Val( 2p)     1.45025
    81    O    6  px     Ryd( 3p)     0.00122
    82    O    6  py     Val( 2p)     1.65054
    83    O    6  py     Ryd( 3p)     0.00186
    84    O    6  pz     Val( 2p)     1.78427
    85    O    6  pz     Ryd( 3p)     0.00225
    86    O    6  dxy    Ryd( 3d)     0.00125
    87    O    6  dxz    Ryd( 3d)     0.00073
    88    O    6  dyz    Ryd( 3d)     0.00120
    89    O    6  dx2y2  Ryd( 3d)     0.00127
    90    O    6  dz2    Ryd( 3d)     0.00074

    91    C    7  S      Cor( 1S)     1.99942
    92    C    7  S      Val( 2S)     1.10620
    93    C    7  S      Ryd( 3S)     0.00146
    94    C    7  S      Ryd( 4S)     0.00003
    95    C    7  px     Val( 2p)     1.09018
    96    C    7  px     Ryd( 3p)     0.00243
    97    C    7  py     Val( 2p)     0.88686
    98    C    7  py     Ryd( 3p)     0.00343
    99    C    7  pz     Val( 2p)     1.23811
   100    C    7  pz     Ryd( 3p)     0.00030
   101    C    7  dxy    Ryd( 3d)     0.00147
   102    C    7  dxz    Ryd( 3d)     0.00047
   103    C    7  dyz    Ryd( 3d)     0.00156
   104    C    7  dx2y2  Ryd( 3d)     0.00131
   105    C    7  dz2    Ryd( 3d)     0.00097

   106    C    8  S      Cor( 1S)     1.99899
   107    C    8  S      Val( 2S)     0.93994
   108    C    8  S      Ryd( 3S)     0.00072
   109    C    8  S      Ryd( 4S)     0.00005
   110    C    8  px     Val( 2p)     1.08728
   111    C    8  px     Ryd( 3p)     0.00358
   112    C    8  py     Val( 2p)     1.16931
   113    C    8  py     Ryd( 3p)     0.00344
   114    C    8  pz     Val( 2p)     1.26510
   115    C    8  pz     Ryd( 3p)     0.00766
   116    C    8  dxy    Ryd( 3d)     0.00053
   117    C    8  dxz    Ryd( 3d)     0.00050
   118    C    8  dyz    Ryd( 3d)     0.00042
   119    C    8  dx2y2  Ryd( 3d)     0.00054
   120    C    8  dz2    Ryd( 3d)     0.00041

   121    C    9  S      Cor( 1S)     1.99894
   122    C    9  S      Val( 2S)     0.83281
   123    C    9  S      Ryd( 3S)     0.00117
   124    C    9  S      Ryd( 4S)     0.00010
   125    C    9  px     Val( 2p)     1.04156
   126    C    9  px     Ryd( 3p)     0.00472
   127    C    9  py     Val( 2p)     0.93522
   128    C    9  py     Ryd( 3p)     0.00560
   129    C    9  pz     Val( 2p)     1.06848
   130    C    9  pz     Ryd( 3p)     0.00389
   131    C    9  dxy    Ryd( 3d)     0.00110
   132    C    9  dxz    Ryd( 3d)     0.00119
   133    C    9  dyz    Ryd( 3d)     0.00111
   134    C    9  dx2y2  Ryd( 3d)     0.00084
   135    C    9  dz2    Ryd( 3d)     0.00041

   136    N   10  S      Cor( 1S)     1.99952
   137    N   10  S      Val( 2S)     1.38023
   138    N   10  S      Ryd( 3S)     0.00032
   139    N   10  S      Ryd( 4S)     0.00001
   140    N   10  px     Val( 2p)     1.41324
   141    N   10  px     Ryd( 3p)     0.00238
   142    N   10  py     Val( 2p)     1.34003
   143    N   10  py     Ryd( 3p)     0.00234
   144    N   10  pz     Val( 2p)     1.67566
   145    N   10  pz     Ryd( 3p)     0.00457
   146    N   10  dxy    Ryd( 3d)     0.00057
   147    N   10  dxz    Ryd( 3d)     0.00109
   148    N   10  dyz    Ryd( 3d)     0.00090
   149    N   10  dx2y2  Ryd( 3d)     0.00028
   150    N   10  dz2    Ryd( 3d)     0.00082

   151    H   11  S      Val( 1S)     0.57555
   152    H   11  S      Ryd( 2S)     0.00202
   153    H   11  px     Ryd( 2p)     0.00032
   154    H   11  py     Ryd( 2p)     0.00039
   155    H   11  pz     Ryd( 2p)     0.00064

   156    H   12  S      Val( 1S)     0.57627
   157    H   12  S      Ryd( 2S)     0.00132
   158    H   12  px     Ryd( 2p)     0.00028
   159    H   12  py     Ryd( 2p)     0.00056
   160    H   12  pz     Ryd( 2p)     0.00040

   161    H   13  S      Val( 1S)     0.76889
   162    H   13  S      Ryd( 2S)     0.00095
   163    H   13  px     Ryd( 2p)     0.00013
   164    H   13  py     Ryd( 2p)     0.00031
   165    H   13  pz     Ryd( 2p)     0.00026

   166    H   14  S      Val( 1S)     0.75843
   167    H   14  S      Ryd( 2S)     0.00141
   168    H   14  px     Ryd( 2p)     0.00016
   169    H   14  py     Ryd( 2p)     0.00030
   170    H   14  pz     Ryd( 2p)     0.00018

   171    H   15  S      Val( 1S)     0.77966
   172    H   15  S      Ryd( 2S)     0.00177
   173    H   15  px     Ryd( 2p)     0.00010
   174    H   15  py     Ryd( 2p)     0.00015
   175    H   15  pz     Ryd( 2p)     0.00031

   176    H   16  S      Val( 1S)     0.76341
   177    H   16  S      Ryd( 2S)     0.00048
   178    H   16  px     Ryd( 2p)     0.00037
   179    H   16  py     Ryd( 2p)     0.00007
   180    H   16  pz     Ryd( 2p)     0.00008

   181    H   17  S      Val( 1S)     0.77971
   182    H   17  S      Ryd( 2S)     0.00180
   183    H   17  px     Ryd( 2p)     0.00010
   184    H   17  py     Ryd( 2p)     0.00015
   185    H   17  pz     Ryd( 2p)     0.00031

   186    H   18  S      Val( 1S)     0.76337
   187    H   18  S      Ryd( 2S)     0.00093
   188    H   18  px     Ryd( 2p)     0.00013
   189    H   18  py     Ryd( 2p)     0.00029
   190    H   18  pz     Ryd( 2p)     0.00027

   191    H   19  S      Val( 1S)     0.58473
   192    H   19  S      Ryd( 2S)     0.00234
   193    H   19  px     Ryd( 2p)     0.00049
   194    H   19  py     Ryd( 2p)     0.00024
   195    H   19  pz     Ryd( 2p)     0.00058

   196    H   20  S      Val( 1S)     0.58410
   197    H   20  S      Ryd( 2S)     0.00250
   198    H   20  px     Ryd( 2p)     0.00033
   199    H   20  py     Ryd( 2p)     0.00045
   200    H   20  pz     Ryd( 2p)     0.00048

 WARNING:  1 low occupancy (<1.9990e) core orbital  found on  C    2
           1 low occupancy (<1.9990e) core orbital  found on  C    5
           1 low occupancy (<1.9990e) core orbital  found on  C    8
           1 low occupancy (<1.9990e) core orbital  found on  C    9


 Summary of Natural Population Analysis:                  
                                                          
                                       Natural Population 
                Natural  -----------------------------------------------
    Atom  No    Charge         Core      Valence    Rydberg      Total
 -----------------------------------------------------------------------
      N    1   -0.78819      1.99952     5.77667    0.01201     7.78819
      C    2    0.15007      1.99889     3.83318    0.01785     5.84993
      C    3   -0.39485      1.99907     4.37570    0.02008     6.39485
      C    4   -0.32153      1.99906     4.30306    0.01941     6.32153
      C    5    0.33842      1.99878     3.63956    0.02324     5.66158
      O    6   -0.49364      1.99975     6.48246    0.01142     8.49364
      C    7   -0.33421      1.99942     4.32135    0.01344     6.33421
      C    8   -0.47848      1.99899     4.46162    0.01786     6.47848
      C    9    0.10286      1.99894     3.87807    0.02013     5.89714
      N   10   -0.82196      1.99952     5.80916    0.01329     7.82196
      H   11    0.42108      0.00000     0.57555    0.00337     0.57892
      H   12    0.42116      0.00000     0.57627    0.00256     0.57884
      H   13    0.22946      0.00000     0.76889    0.00165     0.77054
      H   14    0.23953      0.00000     0.75843    0.00205     0.76047
      H   15    0.21801      0.00000     0.77966    0.00233     0.78199
      H   16    0.23558      0.00000     0.76341    0.00101     0.76442
      H   17    0.21793      0.00000     0.77971    0.00236     0.78207
      H   18    0.23500      0.00000     0.76337    0.00163     0.76500
      H   19    0.41161      0.00000     0.58473    0.00366     0.58839
      H   20    0.41214      0.00000     0.58410    0.00376     0.58786
 =======================================================================
   * Total *    0.00000     19.99194    53.81496    0.19310    74.00000

                                 Natural Population      
 --------------------------------------------------------
   Core                      19.99194 ( 99.9597% of  20)
   Valence                   53.81496 ( 99.6573% of  54)
   Natural Minimal Basis     73.80690 ( 99.7391% of  74)
   Natural Rydberg Basis      0.19310 (  0.2609% of  74)
 --------------------------------------------------------

    Atom  No          Natural Electron Configuration
 ----------------------------------------------------------------------------
      N    1      [core]2S( 1.40)2p( 4.38)3p( 0.01)
      C    2      [core]2S( 0.85)2p( 2.99)3p( 0.01)
      C    3      [core]2S( 0.94)2p( 3.44)3p( 0.02)
      C    4      [core]2S( 0.96)2p( 3.35)3p( 0.02)
      C    5      [core]2S( 0.84)2p( 2.80)3p( 0.02)3d( 0.01)
      O    6      [core]2S( 1.60)2p( 4.89)3p( 0.01)3d( 0.01)
      C    7      [core]2S( 1.11)2p( 3.22)3p( 0.01)3d( 0.01)
      C    8      [core]2S( 0.94)2p( 3.52)3p( 0.01)
      C    9      [core]2S( 0.83)2p( 3.05)3p( 0.01)
      N   10      [core]2S( 1.38)2p( 4.43)3p( 0.01)
      H   11            1S( 0.58)
      H   12            1S( 0.58)
      H   13            1S( 0.77)
      H   14            1S( 0.76)
      H   15            1S( 0.78)
      H   16            1S( 0.76)
      H   17            1S( 0.78)
      H   18            1S( 0.76)
      H   19            1S( 0.58)
      H   20            1S( 0.58)


 NBO analysis skipped by request.
 1\1\GINC-CN11\SP\RB3LYP TD-FC\6-31G(d,p)\C7H10N2O1\QDUEZ\11-Jul-2024\0
 \\# TD(NStates=10, Root=1) B3LYP/6-31G** SCRF=(Solvent=water) volume p
 op=NPA density=current Geom=AllCheck Guess=Read\\AGAHETWGCFCMDK-UHFFFA
 OYSA-N_conf_2\\0,1\N,0,-2.9687944338,-0.9399998657,-0.1636245586\C,0,-
 1.5675809605,-0.7720531584,-0.0281844744\C,0,-0.7350512149,-1.74393740
 99,0.5328904247\C,0,0.6324048244,-1.5260666366,0.7010094889\C,0,1.1936
 148394,-0.3139351435,0.2855261676\O,0,2.5483584156,-0.1820597694,0.470
 990014\C,0,3.1650983367,1.0341394833,0.0671092797\C,0,0.3777506383,0.6
 774629561,-0.2719315292\C,0,-0.9998890705,0.4604960076,-0.4221347412\N
 ,0,-1.8356489209,1.4214165793,-1.0121645042\H,0,-3.2889936872,-0.70516
 93057,-1.1003664415\H,0,-3.2583197526,-1.8902621226,0.0424021926\H,0,-
 1.1668376968,-2.6930277602,0.8416133243\H,0,1.2716840584,-2.2867566756
 ,1.1363012317\H,0,2.7664738905,1.8940273074,0.6194487693\H,0,4.2267287
 838,0.9249560517,0.2930323021\H,0,3.0424627903,1.2131921773,-1.0081921
 231\H,0,0.7893482853,1.6306135551,-0.5842358313\H,0,-2.7580038737,1.44
 5155152,-0.5876660899\H,0,-1.4348052517,2.3518085778,-1.0298338889\\Ve
 rsion=EM64L-G16RevA.03\State=1-A\HF=-457.5077336\RMSD=4.388e-09\Dipole
 =-0.9930621,0.9039954,-0.5677577\Quadrupole=6.9382451,1.5000274,-8.438
 2725,5.5081457,1.7479763,-0.5478402\PG=C01 [X(C7H10N2O1)]\\@


 THE FIRST AND LAST THING REQUIRED OF GENIUS IS THE LOVE OF TRUTH.

                          -- GOETHE
 Job cpu time:       0 days  0 hours 38 minutes 38.1 seconds.
 Elapsed time:       0 days  0 hours 20 minutes  8.2 seconds.
 File lengths (MBytes):  RWF=    385 Int=      0 D2E=      0 Chk=     23 Scr=      1
 Normal termination of Gaussian 16 at Thu Jul 11 18:13:59 2024.
