 Entering Gaussian System, Link 0=g16
 Initial command:
 /opt/sw/arch/manual/gaussian/G16_A03/g16/l1.exe "/scratch/1032053.jesse.materianova.be/Gau-21495.inp" -scrdir="/scratch/1032053.jesse.materianova.be/"
 Entering Link 1 = /opt/sw/arch/manual/gaussian/G16_A03/g16/l1.exe PID=     21496.
  
 Copyright (c) 1988,1990,1992,1993,1995,1998,2003,2009,2016,
            Gaussian, Inc.  All Rights Reserved.
  
 This is part of the Gaussian(R) 16 program.  It is based on
 the Gaussian(R) 09 system (copyright 2009, Gaussian, Inc.),
 the Gaussian(R) 03 system (copyright 2003, Gaussian, Inc.),
 the Gaussian(R) 98 system (copyright 1998, Gaussian, Inc.),
 the Gaussian(R) 94 system (copyright 1995, Gaussian, Inc.),
 the Gaussian 92(TM) system (copyright 1992, Gaussian, Inc.),
 the Gaussian 90(TM) system (copyright 1990, Gaussian, Inc.),
 the Gaussian 88(TM) system (copyright 1988, Gaussian, Inc.),
 the Gaussian 86(TM) system (copyright 1986, Carnegie Mellon
 University), and the Gaussian 82(TM) system (copyright 1983,
 Carnegie Mellon University). Gaussian is a federally registered
 trademark of Gaussian, Inc.
  
 This software contains proprietary and confidential information,
 including trade secrets, belonging to Gaussian, Inc.
  
 This software is provided under written license and may be
 used, copied, transmitted, or stored only in accord with that
 written license.
  
 The following legend is applicable only to US Government
 contracts under FAR:
  
                    RESTRICTED RIGHTS LEGEND
  
 Use, reproduction and disclosure by the US Government is
 subject to restrictions as set forth in subparagraphs (a)
 and (c) of the Commercial Computer Software - Restricted
 Rights clause in FAR 52.227-19.
  
 Gaussian, Inc.
 340 Quinnipiac St., Bldg. 40, Wallingford CT 06492
  
  
 ---------------------------------------------------------------
 Warning -- This program may not be used in any manner that
 competes with the business of Gaussian, Inc. or will provide
 assistance to any competitor of Gaussian, Inc.  The licensee
 of this program is prohibited from giving any competitor of
 Gaussian, Inc. access to this program.  By using this program,
 the user acknowledges that Gaussian, Inc. is engaged in the
 business of creating and licensing software in the field of
 computational chemistry and represents and warrants to the
 licensee that it is not a competitor of Gaussian, Inc. and that
 it will not use this program in any manner prohibited above.
 ---------------------------------------------------------------
  

 Cite this work as:
 Gaussian 16, Revision A.03,
 M. J. Frisch, G. W. Trucks, H. B. Schlegel, G. E. Scuseria, 
 M. A. Robb, J. R. Cheeseman, G. Scalmani, V. Barone, 
 G. A. Petersson, H. Nakatsuji, X. Li, M. Caricato, A. V. Marenich, 
 J. Bloino, B. G. Janesko, R. Gomperts, B. Mennucci, H. P. Hratchian, 
 J. V. Ortiz, A. F. Izmaylov, J. L. Sonnenberg, D. Williams-Young, 
 F. Ding, F. Lipparini, F. Egidi, J. Goings, B. Peng, A. Petrone, 
 T. Henderson, D. Ranasinghe, V. G. Zakrzewski, J. Gao, N. Rega, 
 G. Zheng, W. Liang, M. Hada, M. Ehara, K. Toyota, R. Fukuda, 
 J. Hasegawa, M. Ishida, T. Nakajima, Y. Honda, O. Kitao, H. Nakai, 
 T. Vreven, K. Throssell, J. A. Montgomery, Jr., J. E. Peralta, 
 F. Ogliaro, M. J. Bearpark, J. J. Heyd, E. N. Brothers, K. N. Kudin, 
 V. N. Staroverov, T. A. Keith, R. Kobayashi, J. Normand, 
 K. Raghavachari, A. P. Rendell, J. C. Burant, S. S. Iyengar, 
 J. Tomasi, M. Cossi, J. M. Millam, M. Klene, C. Adamo, R. Cammi, 
 J. W. Ochterski, R. L. Martin, K. Morokuma, O. Farkas, 
 J. B. Foresman, and D. J. Fox, Gaussian, Inc., Wallingford CT, 2016.
 
 ******************************************
 Gaussian 16:  EM64L-G16RevA.03 25-Dec-2016
                11-Jul-2024 
 ******************************************
 %nprocshared=3
 Will use up to    3 processors via shared memory.
 %mem=6GB
 %Chk=IUNMPGNGSSIWFP-UHFFFAOYSA-N_conf_0_0.chk
 -------------------------------------------------------
 # opt=CalcFc B3LYP/6-31G** SCRF=(Solvent=water) scf=xqc
 -------------------------------------------------------
 1/10=4,18=20,19=15,26=3,38=1/1,3;
 2/9=110,12=2,17=6,18=5,40=1/2;
 3/5=1,6=6,7=101,11=2,25=1,30=1,70=2201,71=2,72=1,74=-5,140=1/1,2,3;
 4//1;
 5/5=2,8=3,13=1,38=5,53=1/2,8;
 8/6=4,10=90,11=11/1;
 11/6=1,8=1,9=11,15=111,16=1/1,2,10;
 10/6=1,13=1/2;
 6/7=2,8=2,9=2,10=2,28=1/1;
 7/10=1,18=20,25=1/1,2,3,16;
 1/10=4,18=20,19=15,26=3/3(2);
 2/9=110/2;
 99//99;
 2/9=110/2;
 3/5=1,6=6,7=101,11=2,25=1,30=1,70=2205,71=1,72=1,74=-5/1,2,3;
 4/5=5,16=3,69=1/1;
 5/5=2,8=3,13=1,38=5,53=1/2,8;
 7//1,2,3,16;
 1/18=20,19=15,26=3/3(-5);
 2/9=110/2;
 6/7=2,8=2,9=2,10=2,19=2,28=1/1;
 99/9=1/99;
 ----------------------------------
 IUNMPGNGSSIWFP-UHFFFAOYSA-N_conf_0
 ----------------------------------
 Symbolic Z-matrix:
 Charge =  0 Multiplicity = 1
 N                     2.74212   0.44273   1.04816 
 C                     2.38212  -0.56426   0.05531 
 C                     1.07149  -0.24169  -0.66698 
 C                    -0.15141  -0.27555   0.25981 
 N                    -1.43181  -0.20577  -0.4701 
 C                    -2.5449   -0.46314   0.44788 
 C                    -1.62151   1.09333  -1.12012 
 H                     3.65516   0.2138    1.44073 
 H                     2.08883   0.41368   1.82923 
 H                     3.18601  -0.61801  -0.68724 
 H                     2.3204   -1.54705   0.53569 
 H                     0.9365   -0.97776  -1.46986 
 H                     1.16279   0.73955  -1.14769 
 H                    -0.11782  -1.22226   0.81482 
 H                    -0.08998   0.53144   1.00099 
 H                    -2.59905   0.28071   1.25115 
 H                    -3.4987   -0.45943  -0.09169 
 H                    -2.44918  -1.45589   0.90175 
 H                    -1.57049   1.92402  -0.40703 
 H                    -0.87508   1.25853  -1.9031 
 H                    -2.59547   1.13303  -1.62169 
 

 GradGradGradGradGradGradGradGradGradGradGradGradGradGradGradGradGradGrad
 Berny optimization.
 Initialization pass.
                           ----------------------------
                           !    Initial Parameters    !
                           ! (Angstroms and Degrees)  !
 --------------------------                            --------------------------
 ! Name  Definition              Value          Derivative Info.                !
 --------------------------------------------------------------------------------
 ! R1    R(1,2)                  1.4592         calculate D2E/DX2 analytically  !
 ! R2    R(1,8)                  1.0199         calculate D2E/DX2 analytically  !
 ! R3    R(1,9)                  1.0187         calculate D2E/DX2 analytically  !
 ! R4    R(2,3)                  1.5309         calculate D2E/DX2 analytically  !
 ! R5    R(2,10)                 1.0957         calculate D2E/DX2 analytically  !
 ! R6    R(2,11)                 1.0956         calculate D2E/DX2 analytically  !
 ! R7    R(3,4)                  1.5348         calculate D2E/DX2 analytically  !
 ! R8    R(3,12)                 1.0976         calculate D2E/DX2 analytically  !
 ! R9    R(3,13)                 1.0965         calculate D2E/DX2 analytically  !
 ! R10   R(4,5)                  1.4755         calculate D2E/DX2 analytically  !
 ! R11   R(4,14)                 1.0979         calculate D2E/DX2 analytically  !
 ! R12   R(4,15)                 1.0974         calculate D2E/DX2 analytically  !
 ! R13   R(5,6)                  1.4656         calculate D2E/DX2 analytically  !
 ! R14   R(5,7)                  1.465          calculate D2E/DX2 analytically  !
 ! R15   R(6,16)                 1.0961         calculate D2E/DX2 analytically  !
 ! R16   R(6,17)                 1.0958         calculate D2E/DX2 analytically  !
 ! R17   R(6,18)                 1.0958         calculate D2E/DX2 analytically  !
 ! R18   R(7,19)                 1.096          calculate D2E/DX2 analytically  !
 ! R19   R(7,20)                 1.0943         calculate D2E/DX2 analytically  !
 ! R20   R(7,21)                 1.0962         calculate D2E/DX2 analytically  !
 ! A1    A(2,1,8)              109.1384         calculate D2E/DX2 analytically  !
 ! A2    A(2,1,9)              110.1087         calculate D2E/DX2 analytically  !
 ! A3    A(8,1,9)              105.8181         calculate D2E/DX2 analytically  !
 ! A4    A(1,2,3)              112.7568         calculate D2E/DX2 analytically  !
 ! A5    A(1,2,10)             108.2979         calculate D2E/DX2 analytically  !
 ! A6    A(1,2,11)             109.5474         calculate D2E/DX2 analytically  !
 ! A7    A(3,2,10)             108.5853         calculate D2E/DX2 analytically  !
 ! A8    A(3,2,11)             110.3435         calculate D2E/DX2 analytically  !
 ! A9    A(10,2,11)            107.1258         calculate D2E/DX2 analytically  !
 ! A10   A(2,3,4)              113.1166         calculate D2E/DX2 analytically  !
 ! A11   A(2,3,12)             108.0064         calculate D2E/DX2 analytically  !
 ! A12   A(2,3,13)             108.9131         calculate D2E/DX2 analytically  !
 ! A13   A(4,3,12)             109.2043         calculate D2E/DX2 analytically  !
 ! A14   A(4,3,13)             110.5385         calculate D2E/DX2 analytically  !
 ! A15   A(12,3,13)            106.8396         calculate D2E/DX2 analytically  !
 ! A16   A(3,4,5)              113.0586         calculate D2E/DX2 analytically  !
 ! A17   A(3,4,14)             107.4516         calculate D2E/DX2 analytically  !
 ! A18   A(3,4,15)             110.3041         calculate D2E/DX2 analytically  !
 ! A19   A(5,4,14)             108.5059         calculate D2E/DX2 analytically  !
 ! A20   A(5,4,15)             110.3596         calculate D2E/DX2 analytically  !
 ! A21   A(14,4,15)            106.9144         calculate D2E/DX2 analytically  !
 ! A22   A(4,5,6)              109.9329         calculate D2E/DX2 analytically  !
 ! A23   A(4,5,7)              111.9505         calculate D2E/DX2 analytically  !
 ! A24   A(6,5,7)              109.5902         calculate D2E/DX2 analytically  !
 ! A25   A(5,6,16)             112.1703         calculate D2E/DX2 analytically  !
 ! A26   A(5,6,17)             110.6131         calculate D2E/DX2 analytically  !
 ! A27   A(5,6,18)             110.621          calculate D2E/DX2 analytically  !
 ! A28   A(16,6,17)            108.3933         calculate D2E/DX2 analytically  !
 ! A29   A(16,6,18)            108.3965         calculate D2E/DX2 analytically  !
 ! A30   A(17,6,18)            106.4417         calculate D2E/DX2 analytically  !
 ! A31   A(5,7,19)             112.1727         calculate D2E/DX2 analytically  !
 ! A32   A(5,7,20)             111.2857         calculate D2E/DX2 analytically  !
 ! A33   A(5,7,21)             110.4982         calculate D2E/DX2 analytically  !
 ! A34   A(19,7,20)            108.6241         calculate D2E/DX2 analytically  !
 ! A35   A(19,7,21)            108.1562         calculate D2E/DX2 analytically  !
 ! A36   A(20,7,21)            105.8535         calculate D2E/DX2 analytically  !
 ! D1    D(8,1,2,3)           -175.5375         calculate D2E/DX2 analytically  !
 ! D2    D(8,1,2,10)           -55.3562         calculate D2E/DX2 analytically  !
 ! D3    D(8,1,2,11)            61.1651         calculate D2E/DX2 analytically  !
 ! D4    D(9,1,2,3)             68.7207         calculate D2E/DX2 analytically  !
 ! D5    D(9,1,2,10)          -171.098          calculate D2E/DX2 analytically  !
 ! D6    D(9,1,2,11)           -54.5768         calculate D2E/DX2 analytically  !
 ! D7    D(1,2,3,4)            -65.5576         calculate D2E/DX2 analytically  !
 ! D8    D(1,2,3,12)           173.4565         calculate D2E/DX2 analytically  !
 ! D9    D(1,2,3,13)            57.775          calculate D2E/DX2 analytically  !
 ! D10   D(10,2,3,4)           174.4265         calculate D2E/DX2 analytically  !
 ! D11   D(10,2,3,12)           53.4406         calculate D2E/DX2 analytically  !
 ! D12   D(10,2,3,13)          -62.241          calculate D2E/DX2 analytically  !
 ! D13   D(11,2,3,4)            57.2963         calculate D2E/DX2 analytically  !
 ! D14   D(11,2,3,12)          -63.6896         calculate D2E/DX2 analytically  !
 ! D15   D(11,2,3,13)         -179.3711         calculate D2E/DX2 analytically  !
 ! D16   D(2,3,4,5)           -169.6826         calculate D2E/DX2 analytically  !
 ! D17   D(2,3,4,14)           -49.9846         calculate D2E/DX2 analytically  !
 ! D18   D(2,3,4,15)            66.2151         calculate D2E/DX2 analytically  !
 ! D19   D(12,3,4,5)           -49.3773         calculate D2E/DX2 analytically  !
 ! D20   D(12,3,4,14)           70.3207         calculate D2E/DX2 analytically  !
 ! D21   D(12,3,4,15)         -173.4796         calculate D2E/DX2 analytically  !
 ! D22   D(13,3,4,5)            67.8863         calculate D2E/DX2 analytically  !
 ! D23   D(13,3,4,14)         -172.4156         calculate D2E/DX2 analytically  !
 ! D24   D(13,3,4,15)          -56.2159         calculate D2E/DX2 analytically  !
 ! D25   D(3,4,5,6)            170.7497         calculate D2E/DX2 analytically  !
 ! D26   D(3,4,5,7)            -67.1984         calculate D2E/DX2 analytically  !
 ! D27   D(14,4,5,6)            51.659          calculate D2E/DX2 analytically  !
 ! D28   D(14,4,5,7)           173.7109         calculate D2E/DX2 analytically  !
 ! D29   D(15,4,5,6)           -65.1784         calculate D2E/DX2 analytically  !
 ! D30   D(15,4,5,7)            56.8735         calculate D2E/DX2 analytically  !
 ! D31   D(4,5,6,16)            61.4394         calculate D2E/DX2 analytically  !
 ! D32   D(4,5,6,17)          -177.4089         calculate D2E/DX2 analytically  !
 ! D33   D(4,5,6,18)           -59.7221         calculate D2E/DX2 analytically  !
 ! D34   D(7,5,6,16)           -62.0045         calculate D2E/DX2 analytically  !
 ! D35   D(7,5,6,17)            59.1473         calculate D2E/DX2 analytically  !
 ! D36   D(7,5,6,18)           176.8341         calculate D2E/DX2 analytically  !
 ! D37   D(4,5,7,19)           -57.0238         calculate D2E/DX2 analytically  !
 ! D38   D(4,5,7,20)            64.9063         calculate D2E/DX2 analytically  !
 ! D39   D(4,5,7,21)          -177.7939         calculate D2E/DX2 analytically  !
 ! D40   D(6,5,7,19)            65.224          calculate D2E/DX2 analytically  !
 ! D41   D(6,5,7,20)          -172.846          calculate D2E/DX2 analytically  !
 ! D42   D(6,5,7,21)           -55.5461         calculate D2E/DX2 analytically  !
 --------------------------------------------------------------------------------
 Trust Radius=3.00D-01 FncErr=1.00D-07 GrdErr=1.00D-06 EigMax=2.50D+02 EigMin=1.00D-04
 Number of steps in this run=    108 maximum allowed number of steps=    126.
 GradGradGradGradGradGradGradGradGradGradGradGradGradGradGradGradGradGrad

                          Input orientation:                          
 ---------------------------------------------------------------------
 Center     Atomic      Atomic             Coordinates (Angstroms)
 Number     Number       Type             X           Y           Z
 ---------------------------------------------------------------------
      1          7           0        2.742115    0.442727    1.048157
      2          6           0        2.382124   -0.564263    0.055312
      3          6           0        1.071486   -0.241685   -0.666982
      4          6           0       -0.151415   -0.275548    0.259809
      5          7           0       -1.431806   -0.205773   -0.470097
      6          6           0       -2.544905   -0.463138    0.447877
      7          6           0       -1.621513    1.093325   -1.120120
      8          1           0        3.655156    0.213798    1.440733
      9          1           0        2.088826    0.413680    1.829234
     10          1           0        3.186007   -0.618005   -0.687244
     11          1           0        2.320402   -1.547054    0.535687
     12          1           0        0.936499   -0.977759   -1.469865
     13          1           0        1.162792    0.739550   -1.147695
     14          1           0       -0.117820   -1.222257    0.814817
     15          1           0       -0.089978    0.531436    1.000990
     16          1           0       -2.599049    0.280712    1.251151
     17          1           0       -3.498704   -0.459434   -0.091687
     18          1           0       -2.449178   -1.455890    0.901746
     19          1           0       -1.570489    1.924017   -0.407026
     20          1           0       -0.875079    1.258533   -1.903104
     21          1           0       -2.595474    1.133029   -1.621693
 ---------------------------------------------------------------------
                    Distance matrix (angstroms):
                    1          2          3          4          5
     1  N    0.000000
     2  C    1.459234   0.000000
     3  C    2.490206   1.530861   0.000000
     4  C    3.083817   2.558123   1.534788   0.000000
     5  N    4.488571   3.866605   2.511280   1.475477   0.000000
     6  C    5.397546   4.943677   3.790809   2.408185   1.465572
     7  C    4.915888   4.489804   3.039709   2.437048   1.464983
     8  H    1.019886   2.036021   3.365305   4.015473   5.450183
     9  H    1.018681   2.046753   2.774091   2.820782   4.250353
    10  H    2.081781   1.095676   2.147842   3.486054   4.641259
    11  H    2.097545   1.095649   2.170298   2.793334   4.109708
    12  H    3.408587   2.141722   1.097564   2.160654   2.684095
    13  H    2.721054   2.152655   1.096469   2.176839   2.843363
    14  H    3.317506   2.694350   2.138153   1.097916   2.100191
    15  H    2.833875   2.864638   2.174591   1.097428   2.123223
    16  H    5.347475   5.191926   4.174322   2.698722   2.135842
    17  H    6.407882   5.883598   4.611400   3.370713   2.116507
    18  H    5.529530   4.985271   4.041074   2.661767   2.116552
    19  H    4.786474   4.693446   3.426058   2.701208   2.135233
    20  H    4.739153   4.215133   2.750957   2.748688   2.123122
    21  H    6.007868   5.519930   4.030869   3.390806   2.114873
                    6          7          8          9         10
     6  C    0.000000
     7  C    2.394544   0.000000
     8  H    6.315438   5.930832   0.000000
     9  H    4.914104   4.788238   1.626123   0.000000
    10  H    5.844299   5.121355   2.332442   2.932720   0.000000
    11  H    4.985358   5.025136   2.387734   2.360375   1.762942
    12  H    4.007835   3.309854   4.157220   3.761385   2.408776
    13  H    4.211807   2.806825   3.631564   3.134619   2.479591
    14  H    2.569368   3.371497   4.085262   2.928245   3.679209
    15  H    2.705878   2.675897   3.784217   2.333890   3.860496
    16  H    1.096127   2.690510   6.257435   4.725255   6.167005
    17  H    1.095844   2.644348   7.347058   5.972667   6.713061
    18  H    1.095773   3.357301   6.351476   4.994898   5.914580
    19  H    2.716404   1.095972   5.800553   4.546709   5.400431
    20  H    3.358508   1.094313   5.726757   4.840336   4.635960
    21  H    2.614081   1.096245   7.020955   5.862511   6.112679
                   11         12         13         14         15
    11  H    0.000000
    12  H    2.502304   0.000000
    13  H    3.066333   1.761860   0.000000
    14  H    2.475547   2.528070   3.056159   0.000000
    15  H    3.216607   3.071880   2.495915   1.763767   0.000000
    16  H    5.296567   4.635491   4.485136   2.933565   2.533946
    17  H    5.953025   4.673228   4.927703   3.582461   3.714186
    18  H    4.784475   4.161245   4.697498   2.344648   3.086282
    19  H    5.298686   3.979311   3.069588   3.674532   2.472590
    20  H    4.902052   2.910414   2.234480   3.756974   3.094966
    21  H    6.000248   4.117440   3.808420   4.197943   3.676668
                   16         17         18         19         20
    16  H    0.000000
    17  H    1.777754   0.000000
    18  H    1.777732   1.755374   0.000000
    19  H    2.551067   3.081929   3.729444   0.000000
    20  H    3.725256   3.621608   4.208689   1.778964   0.000000
    21  H    2.996613   2.385933   3.618238   1.775296   1.747771
                   21
    21  H    0.000000
 Stoichiometry    C5H14N2
 Framework group  C1[X(C5H14N2)]
 Deg. of freedom    57
 Full point group                 C1      NOp   1
 Largest Abelian subgroup         C1      NOp   1
 Largest concise Abelian subgroup C1      NOp   1
                         Standard orientation:                         
 ---------------------------------------------------------------------
 Center     Atomic      Atomic             Coordinates (Angstroms)
 Number     Number       Type             X           Y           Z
 ---------------------------------------------------------------------
      1          7           0        2.794318   -0.232508    0.833048
      2          6           0        2.328079    0.024755   -0.525555
      3          6           0        0.903929    0.584782   -0.566806
      4          6           0       -0.150198   -0.411813   -0.065618
      5          7           0       -1.533490    0.029218   -0.328348
      6          6           0       -2.469959   -1.057270   -0.027567
      7          6           0       -1.888497    1.214803    0.455574
      8          1           0        3.768784   -0.531778    0.801103
      9          1           0        2.277891   -1.011105    1.239006
     10          1           0        3.003184    0.752839   -0.988841
     11          1           0        2.392511   -0.896079   -1.115777
     12          1           0        0.676990    0.858637   -1.605145
     13          1           0        0.868679    1.509924    0.020657
     14          1           0        0.018483   -1.361271   -0.590495
     15          1           0       -0.009160   -0.609210    1.004658
     16          1           0       -2.429758   -1.358308    1.025645
     17          1           0       -3.497396   -0.757123   -0.262429
     18          1           0       -2.254128   -1.935253   -0.646665
     19          1           0       -1.763408    1.051556    1.532077
     20          1           0       -1.287177    2.080401    0.161166
     21          1           0       -2.931422    1.498263    0.271970
 ---------------------------------------------------------------------
 Rotational constants (GHZ):           5.4191007           1.1506169           1.0847705
 Standard basis: 6-31G(d,p) (6D, 7F)
 There are   175 symmetry adapted cartesian basis functions of A   symmetry.
 There are   175 symmetry adapted basis functions of A   symmetry.
   175 basis functions,   294 primitive gaussians,   175 cartesian basis functions
    29 alpha electrons       29 beta electrons
       nuclear repulsion energy       328.7445442375 Hartrees.
 NAtoms=   21 NActive=   21 NUniq=   21 SFac= 1.00D+00 NAtFMM=   60 NAOKFM=F Big=F
 Integral buffers will be    131072 words long.
 Raffenetti 2 integral format.
 Two-electron integral symmetry is turned on.
 Force inversion solution in PCM.
 ------------------------------------------------------------------------------
 Polarizable Continuum Model (PCM)
 =================================
 Model                : PCM.
 Atomic radii         : UFF (Universal Force Field).
 Polarization charges : Total charges.
 Charge compensation  : None.
 Solution method      : Matrix inversion.
 Cavity type          : Scaled VdW (van der Waals Surface) (Alpha=1.100).
 Cavity algorithm     : GePol (No added spheres)
                        Default sphere list used, NSphG=   21.
                        Lebedev-Laikov grids with approx.  5.0 points / Ang**2.
                        Smoothing algorithm: York/Karplus (Gamma=1.0000).
                        Polarization charges: spherical gaussians, with
                                              point-specific exponents (IZeta= 3).
                        Self-potential: point-specific (ISelfS= 7).
                        Self-field    : sphere-specific E.n sum rule (ISelfD= 2).
 1st derivatives      : Analytical E(r).r(x)/FMM algorithm (CHGder, D1EAlg=3).
                        Cavity 1st derivative terms included.
 2nd derivatives      : Analytical E(r).r(xy)/FMM algorithm (CHGder, D2EAlg=3).
                        Cavity 2nd derivative terms included.
 Solvent              : Water, Eps=  78.355300 Eps(inf)=   1.777849
 ------------------------------------------------------------------------------
 One-electron integrals computed using PRISM.
 NBasis=   175 RedAO= T EigKep=  3.52D-03  NBF=   175
 NBsUse=   175 1.00D-06 EigRej= -1.00D+00 NBFU=   175
 ExpMin= 1.61D-01 ExpMax= 4.17D+03 ExpMxC= 6.27D+02 IAcc=3 IRadAn=         5 AccDes= 0.00D+00
 Harris functional with IExCor=  402 and IRadAn=       5 diagonalized for initial guess.
 HarFok:  IExCor=  402 AccDes= 0.00D+00 IRadAn=         5 IDoV= 1 UseB2=F ITyADJ=14
 ICtDFT=  3500011 ScaDFX=  1.000000  1.000000  1.000000  1.000000
 FoFCou: FMM=F IPFlag=           0 FMFlag=      100000 FMFlg1=           0
         NFxFlg=           0 DoJE=T BraDBF=F KetDBF=T FulRan=T
         wScrn=  0.000000 ICntrl=       500 IOpCl=  0 I1Cent=   200000004 NGrid=           0
         NMat0=    1 NMatS0=      1 NMatT0=    0 NMatD0=    1 NMtDS0=    0 NMtDT0=    0
 Petite list used in FoFCou.
 Keep R1 ints in memory in canonical form, NReq=121590815.
 Requested convergence on RMS density matrix=1.00D-08 within  32 cycles.
 Requested convergence on MAX density matrix=1.00D-06.
 Requested convergence on             energy=1.00D-06.
 No special actions if energy rises.
 Inv3:  Mode=1 IEnd=     6447468.
 Iteration    1 A*A^-1 deviation from unit magnitude is 5.77D-15 for   1313.
 Iteration    1 A*A^-1 deviation from orthogonality  is 2.77D-15 for   1342    829.
 Iteration    1 A^-1*A deviation from unit magnitude is 5.77D-15 for   1313.
 Iteration    1 A^-1*A deviation from orthogonality  is 2.44D-15 for    881    647.
 Error on total polarization charges =  0.00906
 SCF Done:  E(RB3LYP) =  -308.467114433     A.U. after   11 cycles
            NFock= 11  Conv=0.41D-08     -V/T= 2.0098
 QCSCF skips out because SCF is already converged.
 DoSCS=F DFT=T ScalE2(SS,OS)=  1.000000  1.000000
 Range of M.O.s used for correlation:     1   175
 NBasis=   175 NAE=    29 NBE=    29 NFC=     0 NFV=     0
 NROrb=    175 NOA=    29 NOB=    29 NVA=   146 NVB=   146
 Symmetrizing basis deriv contribution to polar:
 IMax=3 JMax=2 DiffMx= 0.00D+00
 G2DrvN: will do    22 centers at a time, making    1 passes.
 Calling FoFCou, ICntrl=  3107 FMM=F I1Cent=   0 AccDes= 0.00D+00.
 NEqPCM:  Using equilibrium solvation (IEInf=0, Eps=  78.3553, EpsInf=   1.7778)
 G2PCM: DoFxE=T DoFxN=T DoGrad=T DoDP/DQ/DG/TGxP=FFFF NFrqRd=   0 IEInf=0 SqF1=F DoCFld=F IF1Alg=4.
 End of G2Drv F.D. properties file   721 does not exist.
 End of G2Drv F.D. properties file   722 does not exist.
 End of G2Drv F.D. properties file   788 does not exist.
          IDoAtm=111111111111111111111
 NEqPCM:  Using equilibrium solvation (IEInf=0, Eps=  78.3553, EpsInf=   1.7778)
          Differentiating once with respect to nuclear coordinates.
 Keep R1 ints in memory in canonical form, NReq=124860690.
          There are    66 degrees of freedom in the 1st order CPHF.  IDoFFX=6 NUNeed=     0.
     60 vectors produced by pass  0 Test12= 6.42D-15 1.52D-09 XBig12= 7.85D-02 1.08D-01.
 AX will form    60 AO Fock derivatives at one time.
     60 vectors produced by pass  1 Test12= 6.42D-15 1.52D-09 XBig12= 5.85D-03 1.71D-02.
     60 vectors produced by pass  2 Test12= 6.42D-15 1.52D-09 XBig12= 5.72D-05 1.69D-03.
     60 vectors produced by pass  3 Test12= 6.42D-15 1.52D-09 XBig12= 1.29D-07 5.96D-05.
     60 vectors produced by pass  4 Test12= 6.42D-15 1.52D-09 XBig12= 1.25D-10 1.59D-06.
     22 vectors produced by pass  5 Test12= 6.42D-15 1.52D-09 XBig12= 7.33D-14 4.80D-08.
 InvSVY:  IOpt=1 It=  1 EMax= 6.66D-16
 Solved reduced A of dimension   322 with    66 vectors.
 End of Minotr F.D. properties file   721 does not exist.
 End of Minotr F.D. properties file   722 does not exist.
 End of Minotr F.D. properties file   788 does not exist.

 **********************************************************************

            Population analysis using the SCF density.

 **********************************************************************

 Orbital symmetries:
       Occupied  (A) (A) (A) (A) (A) (A) (A) (A) (A) (A) (A) (A)
                 (A) (A) (A) (A) (A) (A) (A) (A) (A) (A) (A) (A)
                 (A) (A) (A) (A) (A)
       Virtual   (A) (A) (A) (A) (A) (A) (A) (A) (A) (A) (A) (A)
                 (A) (A) (A) (A) (A) (A) (A) (A) (A) (A) (A) (A)
                 (A) (A) (A) (A) (A) (A) (A) (A) (A) (A) (A) (A)
                 (A) (A) (A) (A) (A) (A) (A) (A) (A) (A) (A) (A)
                 (A) (A) (A) (A) (A) (A) (A) (A) (A) (A) (A) (A)
                 (A) (A) (A) (A) (A) (A) (A) (A) (A) (A) (A) (A)
                 (A) (A) (A) (A) (A) (A) (A) (A) (A) (A) (A) (A)
                 (A) (A) (A) (A) (A) (A) (A) (A) (A) (A) (A) (A)
                 (A) (A) (A) (A) (A) (A) (A) (A) (A) (A) (A) (A)
                 (A) (A) (A) (A) (A) (A) (A) (A) (A) (A) (A) (A)
                 (A) (A) (A) (A) (A) (A) (A) (A) (A) (A) (A) (A)
                 (A) (A) (A) (A) (A) (A) (A) (A) (A) (A) (A) (A)
                 (A) (A)
 The electronic state is 1-A.
 Alpha  occ. eigenvalues --  -14.32350 -14.30659 -10.20179 -10.20138 -10.19613
 Alpha  occ. eigenvalues --  -10.19588 -10.17572  -0.91202  -0.87526  -0.75565
 Alpha  occ. eigenvalues --   -0.69792  -0.67251  -0.60089  -0.56480  -0.48904
 Alpha  occ. eigenvalues --   -0.47868  -0.45304  -0.44708  -0.44588  -0.40503
 Alpha  occ. eigenvalues --   -0.39327  -0.38261  -0.37038  -0.35892  -0.34478
 Alpha  occ. eigenvalues --   -0.33231  -0.32229  -0.23189  -0.21337
 Alpha virt. eigenvalues --    0.08279   0.09258   0.12070   0.12993   0.14029
 Alpha virt. eigenvalues --    0.15116   0.15932   0.16172   0.17002   0.18289
 Alpha virt. eigenvalues --    0.18793   0.19518   0.19929   0.21675   0.23489
 Alpha virt. eigenvalues --    0.25119   0.25630   0.26833   0.27008   0.29117
 Alpha virt. eigenvalues --    0.50075   0.51401   0.52666   0.54464   0.55957
 Alpha virt. eigenvalues --    0.56841   0.57587   0.60912   0.62345   0.65035
 Alpha virt. eigenvalues --    0.69936   0.71326   0.72147   0.73637   0.76945
 Alpha virt. eigenvalues --    0.78991   0.80258   0.81238   0.81646   0.82998
 Alpha virt. eigenvalues --    0.86295   0.87098   0.88130   0.89601   0.90485
 Alpha virt. eigenvalues --    0.91046   0.91694   0.92622   0.94264   0.95852
 Alpha virt. eigenvalues --    0.96567   0.97619   0.99594   1.01617   1.08946
 Alpha virt. eigenvalues --    1.10690   1.21229   1.28755   1.29626   1.31438
 Alpha virt. eigenvalues --    1.38206   1.39522   1.45819   1.50586   1.53188
 Alpha virt. eigenvalues --    1.55726   1.64478   1.67458   1.69441   1.74233
 Alpha virt. eigenvalues --    1.76409   1.79187   1.85672   1.86958   1.87385
 Alpha virt. eigenvalues --    1.89500   1.90563   1.94373   1.94782   1.98562
 Alpha virt. eigenvalues --    2.01443   2.03726   2.04661   2.05224   2.07288
 Alpha virt. eigenvalues --    2.08554   2.10030   2.13242   2.13319   2.15827
 Alpha virt. eigenvalues --    2.16674   2.18635   2.24200   2.26134   2.27682
 Alpha virt. eigenvalues --    2.29313   2.32630   2.34903   2.36512   2.37730
 Alpha virt. eigenvalues --    2.43212   2.45689   2.51717   2.54842   2.55363
 Alpha virt. eigenvalues --    2.59803   2.61252   2.62279   2.67109   2.69156
 Alpha virt. eigenvalues --    2.70782   2.73880   2.74536   2.76464   2.78571
 Alpha virt. eigenvalues --    2.83703   2.86013   2.88430   2.89913   2.91296
 Alpha virt. eigenvalues --    2.92704   2.94601   2.98031   2.98886   3.02573
 Alpha virt. eigenvalues --    3.17754   3.21989   3.25258   3.30357   3.30869
 Alpha virt. eigenvalues --    3.35196   3.39374   3.41174   3.42089   3.46226
 Alpha virt. eigenvalues --    3.49693   3.52481   3.54771   3.58486   3.97059
 Alpha virt. eigenvalues --    4.07892   4.37033   4.49534   4.51175   4.56000
 Alpha virt. eigenvalues --    4.69973
          Condensed to atoms (all electrons):
               1          2          3          4          5          6
     1  N    6.815321   0.297653  -0.057922  -0.004229   0.000045   0.000003
     2  C    0.297653   4.800780   0.363356  -0.035637   0.002918  -0.000144
     3  C   -0.057922   0.363356   4.971673   0.378195  -0.047203   0.004953
     4  C   -0.004229  -0.035637   0.378195   4.834365   0.308678  -0.049492
     5  N    0.000045   0.002918  -0.047203   0.308678   6.859958   0.322528
     6  C    0.000003  -0.000144   0.004953  -0.049492   0.322528   4.825991
     7  C   -0.000017   0.000124  -0.004534  -0.049549   0.320885  -0.058330
     8  H    0.339217  -0.032719   0.005813   0.000133   0.000000  -0.000000
     9  H    0.339355  -0.037663  -0.006592   0.004844  -0.000110   0.000005
    10  H   -0.040851   0.385598  -0.027903   0.004616  -0.000093   0.000002
    11  H   -0.055134   0.383679  -0.047363  -0.011488   0.000020  -0.000013
    12  H    0.004133  -0.029440   0.363858  -0.039779   0.004942   0.000118
    13  H    0.003948  -0.033763   0.370120  -0.039286  -0.002727  -0.000044
    14  H   -0.000698  -0.003476  -0.040288   0.385318  -0.038618  -0.005127
    15  H    0.002686  -0.001516  -0.047161   0.353100  -0.051712  -0.005897
    16  H   -0.000003   0.000018  -0.000169  -0.009552  -0.050195   0.360777
    17  H    0.000000   0.000002  -0.000210   0.005338  -0.035137   0.386970
    18  H    0.000000  -0.000011   0.000131  -0.003846  -0.036389   0.388701
    19  H   -0.000007   0.000032  -0.001182  -0.010170  -0.051067  -0.007389
    20  H    0.000001  -0.000095   0.002723  -0.003482  -0.036881   0.005687
    21  H    0.000000  -0.000004   0.000145   0.005543  -0.034356  -0.004884
               7          8          9         10         11         12
     1  N   -0.000017   0.339217   0.339355  -0.040851  -0.055134   0.004133
     2  C    0.000124  -0.032719  -0.037663   0.385598   0.383679  -0.029440
     3  C   -0.004534   0.005813  -0.006592  -0.027903  -0.047363   0.363858
     4  C   -0.049549   0.000133   0.004844   0.004616  -0.011488  -0.039779
     5  N    0.320885   0.000000  -0.000110  -0.000093   0.000020   0.004942
     6  C   -0.058330  -0.000000   0.000005   0.000002  -0.000013   0.000118
     7  C    4.831911   0.000000   0.000003   0.000006  -0.000001  -0.000863
     8  H    0.000000   0.475758  -0.031663  -0.005618  -0.002741  -0.000223
     9  H    0.000003  -0.031663   0.478382   0.006517  -0.006287  -0.000092
    10  H    0.000006  -0.005618   0.006517   0.631856  -0.045953  -0.004625
    11  H   -0.000001  -0.002741  -0.006287  -0.045953   0.686311   0.000099
    12  H   -0.000863  -0.000223  -0.000092  -0.004625   0.000099   0.636740
    13  H    0.001157  -0.000092  -0.000416  -0.005311   0.006986  -0.034747
    14  H    0.005937  -0.000061   0.000085   0.000004   0.007120  -0.005306
    15  H   -0.010546  -0.000067   0.001635  -0.000194   0.000489   0.007225
    16  H   -0.007864   0.000000   0.000008  -0.000000   0.000001   0.000050
    17  H   -0.003994  -0.000000  -0.000000  -0.000000   0.000000  -0.000013
    18  H    0.005790  -0.000000  -0.000000   0.000000  -0.000002  -0.000037
    19  H    0.360389   0.000000   0.000012  -0.000001   0.000001   0.000327
    20  H    0.390537  -0.000000  -0.000000   0.000010  -0.000003   0.000138
    21  H    0.388036  -0.000000  -0.000000  -0.000000   0.000000  -0.000078
              13         14         15         16         17         18
     1  N    0.003948  -0.000698   0.002686  -0.000003   0.000000   0.000000
     2  C   -0.033763  -0.003476  -0.001516   0.000018   0.000002  -0.000011
     3  C    0.370120  -0.040288  -0.047161  -0.000169  -0.000210   0.000131
     4  C   -0.039286   0.385318   0.353100  -0.009552   0.005338  -0.003846
     5  N   -0.002727  -0.038618  -0.051712  -0.050195  -0.035137  -0.036389
     6  C   -0.000044  -0.005127  -0.005897   0.360777   0.386970   0.388701
     7  C    0.001157   0.005937  -0.010546  -0.007864  -0.003994   0.005790
     8  H   -0.000092  -0.000061  -0.000067   0.000000  -0.000000  -0.000000
     9  H   -0.000416   0.000085   0.001635   0.000008  -0.000000  -0.000000
    10  H   -0.005311   0.000004  -0.000194  -0.000000  -0.000000   0.000000
    11  H    0.006986   0.007120   0.000489   0.000001   0.000000  -0.000002
    12  H   -0.034747  -0.005306   0.007225   0.000050  -0.000013  -0.000037
    13  H    0.631569   0.006001  -0.005952  -0.000010   0.000008  -0.000001
    14  H    0.006001   0.633391  -0.047001  -0.001658   0.000215   0.005736
    15  H   -0.005952  -0.047001   0.700833   0.013581  -0.000389  -0.001328
    16  H   -0.000010  -0.001658   0.013581   0.681180  -0.041656  -0.041572
    17  H    0.000008   0.000215  -0.000389  -0.041656   0.605742  -0.028953
    18  H   -0.000001   0.005736  -0.001328  -0.041572  -0.028953   0.602991
    19  H    0.000285  -0.000264   0.016044   0.014041  -0.001390  -0.000355
    20  H    0.001490   0.000021  -0.001240  -0.000380   0.000140  -0.000245
    21  H   -0.000078  -0.000215  -0.000282  -0.001453   0.005078   0.000162
              19         20         21
     1  N   -0.000007   0.000001   0.000000
     2  C    0.000032  -0.000095  -0.000004
     3  C   -0.001182   0.002723   0.000145
     4  C   -0.010170  -0.003482   0.005543
     5  N   -0.051067  -0.036881  -0.034356
     6  C   -0.007389   0.005687  -0.004884
     7  C    0.360389   0.390537   0.388036
     8  H    0.000000  -0.000000  -0.000000
     9  H    0.000012  -0.000000  -0.000000
    10  H   -0.000001   0.000010  -0.000000
    11  H    0.000001  -0.000003   0.000000
    12  H    0.000327   0.000138  -0.000078
    13  H    0.000285   0.001490  -0.000078
    14  H   -0.000264   0.000021  -0.000215
    15  H    0.016044  -0.001240  -0.000282
    16  H    0.014041  -0.000380  -0.001453
    17  H   -0.001390   0.000140   0.005078
    18  H   -0.000355  -0.000245   0.000162
    19  H    0.678288  -0.042478  -0.040355
    20  H   -0.042478   0.599413  -0.028949
    21  H   -0.040355  -0.028949   0.602091
 Mulliken charges:
               1
     1  N   -0.643502
     2  C   -0.059691
     3  C   -0.180441
     4  C   -0.023619
     5  N   -0.435486
     6  C   -0.164417
     7  C   -0.169079
     8  H    0.252262
     9  H    0.251977
    10  H    0.101941
    11  H    0.084278
    12  H    0.097573
    13  H    0.100862
    14  H    0.098884
    15  H    0.077695
    16  H    0.084855
    17  H    0.108250
    18  H    0.109228
    19  H    0.085240
    20  H    0.113593
    21  H    0.109598
 Sum of Mulliken charges =  -0.00000
 Mulliken charges with hydrogens summed into heavy atoms:
               1
     1  N   -0.139262
     2  C    0.126527
     3  C    0.017994
     4  C    0.152959
     5  N   -0.435486
     6  C    0.137916
     7  C    0.139352
 APT charges:
               1
     1  N   -1.270643
     2  C   -0.738852
     3  C   -0.630391
     4  C   -0.452317
     5  N   -0.375406
     6  C   -1.110453
     7  C   -1.013151
     8  H    0.867290
     9  H    0.283712
    10  H    0.523680
    11  H    0.336448
    12  H    0.349543
    13  H    0.305616
    14  H    0.332047
    15  H    0.234024
    16  H    0.266346
    17  H    0.586838
    18  H    0.370556
    19  H    0.253843
    20  H    0.293887
    21  H    0.587383
 Sum of APT charges =  -0.00000
 APT charges with hydrogens summed into heavy atoms:
               1
     1  N   -0.119640
     2  C    0.121276
     3  C    0.024768
     4  C    0.113753
     5  N   -0.375406
     6  C    0.113287
     7  C    0.121962
 Electronic spatial extent (au):  <R**2>=           1179.2399
 Charge=             -0.0000 electrons
 Dipole moment (field-independent basis, Debye):
    X=              0.3560    Y=             -1.5822    Z=              0.0590  Tot=              1.6229
 Quadrupole moment (field-independent basis, Debye-Ang):
   XX=            -41.7683   YY=            -43.9158   ZZ=            -49.0246
   XY=             -3.6184   XZ=             -3.5701   YZ=             -1.4385
 Traceless Quadrupole moment (field-independent basis, Debye-Ang):
   XX=              3.1346   YY=              0.9871   ZZ=             -4.1217
   XY=             -3.6184   XZ=             -3.5701   YZ=             -1.4385
 Octapole moment (field-independent basis, Debye-Ang**2):
  XXX=             15.9918  YYY=             -1.6205  ZZZ=              0.4715  XYY=              1.2449
  XXY=            -12.0814  XXZ=             -2.1803  XZZ=              1.1558  YZZ=             -3.5985
  YYZ=              0.3332  XYZ=             -7.1872
 Hexadecapole moment (field-independent basis, Debye-Ang**3):
 XXXX=          -1033.2295 YYYY=           -235.9286 ZZZZ=           -158.4227 XXXY=            -42.5339
 XXXZ=              3.2649 YYYX=             -6.7415 YYYZ=             -0.3142 ZZZX=             -1.3112
 ZZZY=             -5.7372 XXYY=           -224.6886 XXZZ=           -235.3729 YYZZ=            -64.3742
 XXYZ=            -15.1373 YYXZ=              5.4755 ZZXY=             -6.3772
 N-N= 3.287445442375D+02 E-N=-1.372494786716D+03  KE= 3.054781867382D+02
  Exact polarizability:   0.000   0.000   0.000   0.000   0.000   0.000
 Approx polarizability:  96.035  -0.278  90.648   0.189  -1.210  89.337
 D2PCM: PCM CHGder 2nd derivatives, FixD1E=F FixD2E=F DoIter=F DoCFld=F I1PDM=0
 Calling FoFJK, ICntrl=    100147 FMM=F ISym2X=0 I1Cent= 0 IOpClX= 0 NMat=1 NMatS=1 NMatT=0.
 ***** Axes restored to original set *****
 -------------------------------------------------------------------
 Center     Atomic                   Forces (Hartrees/Bohr)
 Number     Number              X              Y              Z
 -------------------------------------------------------------------
      1        7           0.004083240    0.012535783    0.002706974
      2        6           0.000239046   -0.001942703    0.001767479
      3        6           0.000415009    0.000203579    0.000188509
      4        6          -0.000679447   -0.004214716   -0.009360008
      5        7          -0.001542333   -0.002333431    0.001606858
      6        6           0.000343043   -0.005155355   -0.004727823
      7        6           0.000253128   -0.004463981   -0.005804331
      8        1          -0.002429693    0.000377273    0.000116919
      9        1           0.001445341   -0.001275967   -0.000610800
     10        1           0.000542980    0.000190966    0.000393461
     11        1          -0.003009034   -0.008402464   -0.004598182
     12        1          -0.001919221    0.000008303    0.000909643
     13        1           0.001099095   -0.000134509    0.000734039
     14        1          -0.003315974    0.000149900   -0.000202181
     15        1           0.001137981    0.004480348    0.004255556
     16        1          -0.001987527    0.003300024    0.005158087
     17        1           0.001328815    0.002312897   -0.001043890
     18        1           0.002597895    0.000927100    0.000351103
     19        1           0.000121766    0.005877004    0.002999094
     20        1           0.001598064   -0.000480815    0.002364987
     21        1          -0.000322176   -0.001959237    0.002794506
 -------------------------------------------------------------------
 Cartesian Forces:  Max     0.012535783 RMS     0.003325300
 FormGI is forming the generalized inverse of G from B-inverse, IUseBI=4.

 GradGradGradGradGradGradGradGradGradGradGradGradGradGradGradGradGradGrad
 Berny optimization.
 Internal  Forces:  Max     0.010297112 RMS     0.002373887
 Search for a local minimum.
 Step number   1 out of a maximum of  108
 All quantities printed in internal units (Hartrees-Bohrs-Radians)
 Mixed Optimization -- RFO/linear search
 Second derivative matrix not updated -- analytic derivatives used.
 ITU=  0
     Eigenvalues ---    0.00107   0.00207   0.00334   0.00363   0.00501
     Eigenvalues ---    0.00570   0.02420   0.03242   0.03421   0.03918
     Eigenvalues ---    0.04589   0.04626   0.04884   0.05101   0.06256
     Eigenvalues ---    0.06285   0.06335   0.06342   0.06996   0.08460
     Eigenvalues ---    0.08634   0.10165   0.12187   0.12401   0.13096
     Eigenvalues ---    0.13644   0.15066   0.15297   0.15480   0.16450
     Eigenvalues ---    0.16776   0.17426   0.18692   0.19494   0.20341
     Eigenvalues ---    0.23461   0.24307   0.27304   0.29706   0.31689
     Eigenvalues ---    0.31722   0.32088   0.32202   0.32688   0.32994
     Eigenvalues ---    0.33156   0.33282   0.33481   0.33549   0.33594
     Eigenvalues ---    0.33897   0.35567   0.35788   0.36424   0.37771
     Eigenvalues ---    0.43921   0.44313
 RFO step:  Lambda=-2.88869262D-03 EMin= 1.07462094D-03
 Linear search not attempted -- first point.
 Iteration  1 RMS(Cart)=  0.02719528 RMS(Int)=  0.00044453
 Iteration  2 RMS(Cart)=  0.00054631 RMS(Int)=  0.00006774
 Iteration  3 RMS(Cart)=  0.00000024 RMS(Int)=  0.00006774
 Variable       Old X    -DE/DX   Delta X   Delta X   Delta X     New X
                                 (Linear)    (Quad)   (Total)
    R1        2.75755   0.01030   0.00000   0.02436   0.02436   2.78191
    R2        1.92730  -0.00221   0.00000  -0.00299  -0.00299   1.92432
    R3        1.92503  -0.00136   0.00000  -0.00081  -0.00081   1.92422
    R4        2.89291   0.00033   0.00000   0.00327   0.00327   2.89618
    R5        2.07053   0.00012   0.00000   0.00045   0.00045   2.07098
    R6        2.07048   0.00569   0.00000   0.01582   0.01582   2.08630
    R7        2.90033  -0.00056   0.00000  -0.00354  -0.00354   2.89679
    R8        2.07409  -0.00043   0.00000  -0.00105  -0.00105   2.07305
    R9        2.07203  -0.00035   0.00000  -0.00123  -0.00123   2.07080
   R10        2.78825  -0.00400   0.00000  -0.01444  -0.01444   2.77381
   R11        2.07476  -0.00033   0.00000  -0.00046  -0.00046   2.07430
   R12        2.07384   0.00623   0.00000   0.02038   0.02038   2.09422
   R13        2.76953  -0.00214   0.00000  -0.00971  -0.00971   2.75982
   R14        2.76842  -0.00217   0.00000  -0.00736  -0.00736   2.76106
   R15        2.07138   0.00612   0.00000   0.01974   0.01974   2.09112
   R16        2.07085  -0.00064   0.00000  -0.00221  -0.00221   2.06864
   R17        2.07071  -0.00047   0.00000  -0.00210  -0.00210   2.06861
   R18        2.07109   0.00641   0.00000   0.02053   0.02053   2.09162
   R19        2.06795  -0.00068   0.00000  -0.00311  -0.00311   2.06485
   R20        2.07160  -0.00106   0.00000  -0.00354  -0.00354   2.06806
    A1        1.90482   0.00065   0.00000  -0.00612  -0.00623   1.89860
    A2        1.92176  -0.00126   0.00000  -0.01451  -0.01462   1.90714
    A3        1.84687  -0.00062   0.00000  -0.01627  -0.01652   1.83036
    A4        1.96798  -0.00332   0.00000  -0.01368  -0.01374   1.95424
    A5        1.89015  -0.00105   0.00000  -0.01438  -0.01449   1.87566
    A6        1.91196   0.00785   0.00000   0.06277   0.06290   1.97486
    A7        1.89517   0.00176   0.00000  -0.00060  -0.00089   1.89429
    A8        1.92586  -0.00415   0.00000  -0.02331  -0.02338   1.90247
    A9        1.86970  -0.00101   0.00000  -0.01143  -0.01158   1.85812
   A10        1.97426   0.00137   0.00000   0.00374   0.00375   1.97801
   A11        1.88507   0.00116   0.00000   0.01358   0.01361   1.89868
   A12        1.90089  -0.00164   0.00000  -0.01088  -0.01086   1.89003
   A13        1.90597  -0.00208   0.00000  -0.01647  -0.01648   1.88949
   A14        1.92926   0.00057   0.00000   0.00303   0.00303   1.93229
   A15        1.86470   0.00060   0.00000   0.00754   0.00757   1.87227
   A16        1.97324   0.00207   0.00000   0.00993   0.00992   1.98316
   A17        1.87538   0.00199   0.00000   0.01584   0.01591   1.89129
   A18        1.92517  -0.00150   0.00000  -0.00520  -0.00524   1.91993
   A19        1.89379  -0.00326   0.00000  -0.02308  -0.02312   1.87067
   A20        1.92614   0.00041   0.00000   0.00688   0.00686   1.93300
   A21        1.86601   0.00020   0.00000  -0.00542  -0.00543   1.86058
   A22        1.91869   0.00024   0.00000   0.01050   0.01035   1.92905
   A23        1.95390  -0.00052   0.00000   0.00641   0.00623   1.96013
   A24        1.91271   0.00055   0.00000   0.01061   0.01046   1.92317
   A25        1.95774   0.00345   0.00000   0.01778   0.01785   1.97559
   A26        1.93056  -0.00280   0.00000  -0.01480  -0.01477   1.91579
   A27        1.93070  -0.00257   0.00000  -0.01228  -0.01225   1.91845
   A28        1.89182  -0.00067   0.00000  -0.01037  -0.01031   1.88151
   A29        1.89188  -0.00063   0.00000  -0.00857  -0.00851   1.88336
   A30        1.85776   0.00327   0.00000   0.02890   0.02890   1.88666
   A31        1.95778   0.00286   0.00000   0.01249   0.01252   1.97030
   A32        1.94230  -0.00184   0.00000  -0.00982  -0.00980   1.93250
   A33        1.92856  -0.00381   0.00000  -0.01825  -0.01822   1.91033
   A34        1.89585  -0.00076   0.00000  -0.01036  -0.01033   1.88552
   A35        1.88768   0.00010   0.00000  -0.00479  -0.00475   1.88293
   A36        1.84749   0.00355   0.00000   0.03192   0.03193   1.87942
    D1       -3.06371  -0.00085   0.00000   0.01411   0.01414  -3.04957
    D2       -0.96615  -0.00143   0.00000  -0.00495  -0.00480  -0.97095
    D3        1.06753   0.00106   0.00000   0.00765   0.00768   1.07521
    D4        1.19940   0.00023   0.00000   0.04537   0.04525   1.24466
    D5       -2.98622  -0.00035   0.00000   0.02630   0.02632  -2.95990
    D6       -0.95254   0.00215   0.00000   0.03890   0.03880  -0.91375
    D7       -1.14420  -0.00279   0.00000  -0.02845  -0.02839  -1.17259
    D8        3.02739  -0.00185   0.00000  -0.01949  -0.01946   3.00793
    D9        1.00836  -0.00232   0.00000  -0.02997  -0.02991   0.97845
   D10        3.04432  -0.00057   0.00000  -0.00138  -0.00133   3.04299
   D11        0.93271   0.00036   0.00000   0.00758   0.00761   0.94032
   D12       -1.08631  -0.00011   0.00000  -0.00290  -0.00285  -1.08916
   D13        1.00001   0.00196   0.00000   0.02602   0.02593   1.02594
   D14       -1.11159   0.00290   0.00000   0.03498   0.03487  -1.07672
   D15       -3.13062   0.00243   0.00000   0.02450   0.02442  -3.10620
   D16       -2.96152   0.00022   0.00000  -0.00492  -0.00493  -2.96646
   D17       -0.87240  -0.00126   0.00000  -0.01702  -0.01698  -0.88938
   D18        1.15567  -0.00070   0.00000  -0.01727  -0.01726   1.13841
   D19       -0.86180   0.00114   0.00000   0.00325   0.00321  -0.85859
   D20        1.22733  -0.00034   0.00000  -0.00885  -0.00884   1.21849
   D21       -3.02779   0.00022   0.00000  -0.00910  -0.00911  -3.03690
   D22        1.18484   0.00095   0.00000   0.00430   0.00428   1.18912
   D23       -3.00922  -0.00053   0.00000  -0.00780  -0.00777  -3.01699
   D24       -0.98115   0.00003   0.00000  -0.00805  -0.00805  -0.98920
   D25        2.98015   0.00016   0.00000  -0.03071  -0.03079   2.94936
   D26       -1.17283   0.00068   0.00000  -0.00545  -0.00550  -1.17833
   D27        0.90162  -0.00141   0.00000  -0.04114  -0.04110   0.86052
   D28        3.03183  -0.00089   0.00000  -0.01588  -0.01581   3.01602
   D29       -1.13758   0.00003   0.00000  -0.02497  -0.02496  -1.16254
   D30        0.99263   0.00055   0.00000   0.00030   0.00032   0.99295
   D31        1.07232   0.00006   0.00000   0.01562   0.01565   1.08797
   D32       -3.09637  -0.00039   0.00000   0.00413   0.00414  -3.09223
   D33       -1.04235   0.00031   0.00000   0.02302   0.02307  -1.01927
   D34       -1.08218   0.00018   0.00000  -0.00653  -0.00656  -1.08874
   D35        1.03231  -0.00028   0.00000  -0.01801  -0.01807   1.01424
   D36        3.08634   0.00043   0.00000   0.00087   0.00086   3.08720
   D37       -0.99525  -0.00044   0.00000  -0.03686  -0.03687  -1.03213
   D38        1.13283  -0.00071   0.00000  -0.04846  -0.04848   1.08435
   D39       -3.10309   0.00015   0.00000  -0.02650  -0.02650  -3.12959
   D40        1.13837  -0.00009   0.00000  -0.01173  -0.01173   1.12665
   D41       -3.01673  -0.00037   0.00000  -0.02334  -0.02333  -3.04006
   D42       -0.96946   0.00050   0.00000  -0.00138  -0.00135  -0.97082
         Item               Value     Threshold  Converged?
 Maximum Force            0.010297     0.000450     NO 
 RMS     Force            0.002374     0.000300     NO 
 Maximum Displacement     0.075382     0.001800     NO 
 RMS     Displacement     0.027317     0.001200     NO 
 Predicted change in Energy=-1.492410D-03
 GradGradGradGradGradGradGradGradGradGradGradGradGradGradGradGradGradGrad

                          Input orientation:                          
 ---------------------------------------------------------------------
 Center     Atomic      Atomic             Coordinates (Angstroms)
 Number     Number       Type             X           Y           Z
 ---------------------------------------------------------------------
      1          7           0        2.752689    0.470290    1.028068
      2          6           0        2.380921   -0.579691    0.065528
      3          6           0        1.072133   -0.253212   -0.662020
      4          6           0       -0.154274   -0.270647    0.257462
      5          7           0       -1.430748   -0.191266   -0.462856
      6          6           0       -2.545367   -0.472750    0.437842
      7          6           0       -1.621628    1.103706   -1.112009
      8          1           0        3.667342    0.249283    1.417310
      9          1           0        2.116164    0.438820    1.822225
     10          1           0        3.184861   -0.645459   -0.676354
     11          1           0        2.296836   -1.579916    0.525246
     12          1           0        0.916062   -0.992597   -1.457245
     13          1           0        1.181311    0.724857   -1.143974
     14          1           0       -0.154927   -1.216078    0.815176
     15          1           0       -0.076312    0.540205    1.008844
     16          1           0       -2.633301    0.258105    1.264052
     17          1           0       -3.486017   -0.459881   -0.121915
     18          1           0       -2.426031   -1.467257    0.879434
     19          1           0       -1.602977    1.949796   -0.398655
     20          1           0       -0.847414    1.277517   -1.863213
     21          1           0       -2.589325    1.116177   -1.622947
 ---------------------------------------------------------------------
                    Distance matrix (angstroms):
                    1          2          3          4          5
     1  N    0.000000
     2  C    1.472126   0.000000
     3  C    2.490807   1.532592   0.000000
     4  C    3.097298   2.561164   1.532914   0.000000
     5  N    4.490173   3.867672   2.511557   1.467837   0.000000
     6  C    5.413602   4.941495   3.787374   2.406389   1.460434
     7  C    4.910783   4.498980   3.049601   2.432576   1.461091
     8  H    1.018305   2.041909   3.363216   4.027446   5.451571
     9  H    1.018253   2.047791   2.782154   2.847230   4.266051
    10  H    2.082480   1.095916   2.148879   3.487451   4.642813
    11  H    2.159624   1.104021   2.160935   2.791744   4.098729
    12  H    3.419066   2.152938   1.097010   2.146404   2.671789
    13  H    2.692917   2.145648   1.095819   2.176888   2.850624
    14  H    3.367995   2.719832   2.148231   1.097673   2.076374
    15  H    2.829930   2.860421   2.177205   1.108212   2.129659
    16  H    5.395331   5.223101   4.207308   2.727339   2.151809
    17  H    6.411640   5.871155   4.594689   3.358608   2.100602
    18  H    5.531303   4.955502   4.010877   2.641894   2.102495
    19  H    4.816253   4.741857   3.475460   2.731226   2.148937
    20  H    4.687415   4.194212   2.733251   2.715607   2.111540
    21  H    5.998513   5.516363   4.025529   3.374714   2.097026
                    6          7          8          9         10
     6  C    0.000000
     7  C    2.395943   0.000000
     8  H    6.330754   5.924584   0.000000
     9  H    4.947459   4.798218   1.614321   0.000000
    10  H    5.840100   5.133392   2.327397   2.925862   0.000000
    11  H    4.967936   5.023624   2.453576   2.406262   1.762282
    12  H    3.980337   3.309614   4.168318   3.774139   2.424406
    13  H    4.221911   2.828607   3.600930   3.123157   2.471972
    14  H    2.531625   3.353603   4.137582   2.985078   3.701952
    15  H    2.729167   2.683943   3.777092   2.340688   3.857582
    16  H    1.106573   2.717386   6.302513   4.785565   6.199404
    17  H    1.094676   2.626982   7.351373   5.997648   6.696451
    18  H    1.094664   3.350038   6.353346   5.015328   5.880300
    19  H    2.730670   1.106838   5.828013   4.587741   5.453059
    20  H    3.352810   1.092669   5.674691   4.802985   4.622306
    21  H    2.602589   1.094372   7.010032   5.871086   6.110697
                   11         12         13         14         15
    11  H    0.000000
    12  H    2.486313   0.000000
    13  H    3.056579   1.765827   0.000000
    14  H    2.495512   2.522074   3.064479   0.000000
    15  H    3.218791   3.068530   2.500068   1.768677   0.000000
    16  H    5.313230   4.644102   4.535164   2.918398   2.585132
    17  H    5.925765   4.630896   4.922618   3.542053   3.728925
    18  H    4.737469   4.105478   4.681075   2.285855   3.093191
    19  H    5.340506   4.015451   3.131810   3.686868   2.509722
    20  H    4.874010   2.903115   2.222265   3.724423   3.063811
    21  H    5.979818   4.094156   3.821026   4.160547   3.684196
                   16         17         18         19         20
    16  H    0.000000
    17  H    1.778632   0.000000
    18  H    1.779821   1.772309   0.000000
    19  H    2.586113   3.070663   3.739944   0.000000
    20  H    3.742777   3.607340   4.189025   1.779822   0.000000
    21  H    3.012140   2.353957   3.600376   1.779521   1.765789
                   21
    21  H    0.000000
 Stoichiometry    C5H14N2
 Framework group  C1[X(C5H14N2)]
 Deg. of freedom    57
 Full point group                 C1      NOp   1
 Largest Abelian subgroup         C1      NOp   1
 Largest concise Abelian subgroup C1      NOp   1
                         Standard orientation:                         
 ---------------------------------------------------------------------
 Center     Atomic      Atomic             Coordinates (Angstroms)
 Number     Number       Type             X           Y           Z
 ---------------------------------------------------------------------
      1          7           0        2.799328   -0.178761    0.849547
      2          6           0        2.328433   -0.017992   -0.535937
      3          6           0        0.906421    0.550451   -0.595885
      4          6           0       -0.155305   -0.411162   -0.050115
      5          7           0       -1.532690    0.021786   -0.314521
      6          6           0       -2.474779   -1.050496   -0.005416
      7          6           0       -1.885367    1.231598    0.424912
      8          1           0        3.773745   -0.473998    0.832465
      9          1           0        2.299917   -0.950949    1.286760
     10          1           0        3.005838    0.684818   -1.034148
     11          1           0        2.365893   -0.954992   -1.118594
     12          1           0        0.660330    0.777143   -1.640625
     13          1           0        0.891197    1.497673   -0.045106
     14          1           0       -0.022509   -1.385674   -0.537533
     15          1           0        0.003410   -0.575245    1.034330
     16          1           0       -2.463946   -1.346191    1.060863
     17          1           0       -3.492269   -0.732497   -0.254227
     18          1           0       -2.239896   -1.937072   -0.602995
     19          1           0       -1.792862    1.108581    1.520996
     20          1           0       -1.250017    2.067941    0.123600
     21          1           0       -2.921715    1.504890    0.203678
 ---------------------------------------------------------------------
 Rotational constants (GHZ):           5.4176387           1.1468679           1.0849836
 Standard basis: 6-31G(d,p) (6D, 7F)
 There are   175 symmetry adapted cartesian basis functions of A   symmetry.
 There are   175 symmetry adapted basis functions of A   symmetry.
   175 basis functions,   294 primitive gaussians,   175 cartesian basis functions
    29 alpha electrons       29 beta electrons
       nuclear repulsion energy       328.5825841157 Hartrees.
 NAtoms=   21 NActive=   21 NUniq=   21 SFac= 1.00D+00 NAtFMM=   60 NAOKFM=F Big=F
 Integral buffers will be    131072 words long.
 Raffenetti 2 integral format.
 Two-electron integral symmetry is turned on.
 ------------------------------------------------------------------------------
 Polarizable Continuum Model (PCM)
 =================================
 Model                : PCM.
 Atomic radii         : UFF (Universal Force Field).
 Polarization charges : Total charges.
 Charge compensation  : None.
 Solution method      : Matrix inversion.
 Cavity type          : Scaled VdW (van der Waals Surface) (Alpha=1.100).
 Cavity algorithm     : GePol (No added spheres)
                        Default sphere list used, NSphG=   21.
                        Lebedev-Laikov grids with approx.  5.0 points / Ang**2.
                        Smoothing algorithm: York/Karplus (Gamma=1.0000).
                        Polarization charges: spherical gaussians, with
                                              point-specific exponents (IZeta= 3).
                        Self-potential: point-specific (ISelfS= 7).
                        Self-field    : sphere-specific E.n sum rule (ISelfD= 2).
 1st derivatives      : Analytical E(r).r(x)/FMM algorithm (CHGder, D1EAlg=3).
                        Cavity 1st derivative terms included.
 Solvent              : Water, Eps=  78.355300 Eps(inf)=   1.777849
 ------------------------------------------------------------------------------
 One-electron integrals computed using PRISM.
 NBasis=   175 RedAO= T EigKep=  3.55D-03  NBF=   175
 NBsUse=   175 1.00D-06 EigRej= -1.00D+00 NBFU=   175
 Initial guess from the checkpoint file:  "IUNMPGNGSSIWFP-UHFFFAOYSA-N_conf_0_0.chk"
 B after Tr=    -0.000000    0.000000    0.000000
         Rot=    0.999832    0.018335   -0.000255    0.000765 Ang=   2.10 deg.
 ExpMin= 1.61D-01 ExpMax= 4.17D+03 ExpMxC= 6.27D+02 IAcc=2 IRadAn=         4 AccDes= 0.00D+00
 Harris functional with IExCor=  402 and IRadAn=       4 diagonalized for initial guess.
 HarFok:  IExCor=  402 AccDes= 0.00D+00 IRadAn=         4 IDoV= 1 UseB2=F ITyADJ=14
 ICtDFT=  3500011 ScaDFX=  1.000000  1.000000  1.000000  1.000000
 FoFCou: FMM=F IPFlag=           0 FMFlag=      100000 FMFlg1=           0
         NFxFlg=           0 DoJE=T BraDBF=F KetDBF=T FulRan=T
         wScrn=  0.000000 ICntrl=       500 IOpCl=  0 I1Cent=   200000004 NGrid=           0
         NMat0=    1 NMatS0=      1 NMatT0=    0 NMatD0=    1 NMtDS0=    0 NMtDT0=    0
 Petite list used in FoFCou.
 Keep R1 ints in memory in canonical form, NReq=121590815.
 Requested convergence on RMS density matrix=1.00D-08 within  32 cycles.
 Requested convergence on MAX density matrix=1.00D-06.
 Requested convergence on             energy=1.00D-06.
 No special actions if energy rises.
 Inv3:  Mode=1 IEnd=     6482700.
 Iteration    1 A*A^-1 deviation from unit magnitude is 5.33D-15 for     55.
 Iteration    1 A*A^-1 deviation from orthogonality  is 3.90D-15 for   1414    466.
 Iteration    1 A^-1*A deviation from unit magnitude is 5.33D-15 for     55.
 Iteration    1 A^-1*A deviation from orthogonality  is 5.28D-15 for   1222    326.
 Error on total polarization charges =  0.00908
 SCF Done:  E(RB3LYP) =  -308.468631011     A.U. after    9 cycles
            NFock=  9  Conv=0.38D-08     -V/T= 2.0099
 QCSCF skips out because SCF is already converged.
 D1PCM: PCM CHGder 1st derivatives, ID1Alg=3 FixD1E=F DoIter=F DoCFld=F I1PDM=0.
 Calling FoFJK, ICntrl=      2127 FMM=F ISym2X=0 I1Cent= 0 IOpClX= 0 NMat=1 NMatS=1 NMatT=0.
 ***** Axes restored to original set *****
 -------------------------------------------------------------------
 Center     Atomic                   Forces (Hartrees/Bohr)
 Number     Number              X              Y              Z
 -------------------------------------------------------------------
      1        7           0.000012238    0.000830539    0.000161797
      2        6          -0.000011678   -0.000418613    0.000137545
      3        6           0.000058216    0.000018849   -0.000167844
      4        6           0.000142492   -0.000312051   -0.000317388
      5        7          -0.000101273    0.000310012    0.000214877
      6        6          -0.000068163   -0.000432033   -0.000252218
      7        6          -0.000037944   -0.000245872   -0.000421095
      8        1           0.000021397    0.000043151   -0.000017271
      9        1           0.000105464   -0.000068210    0.000096912
     10        1           0.000016704   -0.000025594    0.000001548
     11        1          -0.000144511   -0.000342558   -0.000292599
     12        1          -0.000051035   -0.000059427    0.000040154
     13        1           0.000007196   -0.000018340    0.000022281
     14        1          -0.000044861    0.000020271    0.000046550
     15        1           0.000080857    0.000177942    0.000205131
     16        1          -0.000057898    0.000161784    0.000194150
     17        1          -0.000011605    0.000083932   -0.000002989
     18        1           0.000058094    0.000024514    0.000066504
     19        1          -0.000056150    0.000219097    0.000155518
     20        1           0.000114761    0.000050917    0.000116467
     21        1          -0.000032302   -0.000018309    0.000011969
 -------------------------------------------------------------------
 Cartesian Forces:  Max     0.000830539 RMS     0.000192827

 GradGradGradGradGradGradGradGradGradGradGradGradGradGradGradGradGradGrad
 Berny optimization.
 Using GEDIIS/GDIIS optimizer.
 FormGI is forming the generalized inverse of G from B-inverse, IUseBI=4.
 Internal  Forces:  Max     0.000761516 RMS     0.000122582
 Search for a local minimum.
 Step number   2 out of a maximum of  108
 All quantities printed in internal units (Hartrees-Bohrs-Radians)
 Mixed Optimization -- En-DIIS/RFO-DIIS
 Update second derivatives using D2CorX and points    1    2
 DE= -1.52D-03 DEPred=-1.49D-03 R= 1.02D+00
 TightC=F SS=  1.41D+00  RLast= 1.82D-01 DXNew= 5.0454D-01 5.4725D-01
 Trust test= 1.02D+00 RLast= 1.82D-01 DXMaxT set to 5.05D-01
 ITU=  1  0
 Use linear search instead of GDIIS.
     Eigenvalues ---    0.00107   0.00207   0.00334   0.00364   0.00501
     Eigenvalues ---    0.00570   0.02415   0.03245   0.03420   0.03918
     Eigenvalues ---    0.04591   0.04625   0.04884   0.05090   0.06256
     Eigenvalues ---    0.06284   0.06331   0.06342   0.06995   0.08456
     Eigenvalues ---    0.08631   0.10163   0.12156   0.12401   0.13108
     Eigenvalues ---    0.13651   0.15047   0.15304   0.15484   0.16454
     Eigenvalues ---    0.16803   0.17389   0.18690   0.19492   0.20332
     Eigenvalues ---    0.23438   0.24312   0.27299   0.29717   0.31697
     Eigenvalues ---    0.31717   0.32009   0.32146   0.32691   0.32977
     Eigenvalues ---    0.33133   0.33282   0.33480   0.33547   0.33593
     Eigenvalues ---    0.33899   0.35567   0.35769   0.36446   0.37361
     Eigenvalues ---    0.43931   0.44314
 RFO step:  Lambda=-3.85456164D-05 EMin= 1.07402053D-03
 Quartic linear search produced a step of  0.05513.
 Iteration  1 RMS(Cart)=  0.03619614 RMS(Int)=  0.00041452
 Iteration  2 RMS(Cart)=  0.00074482 RMS(Int)=  0.00000424
 Iteration  3 RMS(Cart)=  0.00000028 RMS(Int)=  0.00000424
 Variable       Old X    -DE/DX   Delta X   Delta X   Delta X     New X
                                 (Linear)    (Quad)   (Total)
    R1        2.78191   0.00076   0.00134   0.00111   0.00245   2.78437
    R2        1.92432   0.00000  -0.00016   0.00025   0.00009   1.92441
    R3        1.92422   0.00001  -0.00004   0.00007   0.00003   1.92425
    R4        2.89618   0.00004   0.00018   0.00047   0.00065   2.89683
    R5        2.07098   0.00001   0.00003  -0.00016  -0.00014   2.07085
    R6        2.08630   0.00020   0.00087  -0.00044   0.00043   2.08672
    R7        2.89679   0.00002  -0.00020  -0.00015  -0.00034   2.89645
    R8        2.07305   0.00002  -0.00006   0.00006  -0.00000   2.07305
    R9        2.07080  -0.00002  -0.00007  -0.00026  -0.00033   2.07047
   R10        2.77381   0.00013  -0.00080   0.00110   0.00030   2.77411
   R11        2.07430   0.00001  -0.00003  -0.00022  -0.00024   2.07406
   R12        2.09422   0.00027   0.00112  -0.00042   0.00070   2.09492
   R13        2.75982   0.00009  -0.00054   0.00032  -0.00022   2.75960
   R14        2.76106   0.00008  -0.00041   0.00002  -0.00038   2.76068
   R15        2.09112   0.00025   0.00109  -0.00014   0.00095   2.09207
   R16        2.06864   0.00001  -0.00012   0.00023   0.00010   2.06874
   R17        2.06861   0.00001  -0.00012   0.00000  -0.00011   2.06850
   R18        2.09162   0.00027   0.00113  -0.00008   0.00105   2.09267
   R19        2.06485   0.00001  -0.00017   0.00002  -0.00016   2.06469
   R20        2.06806   0.00002  -0.00020   0.00034   0.00015   2.06821
    A1        1.89860   0.00002  -0.00034  -0.00031  -0.00066   1.89793
    A2        1.90714   0.00004  -0.00081   0.00096   0.00015   1.90729
    A3        1.83036  -0.00006  -0.00091  -0.00009  -0.00101   1.82935
    A4        1.95424  -0.00025  -0.00076   0.00008  -0.00068   1.95356
    A5        1.87566  -0.00001  -0.00080  -0.00042  -0.00123   1.87444
    A6        1.97486   0.00043   0.00347   0.00004   0.00351   1.97837
    A7        1.89429   0.00004  -0.00005  -0.00087  -0.00094   1.89335
    A8        1.90247  -0.00013  -0.00129   0.00131   0.00002   1.90249
    A9        1.85812  -0.00008  -0.00064  -0.00024  -0.00089   1.85723
   A10        1.97801   0.00003   0.00021  -0.00008   0.00012   1.97813
   A11        1.89868   0.00004   0.00075   0.00071   0.00146   1.90014
   A12        1.89003  -0.00005  -0.00060  -0.00060  -0.00119   1.88883
   A13        1.88949  -0.00006  -0.00091   0.00018  -0.00073   1.88876
   A14        1.93229   0.00001   0.00017   0.00007   0.00024   1.93253
   A15        1.87227   0.00003   0.00042  -0.00027   0.00015   1.87242
   A16        1.98316  -0.00006   0.00055  -0.00116  -0.00062   1.98254
   A17        1.89129   0.00002   0.00088  -0.00180  -0.00092   1.89037
   A18        1.91993   0.00002  -0.00029   0.00116   0.00087   1.92080
   A19        1.87067   0.00001  -0.00127   0.00199   0.00071   1.87138
   A20        1.93300   0.00004   0.00038   0.00035   0.00073   1.93372
   A21        1.86058  -0.00003  -0.00030  -0.00056  -0.00086   1.85973
   A22        1.92905   0.00009   0.00057   0.00251   0.00307   1.93211
   A23        1.96013   0.00001   0.00034   0.00045   0.00078   1.96091
   A24        1.92317   0.00002   0.00058  -0.00032   0.00024   1.92341
   A25        1.97559   0.00004   0.00098  -0.00064   0.00035   1.97593
   A26        1.91579  -0.00002  -0.00081   0.00034  -0.00047   1.91533
   A27        1.91845  -0.00001  -0.00068   0.00101   0.00034   1.91879
   A28        1.88151  -0.00004  -0.00057  -0.00058  -0.00115   1.88037
   A29        1.88336  -0.00003  -0.00047   0.00033  -0.00014   1.88322
   A30        1.88666   0.00008   0.00159  -0.00049   0.00110   1.88776
   A31        1.97030   0.00002   0.00069  -0.00114  -0.00045   1.96985
   A32        1.93250  -0.00002  -0.00054   0.00063   0.00009   1.93259
   A33        1.91033  -0.00001  -0.00100   0.00165   0.00065   1.91098
   A34        1.88552  -0.00004  -0.00057  -0.00054  -0.00111   1.88441
   A35        1.88293  -0.00003  -0.00026  -0.00005  -0.00031   1.88262
   A36        1.87942   0.00009   0.00176  -0.00057   0.00119   1.88061
    D1       -3.04957   0.00006   0.00078   0.02842   0.02920  -3.02037
    D2       -0.97095  -0.00004  -0.00026   0.02713   0.02688  -0.94407
    D3        1.07521   0.00010   0.00042   0.02658   0.02701   1.10222
    D4        1.24466   0.00010   0.00249   0.02819   0.03068   1.27533
    D5       -2.95990  -0.00000   0.00145   0.02690   0.02835  -2.93155
    D6       -0.91375   0.00014   0.00214   0.02635   0.02848  -0.88527
    D7       -1.17259  -0.00014  -0.00157  -0.00372  -0.00529  -1.17787
    D8        3.00793  -0.00011  -0.00107  -0.00440  -0.00547   3.00246
    D9        0.97845  -0.00014  -0.00165  -0.00413  -0.00577   0.97268
   D10        3.04299  -0.00001  -0.00007  -0.00269  -0.00276   3.04022
   D11        0.94032   0.00002   0.00042  -0.00336  -0.00294   0.93738
   D12       -1.08916  -0.00001  -0.00016  -0.00310  -0.00325  -1.09241
   D13        1.02594   0.00013   0.00143  -0.00263  -0.00121   1.02474
   D14       -1.07672   0.00016   0.00192  -0.00330  -0.00139  -1.07811
   D15       -3.10620   0.00013   0.00135  -0.00304  -0.00170  -3.10790
   D16       -2.96646  -0.00004  -0.00027  -0.03484  -0.03511  -3.00157
   D17       -0.88938  -0.00005  -0.00094  -0.03430  -0.03523  -0.92461
   D18        1.13841  -0.00006  -0.00095  -0.03535  -0.03630   1.10211
   D19       -0.85859  -0.00001   0.00018  -0.03387  -0.03370  -0.89228
   D20        1.21849  -0.00001  -0.00049  -0.03333  -0.03381   1.18468
   D21       -3.03690  -0.00003  -0.00050  -0.03438  -0.03488  -3.07179
   D22        1.18912  -0.00000   0.00024  -0.03406  -0.03382   1.15529
   D23       -3.01699  -0.00001  -0.00043  -0.03351  -0.03394  -3.05093
   D24       -0.98920  -0.00003  -0.00044  -0.03456  -0.03501  -1.02421
   D25        2.94936  -0.00011  -0.00170  -0.03157  -0.03327   2.91609
   D26       -1.17833  -0.00001  -0.00030  -0.02981  -0.03012  -1.20845
   D27        0.86052  -0.00011  -0.00227  -0.02997  -0.03224   0.82829
   D28        3.01602  -0.00001  -0.00087  -0.02822  -0.02908   2.98693
   D29       -1.16254  -0.00010  -0.00138  -0.03063  -0.03201  -1.19455
   D30        0.99295   0.00000   0.00002  -0.02887  -0.02885   0.96410
   D31        1.08797   0.00006   0.00086  -0.00052   0.00035   1.08832
   D32       -3.09223   0.00001   0.00023  -0.00145  -0.00122  -3.09344
   D33       -1.01927   0.00008   0.00127  -0.00122   0.00005  -1.01922
   D34       -1.08874  -0.00003  -0.00036  -0.00263  -0.00300  -1.09174
   D35        1.01424  -0.00008  -0.00100  -0.00356  -0.00456   1.00968
   D36        3.08720  -0.00001   0.00005  -0.00334  -0.00329   3.08391
   D37       -1.03213  -0.00013  -0.00203  -0.01970  -0.02173  -1.05386
   D38        1.08435  -0.00018  -0.00267  -0.02074  -0.02342   1.06093
   D39       -3.12959  -0.00010  -0.00146  -0.02003  -0.02149   3.13210
   D40        1.12665   0.00001  -0.00065  -0.01637  -0.01702   1.10963
   D41       -3.04006  -0.00005  -0.00129  -0.01742  -0.01870  -3.05876
   D42       -0.97082   0.00004  -0.00007  -0.01670  -0.01678  -0.98759
         Item               Value     Threshold  Converged?
 Maximum Force            0.000762     0.000450     NO 
 RMS     Force            0.000123     0.000300     YES
 Maximum Displacement     0.111137     0.001800     NO 
 RMS     Displacement     0.036330     0.001200     NO 
 Predicted change in Energy=-2.346926D-05
 GradGradGradGradGradGradGradGradGradGradGradGradGradGradGradGradGradGrad

                          Input orientation:                          
 ---------------------------------------------------------------------
 Center     Atomic      Atomic             Coordinates (Angstroms)
 Number     Number       Type             X           Y           Z
 ---------------------------------------------------------------------
      1          7           0        2.750610    0.499215    0.999821
      2          6           0        2.379805   -0.586587    0.075420
      3          6           0        1.070142   -0.287580   -0.663009
      4          6           0       -0.156803   -0.280060    0.255588
      5          7           0       -1.430915   -0.180560   -0.466734
      6          6           0       -2.551665   -0.482502    0.419428
      7          6           0       -1.616957    1.128827   -1.087291
      8          1           0        3.677617    0.307199    1.375094
      9          1           0        2.132641    0.477718    1.808845
     10          1           0        3.183231   -0.675669   -0.664476
     11          1           0        2.298289   -1.571721    0.567586
     12          1           0        0.915817   -1.051408   -1.435135
     13          1           0        1.177407    0.675341   -1.174587
     14          1           0       -0.173777   -1.223604    0.815978
     15          1           0       -0.065196    0.531152    1.005589
     16          1           0       -2.643856    0.227511    1.263820
     17          1           0       -3.488655   -0.451903   -0.145861
     18          1           0       -2.437439   -1.488121    0.836369
     19          1           0       -1.620283    1.956884   -0.352017
     20          1           0       -0.826770    1.327588   -1.815196
     21          1           0       -2.573242    1.148280   -1.619232
 ---------------------------------------------------------------------
                    Distance matrix (angstroms):
                    1          2          3          4          5
     1  N    0.000000
     2  C    1.473424   0.000000
     3  C    2.491590   1.532938   0.000000
     4  C    3.100678   2.561406   1.532733   0.000000
     5  N    4.483083   3.870449   2.511028   1.467996   0.000000
     6  C    5.423536   4.944550   3.785122   2.408981   1.460319
     7  C    4.881402   4.502071   3.067038   2.433174   1.460889
     8  H    1.018352   2.042626   3.362522   4.037443   5.452278
     9  H    1.018267   2.049048   2.797257   2.868517   4.279079
    10  H    2.082642   1.095844   2.148432   3.486954   4.644844
    11  H    2.163376   1.104247   2.161418   2.791632   4.112433
    12  H    3.420513   2.154321   1.097009   2.145702   2.683902
    13  H    2.689617   2.144934   1.095644   2.176766   2.834954
    14  H    3.399109   2.734045   2.147296   1.097543   2.076942
    15  H    2.815993   2.844747   2.177965   1.108584   2.130601
    16  H    5.407752   5.226109   4.215657   2.731225   2.152339
    17  H    6.414487   5.874175   4.590977   3.360346   2.100209
    18  H    5.558064   4.959602   3.999069   2.645377   2.102589
    19  H    4.801768   4.759481   3.517488   2.741328   2.148881
    20  H    4.626896   4.185764   2.744918   2.705833   2.111362
    21  H    5.968595   5.514915   4.031166   3.375542   2.097374
                    6          7          8          9         10
     6  C    0.000000
     7  C    2.395884   0.000000
     8  H    6.351447   5.896687   0.000000
     9  H    4.979481   4.782366   1.613743   0.000000
    10  H    5.839622   5.145559   2.317390   2.924271   0.000000
    11  H    4.972967   5.035943   2.466770   2.401742   1.761819
    12  H    3.973222   3.359965   4.167822   3.787122   2.424100
    13  H    4.217518   2.832267   3.589910   3.138853   2.471593
    14  H    2.522070   3.352482   4.182010   3.033125   3.709647
    15  H    2.748383   2.673074   3.767669   2.340632   3.846792
    16  H    1.107075   2.719304   6.322954   4.813998   6.203950
    17  H    1.094732   2.624548   7.365120   6.023623   6.695751
    18  H    1.094604   3.349937   6.395882   5.069109   5.874056
    19  H    2.722720   1.107392   5.811379   4.576210   5.486503
    20  H    3.353391   1.092587   5.613256   4.755424   4.627883
    21  H    2.610756   1.094450   6.981880   5.860606   6.113536
                   11         12         13         14         15
    11  H    0.000000
[...]
    21  H   -0.180832   0.000000   0.000007   0.000001   0.000003   0.000838
              13         14         15         16         17         18
     1  N   -0.000028  -0.005465  -0.008735  -0.000012  -0.000000  -0.000009
     2  C   -0.020709  -0.005257   0.001256   0.000024   0.000007   0.000009
     3  C    0.261243  -0.001306  -0.019269   0.001125  -0.000017   0.002330
     4  C   -0.084172  -0.203533  -0.098633  -0.044950  -0.001630  -0.073351
     5  N   -0.012069  -0.108587  -0.089543  -0.076730  -0.099499  -0.100742
     6  C    0.000951  -0.047407  -0.011782   0.036968  -0.058438  -0.133532
     7  C   -0.013974   0.009123  -0.021228  -0.024705  -0.045820   0.004139
     8  H    0.001177   0.000731   0.001378   0.000001   0.000000   0.000001
     9  H    0.003429   0.011130   0.026184   0.000127   0.000004   0.000090
    10  H   -0.001335   0.000960   0.000607   0.000001   0.000000   0.000002
    11  H    0.009430   0.020141   0.004056   0.000017   0.000003   0.000115
    12  H   -0.012797   0.013798   0.011267   0.000138   0.000197   0.000853
    13  H    0.700934   0.019028   0.023964   0.000367   0.000163   0.000338
    14  H    0.019028   1.036676   0.125809   0.027018   0.009912   0.096908
    15  H    0.023964   0.125809   0.872605   0.038001   0.005676   0.022011
    16  H    0.000367   0.027018   0.038001   0.709400   0.077902   0.090643
    17  H    0.000163   0.009912   0.005676   0.077902   0.856772   0.109032
    18  H    0.000338   0.096908   0.022011   0.090643   0.109032   0.935563
    19  H    0.008163   0.006315   0.044224   0.031078   0.017365   0.005229
    20  H    0.035371   0.005363   0.018339   0.003812   0.005592   0.001404
    21  H    0.002902   0.002655   0.007699   0.021900   0.076809   0.009328
              19         20         21
     1  N   -0.000055  -0.000067  -0.000001
     2  C    0.000160   0.000750   0.000028
     3  C   -0.003110  -0.023304  -0.001671
     4  C   -0.016922  -0.005163   0.008368
     5  N   -0.079318  -0.083479  -0.116484
     6  C   -0.008733   0.009079  -0.028088
     7  C    0.034472   0.049429  -0.180832
     8  H    0.000004   0.000008   0.000000
     9  H    0.000219   0.000134   0.000007
    10  H    0.000007   0.000079   0.000001
    11  H    0.000015   0.000058   0.000003
    12  H    0.000656   0.006894   0.000838
    13  H    0.008163   0.035371   0.002902
    14  H    0.006315   0.005363   0.002655
    15  H    0.044224   0.018339   0.007699
    16  H    0.031078   0.003812   0.021900
    17  H    0.017365   0.005592   0.076809
    18  H    0.005229   0.001404   0.009328
    19  H    0.700661   0.059266   0.097215
    20  H    0.059266   0.741061   0.092335
    21  H    0.097215   0.092335   0.996115
 Mulliken charges:
               1
     1  N   -0.630449
     2  C   -0.058873
     3  C   -0.178286
     4  C    0.039758
     5  N   -0.189964
     6  C   -0.119302
     7  C   -0.108432
     8  H    0.240369
     9  H    0.227819
    10  H    0.105030
    11  H    0.080272
    12  H    0.101837
    13  H    0.077625
    14  H   -0.014009
    15  H    0.046114
    16  H    0.107878
    17  H    0.045970
    18  H    0.029640
    19  H    0.103089
    20  H    0.083039
    21  H    0.010875
 Sum of Mulliken charges =  -0.00000
 Mulliken charges with hydrogens summed into heavy atoms:
               1
     1  N   -0.162261
     2  C    0.126429
     3  C    0.001176
     4  C    0.071863
     5  N   -0.189964
     6  C    0.064186
     7  C    0.088571
 Electronic spatial extent (au):  <R**2>=           1189.5982
 Charge=              0.0000 electrons
 Dipole moment (field-independent basis, Debye):
    X=              0.0210    Y=             -0.7649    Z=             -0.6025  Tot=              0.9739
 Quadrupole moment (field-independent basis, Debye-Ang):
   XX=            -47.2244   YY=            -49.1696   ZZ=            -49.3429
   XY=             -3.2157   XZ=             -2.9575   YZ=             -2.8933
 Traceless Quadrupole moment (field-independent basis, Debye-Ang):
   XX=              1.3546   YY=             -0.5906   ZZ=             -0.7639
   XY=             -3.2157   XZ=             -2.9575   YZ=             -2.8933
 Octapole moment (field-independent basis, Debye-Ang**2):
  XXX=             39.7149  YYY=              3.4002  ZZZ=             -1.3138  XYY=              4.0442
  XXY=            -14.7410  XXZ=             -1.0446  XZZ=              0.9549  YZZ=             -0.9105
  YYZ=              3.6898  XYZ=             -5.6085
 Hexadecapole moment (field-independent basis, Debye-Ang**3):
 XXXX=          -1171.9227 YYYY=           -265.2123 ZZZZ=           -168.0691 XXXY=            -16.9751
 XXXZ=             -1.9295 YYYX=             -6.3212 YYYZ=             -5.8389 ZZZX=              0.6487
 ZZZY=             -7.4396 XXYY=           -244.4779 XXZZ=           -235.8367 YYZZ=            -70.1331
 XXYZ=            -19.4146 YYXZ=             -2.6611 ZZXY=             -8.8457
 N-N= 3.284816193133D+02 E-N=-1.370255158474D+03  KE= 3.055974762792D+02
 Evaluate density.
 Using the total density.
 Monte-Carlo method of calculating molar volume:
 based on  0.001 e/bohr**3 density envelope.
 Number of points per bohr**3 =   20 CutOff= 1.00D-04
 Using the CI density.
 There are       358 points.  Will hold       358 in memory.
 LenV=   805211486 MDV=   805306368.
 Box volume = 5743.738 fraction occupied=0.218
 Integrated density= 3.5891062394682159D+01 error=-2.2108937605317841D+01
 Molar volume = 1251.429 bohr**3/mol (111.676 cm**3/mol)
 Recommended a0 for SCRF calculation =  4.39 angstrom (  8.30 bohr)
 ******************************Gaussian NBO Version 3.1******************************
             N A T U R A L   A T O M I C   O R B I T A L   A N D
          N A T U R A L   B O N D   O R B I T A L   A N A L Y S I S
 ******************************Gaussian NBO Version 3.1******************************
       /RESON  / : Allow strongly delocalized NBO set

 Analyzing the CI density

 Job title: IUNMPGNGSSIWFP-UHFFFAOYSA-N_conf_0                              

 Storage needed:     93394 in NPA ( 805303953 available)
 GSVD:  LWork=       15841 too small for GESVD, short by       12971 words or       12971 for optimal perf.


 NATURAL POPULATIONS:  Natural atomic orbital occupancies 
                                                          
   NAO  Atom  No  lang   Type(AO)    Occupancy
 --------------------------------------------
     1    N    1  S      Cor( 1S)     1.99968
     2    N    1  S      Val( 2S)     1.45172
     3    N    1  S      Ryd( 3S)     0.00078
     4    N    1  S      Ryd( 4S)     0.00002
     5    N    1  px     Val( 2p)     1.37823
     6    N    1  px     Ryd( 3p)     0.00198
     7    N    1  py     Val( 2p)     1.70885
     8    N    1  py     Ryd( 3p)     0.00463
     9    N    1  pz     Val( 2p)     1.37942
    10    N    1  pz     Ryd( 3p)     0.00276
    11    N    1  dxy    Ryd( 3d)     0.00108
    12    N    1  dxz    Ryd( 3d)     0.00032
    13    N    1  dyz    Ryd( 3d)     0.00114
    14    N    1  dx2y2  Ryd( 3d)     0.00106
    15    N    1  dz2    Ryd( 3d)     0.00102

    16    C    2  S      Cor( 1S)     1.99936
    17    C    2  S      Val( 2S)     1.02057
    18    C    2  S      Ryd( 3S)     0.00188
    19    C    2  S      Ryd( 4S)     0.00003
    20    C    2  px     Val( 2p)     1.07267
    21    C    2  px     Ryd( 3p)     0.00191
    22    C    2  py     Val( 2p)     1.21201
    23    C    2  py     Ryd( 3p)     0.00307
    24    C    2  pz     Val( 2p)     0.94361
    25    C    2  pz     Ryd( 3p)     0.00251
    26    C    2  dxy    Ryd( 3d)     0.00069
    27    C    2  dxz    Ryd( 3d)     0.00089
    28    C    2  dyz    Ryd( 3d)     0.00140
    29    C    2  dx2y2  Ryd( 3d)     0.00068
    30    C    2  dz2    Ryd( 3d)     0.00120

    31    C    3  S      Cor( 1S)     1.99931
    32    C    3  S      Val( 2S)     1.04500
    33    C    3  S      Ryd( 3S)     0.00099
    34    C    3  S      Ryd( 4S)     0.00002
    35    C    3  px     Val( 2p)     1.04634
    36    C    3  px     Ryd( 3p)     0.00358
    37    C    3  py     Val( 2p)     1.17154
    38    C    3  py     Ryd( 3p)     0.00285
    39    C    3  pz     Val( 2p)     1.22284
    40    C    3  pz     Ryd( 3p)     0.00416
    41    C    3  dxy    Ryd( 3d)     0.00063
    42    C    3  dxz    Ryd( 3d)     0.00039
    43    C    3  dyz    Ryd( 3d)     0.00054
    44    C    3  dx2y2  Ryd( 3d)     0.00067
    45    C    3  dz2    Ryd( 3d)     0.00079

    46    C    4  S      Cor( 1S)     1.99927
    47    C    4  S      Val( 2S)     1.06118
    48    C    4  S      Ryd( 3S)     0.00300
    49    C    4  S      Ryd( 4S)     0.00005
    50    C    4  px     Val( 2p)     0.84815
    51    C    4  px     Ryd( 3p)     0.00658
    52    C    4  py     Val( 2p)     1.18681
    53    C    4  py     Ryd( 3p)     0.00431
    54    C    4  pz     Val( 2p)     1.21975
    55    C    4  pz     Ryd( 3p)     0.00353
    56    C    4  dxy    Ryd( 3d)     0.00086
    57    C    4  dxz    Ryd( 3d)     0.00053
    58    C    4  dyz    Ryd( 3d)     0.00058
    59    C    4  dx2y2  Ryd( 3d)     0.00121
    60    C    4  dz2    Ryd( 3d)     0.00102

    61    N    5  S      Cor( 1S)     1.99931
    62    N    5  S      Val( 2S)     1.31368
    63    N    5  S      Ryd( 3S)     0.00202
    64    N    5  S      Ryd( 4S)     0.00014
    65    N    5  px     Val( 2p)     1.29108
    66    N    5  px     Ryd( 3p)     0.00053
    67    N    5  py     Val( 2p)     1.28322
    68    N    5  py     Ryd( 3p)     0.00061
    69    N    5  pz     Val( 2p)     1.13354
    70    N    5  pz     Ryd( 3p)     0.00112
    71    N    5  dxy    Ryd( 3d)     0.00085
    72    N    5  dxz    Ryd( 3d)     0.00079
    73    N    5  dyz    Ryd( 3d)     0.00091
    74    N    5  dx2y2  Ryd( 3d)     0.00078
    75    N    5  dz2    Ryd( 3d)     0.00053

    76    C    6  S      Cor( 1S)     1.99943
    77    C    6  S      Val( 2S)     1.13064
    78    C    6  S      Ryd( 3S)     0.00191
    79    C    6  S      Ryd( 4S)     0.00007
    80    C    6  px     Val( 2p)     1.11237
    81    C    6  px     Ryd( 3p)     0.00706
    82    C    6  py     Val( 2p)     1.07467
    83    C    6  py     Ryd( 3p)     0.01024
    84    C    6  pz     Val( 2p)     1.22944
    85    C    6  pz     Ryd( 3p)     0.00216
    86    C    6  dxy    Ryd( 3d)     0.00129
    87    C    6  dxz    Ryd( 3d)     0.00037
    88    C    6  dyz    Ryd( 3d)     0.00066
    89    C    6  dx2y2  Ryd( 3d)     0.00065
    90    C    6  dz2    Ryd( 3d)     0.00084

    91    C    7  S      Cor( 1S)     1.99941
    92    C    7  S      Val( 2S)     1.13626
    93    C    7  S      Ryd( 3S)     0.00195
    94    C    7  S      Ryd( 4S)     0.00005
    95    C    7  px     Val( 2p)     1.25446
    96    C    7  px     Ryd( 3p)     0.00396
    97    C    7  py     Val( 2p)     0.99686
    98    C    7  py     Ryd( 3p)     0.00907
    99    C    7  pz     Val( 2p)     1.15133
   100    C    7  pz     Ryd( 3p)     0.00329
   101    C    7  dxy    Ryd( 3d)     0.00084
   102    C    7  dxz    Ryd( 3d)     0.00037
   103    C    7  dyz    Ryd( 3d)     0.00100
   104    C    7  dx2y2  Ryd( 3d)     0.00088
   105    C    7  dz2    Ryd( 3d)     0.00077

   106    H    8  S      Val( 1S)     0.61352
   107    H    8  S      Ryd( 2S)     0.00495
   108    H    8  px     Ryd( 2p)     0.00054
   109    H    8  py     Ryd( 2p)     0.00053
   110    H    8  pz     Ryd( 2p)     0.00033

   111    H    9  S      Val( 1S)     0.62621
   112    H    9  S      Ryd( 2S)     0.00883
   113    H    9  px     Ryd( 2p)     0.00036
   114    H    9  py     Ryd( 2p)     0.00067
   115    H    9  pz     Ryd( 2p)     0.00038

   116    H   10  S      Val( 1S)     0.76274
   117    H   10  S      Ryd( 2S)     0.00199
   118    H   10  px     Ryd( 2p)     0.00021
   119    H   10  py     Ryd( 2p)     0.00021
   120    H   10  pz     Ryd( 2p)     0.00014

   121    H   11  S      Val( 1S)     0.79368
   122    H   11  S      Ryd( 2S)     0.00533
   123    H   11  px     Ryd( 2p)     0.00011
   124    H   11  py     Ryd( 2p)     0.00033
   125    H   11  pz     Ryd( 2p)     0.00014

   126    H   12  S      Val( 1S)     0.75078
   127    H   12  S      Ryd( 2S)     0.00461
   128    H   12  px     Ryd( 2p)     0.00011
   129    H   12  py     Ryd( 2p)     0.00010
   130    H   12  pz     Ryd( 2p)     0.00034

   131    H   13  S      Val( 1S)     0.76492
   132    H   13  S      Ryd( 2S)     0.01484
   133    H   13  px     Ryd( 2p)     0.00011
   134    H   13  py     Ryd( 2p)     0.00029
   135    H   13  pz     Ryd( 2p)     0.00015

   136    H   14  S      Val( 1S)     0.80052
   137    H   14  S      Ryd( 2S)     0.04583
   138    H   14  px     Ryd( 2p)     0.00007
   139    H   14  py     Ryd( 2p)     0.00030
   140    H   14  pz     Ryd( 2p)     0.00013

   141    H   15  S      Val( 1S)     0.75581
   142    H   15  S      Ryd( 2S)     0.04524
   143    H   15  px     Ryd( 2p)     0.00008
   144    H   15  py     Ryd( 2p)     0.00010
   145    H   15  pz     Ryd( 2p)     0.00036

   146    H   16  S      Val( 1S)     0.73496
   147    H   16  S      Ryd( 2S)     0.02738
   148    H   16  px     Ryd( 2p)     0.00009
   149    H   16  py     Ryd( 2p)     0.00012
   150    H   16  pz     Ryd( 2p)     0.00032

   151    H   17  S      Val( 1S)     0.78158
   152    H   17  S      Ryd( 2S)     0.03096
   153    H   17  px     Ryd( 2p)     0.00032
   154    H   17  py     Ryd( 2p)     0.00009
   155    H   17  pz     Ryd( 2p)     0.00007

   156    H   18  S      Val( 1S)     0.79418
   157    H   18  S      Ryd( 2S)     0.03415
   158    H   18  px     Ryd( 2p)     0.00008
   159    H   18  py     Ryd( 2p)     0.00027
   160    H   18  pz     Ryd( 2p)     0.00014

   161    H   19  S      Val( 1S)     0.73289
   162    H   19  S      Ryd( 2S)     0.03036
   163    H   19  px     Ryd( 2p)     0.00009
   164    H   19  py     Ryd( 2p)     0.00010
   165    H   19  pz     Ryd( 2p)     0.00035

   166    H   20  S      Val( 1S)     0.77133
   167    H   20  S      Ryd( 2S)     0.01892
   168    H   20  px     Ryd( 2p)     0.00016
   169    H   20  py     Ryd( 2p)     0.00025
   170    H   20  pz     Ryd( 2p)     0.00007

   171    H   21  S      Val( 1S)     0.80231
   172    H   21  S      Ryd( 2S)     0.03903
   173    H   21  px     Ryd( 2p)     0.00031
   174    H   21  py     Ryd( 2p)     0.00010
   175    H   21  pz     Ryd( 2p)     0.00006


 Summary of Natural Population Analysis:                  
                                                          
                                       Natural Population 
                Natural  -----------------------------------------------
    Atom  No    Charge         Core      Valence    Rydberg      Total
 -----------------------------------------------------------------------
      N    1   -0.93269      1.99968     5.91823    0.01478     7.93269
      C    2   -0.26248      1.99936     4.24887    0.01425     6.26248
      C    3   -0.49967      1.99931     4.48572    0.01464     6.49967
      C    4   -0.33683      1.99927     4.31590    0.02167     6.33683
      N    5   -0.02911      1.99931     5.02151    0.00829     7.02911
      C    6   -0.57181      1.99943     4.54712    0.02525     6.57181
      C    7   -0.56050      1.99941     4.53891    0.02219     6.56050
      H    8    0.38012      0.00000     0.61352    0.00636     0.61988
      H    9    0.36355      0.00000     0.62621    0.01024     0.63645
      H   10    0.23471      0.00000     0.76274    0.00254     0.76529
      H   11    0.20041      0.00000     0.79368    0.00590     0.79959
      H   12    0.24406      0.00000     0.75078    0.00516     0.75594
      H   13    0.21969      0.00000     0.76492    0.01539     0.78031
      H   14    0.15316      0.00000     0.80052    0.04632     0.84684
      H   15    0.19841      0.00000     0.75581    0.04579     0.80159
      H   16    0.23713      0.00000     0.73496    0.02791     0.76287
      H   17    0.18698      0.00000     0.78158    0.03144     0.81302
      H   18    0.17119      0.00000     0.79418    0.03463     0.82881
      H   19    0.23622      0.00000     0.73289    0.03089     0.76378
      H   20    0.20927      0.00000     0.77133    0.01940     0.79073
      H   21    0.15818      0.00000     0.80231    0.03950     0.84182
 =======================================================================
   * Total *   -0.00000     13.99577    43.56169    0.44255    58.00000

                                 Natural Population      
 --------------------------------------------------------
   Core                      13.99577 ( 99.9698% of  14)
   Valence                   43.56169 ( 99.0038% of  44)
   Natural Minimal Basis     57.55745 ( 99.2370% of  58)
   Natural Rydberg Basis      0.44255 (  0.7630% of  58)
 --------------------------------------------------------

    Atom  No          Natural Electron Configuration
 ----------------------------------------------------------------------------
      N    1      [core]2S( 1.45)2p( 4.47)3p( 0.01)
      C    2      [core]2S( 1.02)2p( 3.23)3p( 0.01)
      C    3      [core]2S( 1.05)2p( 3.44)3p( 0.01)
      C    4      [core]2S( 1.06)2p( 3.25)3p( 0.01)
      N    5      [core]2S( 1.31)2p( 3.71)
      C    6      [core]2S( 1.13)2p( 3.42)3p( 0.02)
      C    7      [core]2S( 1.14)2p( 3.40)3p( 0.02)
      H    8            1S( 0.61)
      H    9            1S( 0.63)2S( 0.01)
      H   10            1S( 0.76)
      H   11            1S( 0.79)2S( 0.01)
      H   12            1S( 0.75)
      H   13            1S( 0.76)2S( 0.01)
      H   14            1S( 0.80)2S( 0.05)
      H   15            1S( 0.76)2S( 0.05)
      H   16            1S( 0.73)2S( 0.03)
      H   17            1S( 0.78)2S( 0.03)
      H   18            1S( 0.79)2S( 0.03)
      H   19            1S( 0.73)2S( 0.03)
      H   20            1S( 0.77)2S( 0.02)
      H   21            1S( 0.80)2S( 0.04)


 NBO analysis skipped by request.
 1\1\GINC-CN11\SP\RB3LYP TD-FC\6-31G(d,p)\C5H14N2\QDUEZ\11-Jul-2024\0\\
 # TD(NStates=10, Root=1) B3LYP/6-31G** SCRF=(Solvent=water) volume pop
 =NPA density=current Geom=AllCheck Guess=Read\\IUNMPGNGSSIWFP-UHFFFAOY
 SA-N_conf_0\\0,1\N,0,2.7508404712,0.4809947893,1.0175402046\C,0,2.3799
 966211,-0.5847630959,0.0702749907\C,0,1.0713078396,-0.2689476778,-0.66
 26249198\C,0,-0.154687122,-0.2704022097,0.2575498971\N,0,-1.4305958898
 ,-0.1836640771,-0.4630173969\C,0,-2.5483688235,-0.4779804062,0.4292964
 03\C,0,-1.6221622418,1.116122825,-1.1015778572\H,0,3.6765728425,0.2795
 28268,1.3909261136\H,0,2.1307860701,0.4447068202,1.8244380993\H,0,3.18
 40207953,-0.6596543741,-0.6705833394\H,0,2.2964638463,-1.5797395117,0.
 5418445651\H,0,0.9135908854,-1.020798938,-1.4457853664\H,0,1.181955316
 9,0.7014715315,-1.1594775566\H,0,-0.1634239894,-1.2129240403,0.8200003
 343\H,0,-0.068336925,0.543135278,1.0056591505\H,0,-2.6423918201,0.2437
 264287,1.2635373329\H,0,-3.4865186274,-0.4601090952,-0.1346089836\H,0,
 -2.4286008964,-1.4768754639,0.8606629245\H,0,-1.6253899451,1.954883896
 6,-0.3785585501\H,0,-0.8348065107,1.3060720412,-1.834911895\H,0,-2.580
 2518973,1.1252170113,-1.6305841506\\Version=EM64L-G16RevA.03\State=1-A
 \HF=-308.4686531\RMSD=6.780e-10\Dipole=-0.0269472,-0.3656837,0.1111725
 \Quadrupole=0.483744,-2.2278868,1.7441428,-3.3839734,0.592579,0.143575
 5\PG=C01 [X(C5H14N2)]\\@


 IT IS WELL TO REMEMBER THAT MAN IS A PART OF NATURE AND THAT HIS WORKS,
 WHATEVER THEY MAY BE, ARE NO MORE "UNNATURAL" THAN 
 THE FLIGHT OF AN EAGLE OR THE PASSAGE OF A TORNADO.

                                    -- CHARLES MCCARRY IN "THE GREAT SOUTHWEST"
 Job cpu time:       0 days  0 hours 33 minutes 14.9 seconds.
 Elapsed time:       0 days  0 hours 15 minutes 21.3 seconds.
 File lengths (MBytes):  RWF=    305 Int=      0 D2E=      0 Chk=     19 Scr=      1
 Normal termination of Gaussian 16 at Thu Jul 11 20:03:37 2024.
