 Entering Gaussian System, Link 0=g16
 Initial command:
 /opt/sw/arch/manual/gaussian/G16_A03/g16/l1.exe "/scratch/1381579/Gau-101753.inp" -scrdir="/scratch/1381579/"
 Entering Link 1 = /opt/sw/arch/manual/gaussian/G16_A03/g16/l1.exe PID=    101754.
  
 Copyright (c) 1988,1990,1992,1993,1995,1998,2003,2009,2016,
            Gaussian, Inc.  All Rights Reserved.
  
 This is part of the Gaussian(R) 16 program.  It is based on
 the Gaussian(R) 09 system (copyright 2009, Gaussian, Inc.),
 the Gaussian(R) 03 system (copyright 2003, Gaussian, Inc.),
 the Gaussian(R) 98 system (copyright 1998, Gaussian, Inc.),
 the Gaussian(R) 94 system (copyright 1995, Gaussian, Inc.),
 the Gaussian 92(TM) system (copyright 1992, Gaussian, Inc.),
 the Gaussian 90(TM) system (copyright 1990, Gaussian, Inc.),
 the Gaussian 88(TM) system (copyright 1988, Gaussian, Inc.),
 the Gaussian 86(TM) system (copyright 1986, Carnegie Mellon
 University), and the Gaussian 82(TM) system (copyright 1983,
 Carnegie Mellon University). Gaussian is a federally registered
 trademark of Gaussian, Inc.
  
 This software contains proprietary and confidential information,
 including trade secrets, belonging to Gaussian, Inc.
  
 This software is provided under written license and may be
 used, copied, transmitted, or stored only in accord with that
 written license.
  
 The following legend is applicable only to US Government
 contracts under FAR:
  
                    RESTRICTED RIGHTS LEGEND
  
 Use, reproduction and disclosure by the US Government is
 subject to restrictions as set forth in subparagraphs (a)
 and (c) of the Commercial Computer Software - Restricted
 Rights clause in FAR 52.227-19.
  
 Gaussian, Inc.
 340 Quinnipiac St., Bldg. 40, Wallingford CT 06492
  
  
 ---------------------------------------------------------------
 Warning -- This program may not be used in any manner that
 competes with the business of Gaussian, Inc. or will provide
 assistance to any competitor of Gaussian, Inc.  The licensee
 of this program is prohibited from giving any competitor of
 Gaussian, Inc. access to this program.  By using this program,
 the user acknowledges that Gaussian, Inc. is engaged in the
 business of creating and licensing software in the field of
 computational chemistry and represents and warrants to the
 licensee that it is not a competitor of Gaussian, Inc. and that
 it will not use this program in any manner prohibited above.
 ---------------------------------------------------------------
  

 Cite this work as:
 Gaussian 16, Revision A.03,
 M. J. Frisch, G. W. Trucks, H. B. Schlegel, G. E. Scuseria, 
 M. A. Robb, J. R. Cheeseman, G. Scalmani, V. Barone, 
 G. A. Petersson, H. Nakatsuji, X. Li, M. Caricato, A. V. Marenich, 
 J. Bloino, B. G. Janesko, R. Gomperts, B. Mennucci, H. P. Hratchian, 
 J. V. Ortiz, A. F. Izmaylov, J. L. Sonnenberg, D. Williams-Young, 
 F. Ding, F. Lipparini, F. Egidi, J. Goings, B. Peng, A. Petrone, 
 T. Henderson, D. Ranasinghe, V. G. Zakrzewski, J. Gao, N. Rega, 
 G. Zheng, W. Liang, M. Hada, M. Ehara, K. Toyota, R. Fukuda, 
 J. Hasegawa, M. Ishida, T. Nakajima, Y. Honda, O. Kitao, H. Nakai, 
 T. Vreven, K. Throssell, J. A. Montgomery, Jr., J. E. Peralta, 
 F. Ogliaro, M. J. Bearpark, J. J. Heyd, E. N. Brothers, K. N. Kudin, 
 V. N. Staroverov, T. A. Keith, R. Kobayashi, J. Normand, 
 K. Raghavachari, A. P. Rendell, J. C. Burant, S. S. Iyengar, 
 J. Tomasi, M. Cossi, J. M. Millam, M. Klene, C. Adamo, R. Cammi, 
 J. W. Ochterski, R. L. Martin, K. Morokuma, O. Farkas, 
 J. B. Foresman, and D. J. Fox, Gaussian, Inc., Wallingford CT, 2016.
 
 ******************************************
 Gaussian 16:  ES64L-G16RevA.03 25-Dec-2016
                22-Jul-2024 
 ******************************************
 %nprocshared=5
 Will use up to    5 processors via shared memory.
 %mem=10GB
 %Chk=QYIMZXITLDTULQ-UHFFFAOYSA-N_conf_0_0.chk
 -------------------------------------------------------
 # opt=CalcFc B3LYP/6-31G** SCRF=(Solvent=water) scf=xqc
 -------------------------------------------------------
 1/10=4,18=20,19=15,26=3,38=1/1,3;
 2/9=110,12=2,17=6,18=5,40=1/2;
 3/5=1,6=6,7=101,11=2,25=1,30=1,70=2201,71=2,72=1,74=-5,140=1/1,2,3;
 4//1;
 5/5=2,8=3,13=1,38=5,53=1/2,8;
 8/6=4,10=90,11=11/1;
 11/6=1,8=1,9=11,15=111,16=1/1,2,10;
 10/6=1,13=1/2;
 6/7=2,8=2,9=2,10=2,28=1/1;
 7/10=1,18=20,25=1/1,2,3,16;
 1/10=4,18=20,19=15,26=3/3(2);
 2/9=110/2;
 99//99;
 2/9=110/2;
 3/5=1,6=6,7=101,11=2,25=1,30=1,70=2205,71=1,72=1,74=-5/1,2,3;
 4/5=5,16=3,69=1/1;
 5/5=2,8=3,13=1,38=5,53=1/2,8;
 7//1,2,3,16;
 1/18=20,19=15,26=3/3(-5);
 2/9=110/2;
 6/7=2,8=2,9=2,10=2,19=2,28=1/1;
 99/9=1/99;
 ----------------------------------
 QYIMZXITLDTULQ-UHFFFAOYSA-N_conf_0
 ----------------------------------
 Symbolic Z-matrix:
 Charge =  0 Multiplicity = 1
 N                    -4.97606  -0.2114   -0.25858 
 C                    -3.58519  -0.10531  -0.14062 
 C                    -2.9976    1.11953   0.16714 
 C                    -1.60736   1.26046   0.16963 
 C                    -0.76785   0.188    -0.1742 
 C                     0.69089   0.39064  -0.16484 
 C                     1.33431   0.77867  -1.3517 
 C                     2.71579   0.9847   -1.39054 
 C                     3.48441   0.85402  -0.23624 
 N                     4.87971   0.94602  -0.30284 
 C                     2.86232   0.4127    0.93452 
 C                     1.47206   0.19891   0.99415 
 C                     0.85413  -0.245     2.29322 
 C                    -1.35839  -1.03821  -0.54571 
 C                    -0.52356  -2.21536  -0.97516 
 C                    -2.76119  -1.15817  -0.54657 
 H                    -5.48651   0.43984   0.32925 
 H                    -5.32182  -1.16173  -0.17157 
 H                    -3.61525   1.98003   0.40828 
 H                    -1.17481   2.22439   0.43076 
 H                     0.75486   0.90919  -2.2638 
 H                     3.18269   1.25106  -2.33457 
 H                     5.21356   1.55153  -1.04598 
 H                     5.31837   1.15254   0.58884 
 H                     3.46808   0.23218   1.81959 
 H                     0.36392  -1.21615   2.17284 
 H                     1.609    -0.35551   3.07914 
 H                     0.12564   0.49356   2.64222 
 H                     0.22041  -2.46215  -0.21132 
 H                    -0.01946  -1.99795  -1.92201 
 H                    -1.13912  -3.10907  -1.12394 
 H                    -3.21599  -2.09193  -0.86939 
 

 GradGradGradGradGradGradGradGradGradGradGradGradGradGradGradGradGradGrad
 Berny optimization.
 Initialization pass.
                           ----------------------------
                           !    Initial Parameters    !
                           ! (Angstroms and Degrees)  !
 --------------------------                            --------------------------
 ! Name  Definition              Value          Derivative Info.                !
 --------------------------------------------------------------------------------
 ! R1    R(1,2)                  1.3999         calculate D2E/DX2 analytically  !
 ! R2    R(1,17)                 1.015          calculate D2E/DX2 analytically  !
 ! R3    R(1,18)                 1.015          calculate D2E/DX2 analytically  !
 ! R4    R(2,3)                  1.3929         calculate D2E/DX2 analytically  !
 ! R5    R(2,16)                 1.3972         calculate D2E/DX2 analytically  !
 ! R6    R(3,4)                  1.3974         calculate D2E/DX2 analytically  !
 ! R7    R(3,19)                 1.0863         calculate D2E/DX2 analytically  !
 ! R8    R(4,5)                  1.4047         calculate D2E/DX2 analytically  !
 ! R9    R(4,20)                 1.0883         calculate D2E/DX2 analytically  !
 ! R10   R(5,6)                  1.4728         calculate D2E/DX2 analytically  !
 ! R11   R(5,14)                 1.4108         calculate D2E/DX2 analytically  !
 ! R12   R(6,7)                  1.4047         calculate D2E/DX2 analytically  !
 ! R13   R(6,12)                 1.4108         calculate D2E/DX2 analytically  !
 ! R14   R(7,8)                  1.3973         calculate D2E/DX2 analytically  !
 ! R15   R(7,21)                 1.0884         calculate D2E/DX2 analytically  !
 ! R16   R(8,9)                  1.3929         calculate D2E/DX2 analytically  !
 ! R17   R(8,22)                 1.0863         calculate D2E/DX2 analytically  !
 ! R18   R(9,10)                 1.3999         calculate D2E/DX2 analytically  !
 ! R19   R(9,11)                 1.3973         calculate D2E/DX2 analytically  !
 ! R20   R(10,23)                1.0151         calculate D2E/DX2 analytically  !
 ! R21   R(10,24)                1.015          calculate D2E/DX2 analytically  !
 ! R22   R(11,12)                1.4079         calculate D2E/DX2 analytically  !
 ! R23   R(11,25)                1.0876         calculate D2E/DX2 analytically  !
 ! R24   R(12,13)                1.5055         calculate D2E/DX2 analytically  !
 ! R25   R(13,26)                1.0945         calculate D2E/DX2 analytically  !
 ! R26   R(13,27)                1.0953         calculate D2E/DX2 analytically  !
 ! R27   R(13,28)                1.0945         calculate D2E/DX2 analytically  !
 ! R28   R(14,15)                1.5057         calculate D2E/DX2 analytically  !
 ! R29   R(14,16)                1.4079         calculate D2E/DX2 analytically  !
 ! R30   R(15,29)                1.0945         calculate D2E/DX2 analytically  !
 ! R31   R(15,30)                1.0945         calculate D2E/DX2 analytically  !
 ! R32   R(15,31)                1.0953         calculate D2E/DX2 analytically  !
 ! R33   R(16,32)                1.0876         calculate D2E/DX2 analytically  !
 ! A1    A(2,1,17)             113.7185         calculate D2E/DX2 analytically  !
 ! A2    A(2,1,18)             113.7146         calculate D2E/DX2 analytically  !
 ! A3    A(17,1,18)            112.3198         calculate D2E/DX2 analytically  !
 ! A4    A(1,2,3)              120.2901         calculate D2E/DX2 analytically  !
 ! A5    A(1,2,16)             120.2881         calculate D2E/DX2 analytically  !
 ! A6    A(3,2,16)             118.5564         calculate D2E/DX2 analytically  !
 ! A7    A(2,3,4)              120.5818         calculate D2E/DX2 analytically  !
 ! A8    A(2,3,19)             120.3806         calculate D2E/DX2 analytically  !
 ! A9    A(4,3,19)             119.0376         calculate D2E/DX2 analytically  !
 ! A10   A(3,4,5)              121.1421         calculate D2E/DX2 analytically  !
 ! A11   A(3,4,20)             119.0236         calculate D2E/DX2 analytically  !
 ! A12   A(5,4,20)             119.8293         calculate D2E/DX2 analytically  !
 ! A13   A(4,5,6)              119.0353         calculate D2E/DX2 analytically  !
 ! A14   A(4,5,14)             118.5467         calculate D2E/DX2 analytically  !
 ! A15   A(6,5,14)             122.4023         calculate D2E/DX2 analytically  !
 ! A16   A(5,6,7)              119.0992         calculate D2E/DX2 analytically  !
 ! A17   A(5,6,12)             122.3416         calculate D2E/DX2 analytically  !
 ! A18   A(7,6,12)             118.5574         calculate D2E/DX2 analytically  !
 ! A19   A(6,7,8)              121.1368         calculate D2E/DX2 analytically  !
 ! A20   A(6,7,21)             119.8215         calculate D2E/DX2 analytically  !
 ! A21   A(8,7,21)             119.0359         calculate D2E/DX2 analytically  !
 ! A22   A(7,8,9)              120.5759         calculate D2E/DX2 analytically  !
 ! A23   A(7,8,22)             119.0281         calculate D2E/DX2 analytically  !
 ! A24   A(9,8,22)             120.3958         calculate D2E/DX2 analytically  !
 ! A25   A(8,9,10)             120.2908         calculate D2E/DX2 analytically  !
 ! A26   A(8,9,11)             118.5744         calculate D2E/DX2 analytically  !
 ! A27   A(10,9,11)            120.2887         calculate D2E/DX2 analytically  !
 ! A28   A(9,10,23)            113.6936         calculate D2E/DX2 analytically  !
 ! A29   A(9,10,24)            113.7242         calculate D2E/DX2 analytically  !
 ! A30   A(23,10,24)           112.3127         calculate D2E/DX2 analytically  !
 ! A31   A(9,11,12)            121.5396         calculate D2E/DX2 analytically  !
 ! A32   A(9,11,25)            119.0979         calculate D2E/DX2 analytically  !
 ! A33   A(12,11,25)           119.3624         calculate D2E/DX2 analytically  !
 ! A34   A(6,12,11)            119.4305         calculate D2E/DX2 analytically  !
 ! A35   A(6,12,13)            121.4457         calculate D2E/DX2 analytically  !
 ! A36   A(11,12,13)           119.1202         calculate D2E/DX2 analytically  !
 ! A37   A(12,13,26)           110.5216         calculate D2E/DX2 analytically  !
 ! A38   A(12,13,27)           111.4706         calculate D2E/DX2 analytically  !
 ! A39   A(12,13,28)           110.4479         calculate D2E/DX2 analytically  !
 ! A40   A(26,13,27)           107.3419         calculate D2E/DX2 analytically  !
 ! A41   A(26,13,28)           109.6154         calculate D2E/DX2 analytically  !
 ! A42   A(27,13,28)           107.3374         calculate D2E/DX2 analytically  !
 ! A43   A(5,14,15)            121.5023         calculate D2E/DX2 analytically  !
 ! A44   A(5,14,16)            119.425          calculate D2E/DX2 analytically  !
 ! A45   A(15,14,16)           119.0555         calculate D2E/DX2 analytically  !
 ! A46   A(14,15,29)           110.7399         calculate D2E/DX2 analytically  !
 ! A47   A(14,15,30)           110.2931         calculate D2E/DX2 analytically  !
 ! A48   A(14,15,31)           111.4099         calculate D2E/DX2 analytically  !
 ! A49   A(29,15,30)           109.6015         calculate D2E/DX2 analytically  !
 ! A50   A(29,15,31)           107.0274         calculate D2E/DX2 analytically  !
 ! A51   A(30,15,31)           107.6623         calculate D2E/DX2 analytically  !
 ! A52   A(2,16,14)            121.5477         calculate D2E/DX2 analytically  !
 ! A53   A(2,16,32)            119.114          calculate D2E/DX2 analytically  !
 ! A54   A(14,16,32)           119.3383         calculate D2E/DX2 analytically  !
 ! D1    D(17,1,2,3)           -30.251          calculate D2E/DX2 analytically  !
 ! D2    D(17,1,2,16)          160.5512         calculate D2E/DX2 analytically  !
 ! D3    D(18,1,2,3)          -160.4968         calculate D2E/DX2 analytically  !
 ! D4    D(18,1,2,16)           30.3054         calculate D2E/DX2 analytically  !
 ! D5    D(1,2,3,4)           -174.2777         calculate D2E/DX2 analytically  !
 ! D6    D(1,2,3,19)             5.6793         calculate D2E/DX2 analytically  !
 ! D7    D(16,2,3,4)            -4.8952         calculate D2E/DX2 analytically  !
 ! D8    D(16,2,3,19)          175.0618         calculate D2E/DX2 analytically  !
 ! D9    D(1,2,16,14)          174.5672         calculate D2E/DX2 analytically  !
 ! D10   D(1,2,16,32)           -5.5043         calculate D2E/DX2 analytically  !
 ! D11   D(3,2,16,14)            5.1845         calculate D2E/DX2 analytically  !
 ! D12   D(3,2,16,32)         -174.8871         calculate D2E/DX2 analytically  !
 ! D13   D(2,3,4,5)              1.8733         calculate D2E/DX2 analytically  !
 ! D14   D(2,3,4,20)          -178.9411         calculate D2E/DX2 analytically  !
 ! D15   D(19,3,4,5)          -178.0843         calculate D2E/DX2 analytically  !
 ! D16   D(19,3,4,20)            1.1013         calculate D2E/DX2 analytically  !
 ! D17   D(3,4,5,6)            179.5913         calculate D2E/DX2 analytically  !
 ! D18   D(3,4,5,14)             0.9968         calculate D2E/DX2 analytically  !
 ! D19   D(20,4,5,6)             0.4122         calculate D2E/DX2 analytically  !
 ! D20   D(20,4,5,14)         -178.1823         calculate D2E/DX2 analytically  !
 ! D21   D(4,5,6,7)            -92.5226         calculate D2E/DX2 analytically  !
 ! D22   D(4,5,6,12)            87.9796         calculate D2E/DX2 analytically  !
 ! D23   D(14,5,6,7)            86.0151         calculate D2E/DX2 analytically  !
 ! D24   D(14,5,6,12)          -93.4826         calculate D2E/DX2 analytically  !
 ! D25   D(4,5,14,15)          177.7287         calculate D2E/DX2 analytically  !
 ! D26   D(4,5,14,16)           -0.7469         calculate D2E/DX2 analytically  !
 ! D27   D(6,5,14,15)           -0.8159         calculate D2E/DX2 analytically  !
 ! D28   D(6,5,14,16)         -179.2915         calculate D2E/DX2 analytically  !
 ! D29   D(5,6,7,8)            179.9006         calculate D2E/DX2 analytically  !
 ! D30   D(5,6,7,21)            -0.978          calculate D2E/DX2 analytically  !
 ! D31   D(12,6,7,8)            -0.5825         calculate D2E/DX2 analytically  !
 ! D32   D(12,6,7,21)          178.5389         calculate D2E/DX2 analytically  !
 ! D33   D(5,6,12,11)         -179.8736         calculate D2E/DX2 analytically  !
 ! D34   D(5,6,12,13)            0.8152         calculate D2E/DX2 analytically  !
 ! D35   D(7,6,12,11)            0.626          calculate D2E/DX2 analytically  !
 ! D36   D(7,6,12,13)         -178.6852         calculate D2E/DX2 analytically  !
 ! D37   D(6,7,8,9)             -2.2302         calculate D2E/DX2 analytically  !
 ! D38   D(6,7,8,22)           177.9183         calculate D2E/DX2 analytically  !
 ! D39   D(21,7,8,9)           178.6417         calculate D2E/DX2 analytically  !
 ! D40   D(21,7,8,22)           -1.2098         calculate D2E/DX2 analytically  !
 ! D41   D(7,8,9,10)           174.3943         calculate D2E/DX2 analytically  !
 ! D42   D(7,8,9,11)             4.8935         calculate D2E/DX2 analytically  !
 ! D43   D(22,8,9,10)           -5.7563         calculate D2E/DX2 analytically  !
 ! D44   D(22,8,9,11)         -175.2571         calculate D2E/DX2 analytically  !
 ! D45   D(8,9,10,23)           30.1312         calculate D2E/DX2 analytically  !
 ! D46   D(8,9,10,24)          160.3523         calculate D2E/DX2 analytically  !
 ! D47   D(11,9,10,23)        -160.5488         calculate D2E/DX2 analytically  !
 ! D48   D(11,9,10,24)         -30.3277         calculate D2E/DX2 analytically  !
 ! D49   D(8,9,11,12)           -4.8872         calculate D2E/DX2 analytically  !
 ! D50   D(8,9,11,25)          175.2042         calculate D2E/DX2 analytically  !
 ! D51   D(10,9,11,12)        -174.3883         calculate D2E/DX2 analytically  !
 ! D52   D(10,9,11,25)           5.7031         calculate D2E/DX2 analytically  !
 ! D53   D(9,11,12,6)            2.1438         calculate D2E/DX2 analytically  !
 ! D54   D(9,11,12,13)        -178.5288         calculate D2E/DX2 analytically  !
 ! D55   D(25,11,12,6)        -177.9478         calculate D2E/DX2 analytically  !
 ! D56   D(25,11,12,13)          1.3796         calculate D2E/DX2 analytically  !
 ! D57   D(6,12,13,26)          59.9034         calculate D2E/DX2 analytically  !
 ! D58   D(6,12,13,27)         179.1932         calculate D2E/DX2 analytically  !
 ! D59   D(6,12,13,28)         -61.5712         calculate D2E/DX2 analytically  !
 ! D60   D(11,12,13,26)       -119.4099         calculate D2E/DX2 analytically  !
 ! D61   D(11,12,13,27)         -0.1201         calculate D2E/DX2 analytically  !
 ! D62   D(11,12,13,28)        119.1155         calculate D2E/DX2 analytically  !
 ! D63   D(5,14,15,29)          54.9973         calculate D2E/DX2 analytically  !
 ! D64   D(5,14,15,30)         -66.5016         calculate D2E/DX2 analytically  !
 ! D65   D(5,14,15,31)         173.9968         calculate D2E/DX2 analytically  !
 ! D66   D(16,14,15,29)       -126.5216         calculate D2E/DX2 analytically  !
 ! D67   D(16,14,15,30)        111.9795         calculate D2E/DX2 analytically  !
 ! D68   D(16,14,15,31)         -7.5221         calculate D2E/DX2 analytically  !
 ! D69   D(5,14,16,2)           -2.3793         calculate D2E/DX2 analytically  !
 ! D70   D(5,14,16,32)         177.6924         calculate D2E/DX2 analytically  !
 ! D71   D(15,14,16,2)         179.1076         calculate D2E/DX2 analytically  !
 ! D72   D(15,14,16,32)         -0.8208         calculate D2E/DX2 analytically  !
 --------------------------------------------------------------------------------
 Trust Radius=3.00D-01 FncErr=1.00D-07 GrdErr=1.00D-06 EigMax=2.50D+02 EigMin=1.00D-04
 Number of steps in this run=    169 maximum allowed number of steps=    192.
 GradGradGradGradGradGradGradGradGradGradGradGradGradGradGradGradGradGrad

                          Input orientation:                          
 ---------------------------------------------------------------------
 Center     Atomic      Atomic             Coordinates (Angstroms)
 Number     Number       Type             X           Y           Z
 ---------------------------------------------------------------------
      1          7           0       -4.976063   -0.211402   -0.258580
      2          6           0       -3.585185   -0.105315   -0.140617
      3          6           0       -2.997598    1.119527    0.167141
      4          6           0       -1.607359    1.260460    0.169626
      5          6           0       -0.767846    0.188000   -0.174201
      6          6           0        0.690890    0.390640   -0.164845
      7          6           0        1.334310    0.778668   -1.351698
      8          6           0        2.715793    0.984697   -1.390545
      9          6           0        3.484408    0.854024   -0.236241
     10          7           0        4.879712    0.946022   -0.302842
     11          6           0        2.862319    0.412696    0.934521
     12          6           0        1.472063    0.198914    0.994149
     13          6           0        0.854128   -0.245004    2.293223
     14          6           0       -1.358392   -1.038211   -0.545711
     15          6           0       -0.523556   -2.215360   -0.975160
     16          6           0       -2.761186   -1.158170   -0.546572
     17          1           0       -5.486513    0.439840    0.329247
     18          1           0       -5.321821   -1.161732   -0.171574
     19          1           0       -3.615247    1.980028    0.408279
     20          1           0       -1.174815    2.224388    0.430760
     21          1           0        0.754860    0.909188   -2.263797
     22          1           0        3.182691    1.251057   -2.334570
     23          1           0        5.213563    1.551526   -1.045977
     24          1           0        5.318366    1.152544    0.588842
     25          1           0        3.468078    0.232179    1.819593
     26          1           0        0.363921   -1.216151    2.172838
     27          1           0        1.608996   -0.355512    3.079143
     28          1           0        0.125635    0.493564    2.642217
     29          1           0        0.220415   -2.462147   -0.211317
     30          1           0       -0.019455   -1.997954   -1.922006
     31          1           0       -1.139119   -3.109073   -1.123938
     32          1           0       -3.215991   -2.091932   -0.869389
 ---------------------------------------------------------------------
                    Distance matrix (angstroms):
                    1          2          3          4          5
     1  N    0.000000
     2  C    1.399897   0.000000
     3  C    2.422176   1.392915   0.000000
     4  C    3.701068   2.423507   1.397367   0.000000
     5  C    4.227970   2.832765   2.440502   1.404695   0.000000
     6  C    5.699614   4.304808   3.774445   2.480001   1.472773
     7  C    6.480428   5.142914   4.603095   3.346634   2.480815
     8  C    7.866171   6.515579   5.923461   4.604326   3.774911
     9  C    8.527321   7.135028   6.499970   5.124062   4.304545
    10  N    9.923603   8.531477   7.893225   6.511849   5.699654
    11  C    7.953190   6.557024   5.952068   4.613219   3.802349
    12  C    6.581490   5.191917   4.637816   3.359993   2.526332
    13  C    6.364272   5.064641   4.606296   3.582597   2.984372
    14  C    3.722042   2.448061   2.801961   2.420243   1.410800
    15  C    4.934993   3.810817   4.306647   3.816606   2.545064
    16  C    2.425899   1.397239   2.398579   2.773811   2.433976
    17  H    1.014996   2.032982   2.585141   3.968216   4.752126
    18  H    1.015010   2.032948   3.274276   4.447545   4.749786
    19  H    2.664374   2.156582   1.086324   2.146241   3.414431
    20  H    4.567029   3.400569   2.147732   1.088321   2.162979
    21  H    6.174147   4.936912   4.476007   3.409548   2.684242
    22  H    8.544811   7.242743   6.668720   5.405152   4.626449
    23  H   10.370940   8.999043   8.311525   6.934507   6.196487
    24  H   10.418913   9.021504   8.326715   6.939240   6.209232
    25  H    8.707416   7.328359   6.732232   5.435054   4.681904
    26  H    5.952877   4.709721   4.558292   3.745985   2.959921
    27  H    7.384048   6.116287   5.645901   4.628346   4.065591
    28  H    5.910916   4.676859   4.033908   3.115301   2.970503
    29  H    5.663167   4.476856   4.829826   4.164573   2.828660
    30  H    5.525099   4.412466   4.790883   4.184928   2.897121
    31  H    4.885435   3.996589   4.796028   4.580979   3.451164
    32  H    2.647137   2.148037   3.381651   3.860801   3.416840
                    6          7          8          9         10
     6  C    0.000000
     7  C    1.404698   0.000000
     8  C    2.440385   1.397302   0.000000
     9  C    2.832591   2.423396   1.392933   0.000000
    10  N    4.227733   3.701079   2.422218   1.399918   0.000000
    11  C    2.433968   2.774085   2.398872   1.397301   2.425979
    12  C    1.410764   2.420349   2.801978   2.447972   3.721885
    13  C    2.544167   3.816272   4.306751   3.811093   4.935931
    14  C    2.527099   3.346835   4.626541   5.208555   6.550581
    15  C    2.987092   3.543677   4.572339   5.102048   6.296162
    16  C    3.802809   4.601375   5.941504   6.569070   7.929083
    17  H    6.197326   7.033065   8.398356   8.998264  10.397806
    18  H    6.209879   7.032917   8.408108   9.034220  10.417827
    19  H    4.625737   5.388775   6.656464   7.217230   8.587153
    20  H    2.682952   3.400436   4.471108   4.902157   6.231347
    21  H    2.163003   1.088449   2.147912   3.400656   4.567396
    22  H    3.414250   2.146090   1.086336   2.156769   2.664741
    23  H    4.751697   3.967289   2.584353   2.032771   1.015058
    24  H    4.749956   4.447267   3.274070   2.033046   1.014972
    25  H    3.416998   3.861179   3.381893   2.147886   2.647076
    26  H    2.855424   4.164530   4.803408   4.452722   5.585369
    27  H    3.452986   4.581939   4.795755   3.996489   4.881536
    28  H    2.865257   4.182527   4.818017   4.438109   5.610644
    29  H    2.891694   3.611663   4.415679   4.653092   5.773478
    30  H    3.049194   3.141267   4.081696   4.822100   5.940583
    31  H    4.064084   4.613486   5.629420   6.153954   7.303719
    32  H    4.682228   5.401685   6.702485   7.346761   8.665480
                   11         12         13         14         15
    11  C    0.000000
    12  C    1.407861   0.000000
    13  C    2.512264   1.505490   0.000000
    14  C    4.702193   3.451539   3.685644   0.000000
    15  C    4.692303   3.699917   4.057418   1.505675   0.000000
    16  C    6.023709   4.704880   4.687090   1.407914   2.511639
    17  H    8.370788   6.994421   6.673076   4.471193   5.777760
    18  H    8.407284   7.026174   6.712523   3.982964   4.977874
    19  H    6.685232   5.421839   5.336581   3.887578   5.392007
    20  H    4.453589   3.380224   3.699091   3.410535   4.702351
    21  H    3.862270   3.410730   4.701961   3.348136   3.613548
    22  H    3.390051   3.887625   5.392298   5.390937   5.253600
    23  H    3.278362   4.471074   5.777755   7.081497   6.863598
    24  H    2.588249   3.983432   4.978702   7.117985   6.922205
    25  H    1.087604   2.160218   2.699030   5.522986   5.452911
    26  H    3.229329   2.149348   1.094496   3.223125   3.419930
    27  H    2.600070   2.161791   1.095311   4.734029   4.944105
    28  H    3.226795   2.148444   1.094523   3.835564   4.565646
    29  H    4.069069   3.178209   3.404414   2.152218   1.094464
    30  H    4.719704   3.943959   4.648026   2.146636   1.094487
    31  H    5.714159   4.716708   4.883944   2.161226   1.095343
    32  H    6.817119   5.540632   5.475320   2.160039   2.697337
                   16         17         18         19         20
    16  C    0.000000
    17  H    3.278430   0.000000
    18  H    2.587950   1.686113   0.000000
    19  H    3.389609   2.424884   3.622055   0.000000
    20  H    3.861794   4.667511   5.387604   2.452739   0.000000
    21  H    4.425540   6.774873   6.752196   5.233023   3.565674
    22  H    6.658152   9.105444   9.100925   7.366586   5.251884
    23  H    8.437327  10.845217  10.914241   8.958034   6.591272
    24  H    8.479843  10.831471  10.915479   8.973672   6.582950
    25  H    6.807022   9.080141   9.119762   7.431035   5.239676
    26  H    4.143049   6.353638   6.150357   5.400279   4.152090
    27  H    5.734855   7.651193   7.697621   6.315139   4.628112
    28  H    4.607639   6.070331   6.350764   4.603722   3.094748
    29  H    3.271498   6.425166   5.692893   5.901620   4.931788
    30  H    3.180274   6.395288   5.646093   5.846734   4.969762
    31  H    2.602014   5.797100   4.711065   5.863263   5.555552
    32  H    1.087644   3.605810   2.405564   4.286339   4.948475
                   21         22         23         24         25
    21  H    0.000000
    22  H    2.452804   0.000000
    23  H    4.666446   2.423880   0.000000
    24  H    5.387240   3.621761   1.686062   0.000000
    25  H    4.949138   4.286797   3.605397   2.405283   0.000000
    26  H    4.934939   5.860828   6.445141   5.715442   3.443578
    27  H    5.556619   5.862241   5.800545   4.715428   2.321214
    28  H    4.963631   5.889634   6.372525   5.622727   3.452094
    29  H    3.982988   5.202996   6.460477   6.300425   4.683087
    30  H    3.027847   4.580396   6.383629   6.687476   5.579960
    31  H    4.586158   6.257348   7.879329   7.924273   6.407387
    32  H    5.169018   7.366510   9.184953   9.245989   7.570264
                   26         27         28         29         30
    26  H    0.000000
    27  H    1.764170   0.000000
    28  H    1.788916   1.764141   0.000000
    29  H    2.693937   4.146467   4.109484   0.000000
    30  H    4.186400   5.510078   5.202004   1.788706   0.000000
    31  H    4.087911   5.727138   5.363069   1.760602   1.767808
    32  H    4.778903   6.471982   5.493872   3.518380   3.366701
                   31         32
    31  H    0.000000
    32  H    2.326536   0.000000
 Stoichiometry    C14H16N2
 Framework group  C1[X(C14H16N2)]
 Deg. of freedom    90
 Full point group                 C1      NOp   1
 Largest Abelian subgroup         C1      NOp   1
 Largest concise Abelian subgroup C1      NOp   1
                         Standard orientation:                         
 ---------------------------------------------------------------------
 Center     Atomic      Atomic             Coordinates (Angstroms)
 Number     Number       Type             X           Y           Z
 ---------------------------------------------------------------------
      1          7           0        4.959281   -0.107009   -0.394739
      2          6           0        3.565523   -0.143408   -0.268936
      3          6           0        2.803719   -0.939227   -1.121309
      4          6           0        1.407785   -0.890520   -1.080957
      5          6           0        0.736265   -0.014373   -0.212282
      6          6           0       -0.736377    0.005104   -0.214453
      7          6           0       -1.406246    0.920489   -1.043019
      8          6           0       -2.802021    0.974246   -1.080108
      9          6           0       -3.565595    0.085570   -0.326801
     10          7           0       -4.958276    0.218395   -0.276123
     11          6           0       -2.908939   -0.788864    0.543037
     12          6           0       -1.503765   -0.857989    0.595759
     13          6           0       -0.853248   -1.843652    1.529460
     14          6           0        1.502384    0.837880    0.610570
     15          6           0        0.852012    1.838023    1.529149
     16          6           0        2.907723    0.776847    0.551250
     17          1           0        5.360630   -0.972294   -0.741751
     18          1           0        5.435267    0.233336    0.434626
     19          1           0        3.287807   -1.606971   -1.828329
     20          1           0        0.837471   -1.535973   -1.746220
     21          1           0       -0.834376    1.612250   -1.658773
     22          1           0       -3.284397    1.718406   -1.707534
     23          1           0       -5.361076    0.615625   -1.118917
     24          1           0       -5.438468   -0.625424    0.019772
     25          1           0       -3.499214   -1.431192    1.192554
     26          1           0       -0.227471   -1.323390    2.261343
     27          1           0       -1.599209   -2.419119    2.088107
     28          1           0       -0.244104   -2.558320    0.967167
     29          1           0        0.136671    1.344993    2.194776
     30          1           0        0.339850    2.610766    0.947376
     31          1           0        1.591338    2.336357    2.165417
     32          1           0        3.496919    1.460494    1.158247
 ---------------------------------------------------------------------
 Rotational constants (GHZ):           1.3525055           0.2715968           0.2674818
 Standard basis: 6-31G(d,p) (6D, 7F)
 There are   320 symmetry adapted cartesian basis functions of A   symmetry.
 There are   320 symmetry adapted basis functions of A   symmetry.
   320 basis functions,   560 primitive gaussians,   320 cartesian basis functions
    57 alpha electrons       57 beta electrons
       nuclear repulsion energy      1027.6351921868 Hartrees.
 NAtoms=   32 NActive=   32 NUniq=   32 SFac= 1.00D+00 NAtFMM=   60 NAOKFM=F Big=F
 Integral buffers will be    131072 words long.
 Raffenetti 2 integral format.
 Two-electron integral symmetry is turned on.
 Force inversion solution in PCM.
 ------------------------------------------------------------------------------
 Polarizable Continuum Model (PCM)
 =================================
 Model                : PCM.
 Atomic radii         : UFF (Universal Force Field).
 Polarization charges : Total charges.
 Charge compensation  : None.
 Solution method      : Matrix inversion.
 Cavity type          : Scaled VdW (van der Waals Surface) (Alpha=1.100).
 Cavity algorithm     : GePol (No added spheres)
                        Default sphere list used, NSphG=   32.
                        Lebedev-Laikov grids with approx.  5.0 points / Ang**2.
                        Smoothing algorithm: York/Karplus (Gamma=1.0000).
                        Polarization charges: spherical gaussians, with
                                              point-specific exponents (IZeta= 3).
                        Self-potential: point-specific (ISelfS= 7).
                        Self-field    : sphere-specific E.n sum rule (ISelfD= 2).
 1st derivatives      : Analytical E(r).r(x)/FMM algorithm (CHGder, D1EAlg=3).
                        Cavity 1st derivative terms included.
 2nd derivatives      : Analytical E(r).r(xy)/FMM algorithm (CHGder, D2EAlg=3).
                        Cavity 2nd derivative terms included.
 Solvent              : Water, Eps=  78.355300 Eps(inf)=   1.777849
 ------------------------------------------------------------------------------
 One-electron integrals computed using PRISM.
 NBasis=   320 RedAO= T EigKep=  3.67D-04  NBF=   320
 NBsUse=   320 1.00D-06 EigRej= -1.00D+00 NBFU=   320
 ExpMin= 1.61D-01 ExpMax= 4.17D+03 ExpMxC= 6.27D+02 IAcc=3 IRadAn=         5 AccDes= 0.00D+00
 Harris functional with IExCor=  402 and IRadAn=       5 diagonalized for initial guess.
 HarFok:  IExCor=  402 AccDes= 0.00D+00 IRadAn=         5 IDoV= 1 UseB2=F ITyADJ=14
 ICtDFT=  3500011 ScaDFX=  1.000000  1.000000  1.000000  1.000000
 FoFCou: FMM=F IPFlag=           0 FMFlag=      100000 FMFlg1=           0
         NFxFlg=           0 DoJE=T BraDBF=F KetDBF=T FulRan=T
         wScrn=  0.000000 ICntrl=       500 IOpCl=  0 I1Cent=   200000004 NGrid=           0
         NMat0=    1 NMatS0=      1 NMatT0=    0 NMatD0=    1 NMtDS0=    0 NMtDT0=    0
 Petite list used in FoFCou.
 Requested convergence on RMS density matrix=1.00D-08 within  32 cycles.
 Requested convergence on MAX density matrix=1.00D-06.
 Requested convergence on             energy=1.00D-06.
 No special actions if energy rises.
 Inv3:  Mode=1 IEnd=    16077675.
 Iteration    1 A*A^-1 deviation from unit magnitude is 3.11D-15 for    721.
 Iteration    1 A*A^-1 deviation from orthogonality  is 2.03D-15 for   1867   1711.
 Iteration    1 A^-1*A deviation from unit magnitude is 2.89D-15 for    721.
 Iteration    1 A^-1*A deviation from orthogonality  is 1.58D-15 for   2192   1780.
 Error on total polarization charges =  0.01002
 SCF Done:  E(RB3LYP) =  -652.681174867     A.U. after   12 cycles
            NFock= 12  Conv=0.61D-08     -V/T= 2.0097
 QCSCF skips out because SCF is already converged.
 DoSCS=F DFT=T ScalE2(SS,OS)=  1.000000  1.000000
 Range of M.O.s used for correlation:     1   320
 NBasis=   320 NAE=    57 NBE=    57 NFC=     0 NFV=     0
 NROrb=    320 NOA=    57 NOB=    57 NVA=   263 NVB=   263
 Symmetrizing basis deriv contribution to polar:
 IMax=3 JMax=2 DiffMx= 0.00D+00
 G2DrvN: will do    33 centers at a time, making    1 passes.
 Calling FoFCou, ICntrl=  3107 FMM=F I1Cent=   0 AccDes= 0.00D+00.
 NEqPCM:  Using equilibrium solvation (IEInf=0, Eps=  78.3553, EpsInf=   1.7778)
 G2PCM: DoFxE=T DoFxN=T DoGrad=T DoDP/DQ/DG/TGxP=FFFF NFrqRd=   0 IEInf=0 SqF1=F DoCFld=F IF1Alg=4.
 End of G2Drv F.D. properties file   721 does not exist.
 End of G2Drv F.D. properties file   722 does not exist.
 End of G2Drv F.D. properties file   788 does not exist.
          IDoAtm=11111111111111111111111111111111
 NEqPCM:  Using equilibrium solvation (IEInf=0, Eps=  78.3553, EpsInf=   1.7778)
          Differentiating once with respect to nuclear coordinates.
 Keep R1 ints in memory in canonical form, NReq=1335503702.
 CalDSu:  requested number of processors reduced to:   2 ShMem   1 Linda.
 CoulSu:  requested number of processors reduced to:   1 ShMem   1 Linda.
 CoulSu:  requested number of processors reduced to:   1 ShMem   1 Linda.
          There are    99 degrees of freedom in the 1st order CPHF.  IDoFFX=6 NUNeed=     0.
     93 vectors produced by pass  0 Test12= 1.51D-14 1.01D-09 XBig12= 1.19D-01 9.26D-02.
 AX will form    93 AO Fock derivatives at one time.
 CalDSu:  requested number of processors reduced to:   2 ShMem   1 Linda.
 CoulSu:  requested number of processors reduced to:   1 ShMem   1 Linda.
 CoulSu:  requested number of processors reduced to:   1 ShMem   1 Linda.
     93 vectors produced by pass  1 Test12= 1.51D-14 1.01D-09 XBig12= 2.01D-02 3.09D-02.
 CalDSu:  requested number of processors reduced to:   2 ShMem   1 Linda.
 CoulSu:  requested number of processors reduced to:   1 ShMem   1 Linda.
 CoulSu:  requested number of processors reduced to:   1 ShMem   1 Linda.
     93 vectors produced by pass  2 Test12= 1.51D-14 1.01D-09 XBig12= 1.36D-04 1.34D-03.
 CalDSu:  requested number of processors reduced to:   2 ShMem   1 Linda.
 CoulSu:  requested number of processors reduced to:   1 ShMem   1 Linda.
 CoulSu:  requested number of processors reduced to:   1 ShMem   1 Linda.
     93 vectors produced by pass  3 Test12= 1.51D-14 1.01D-09 XBig12= 3.62D-07 7.36D-05.
 CalDSu:  requested number of processors reduced to:   2 ShMem   1 Linda.
 CoulSu:  requested number of processors reduced to:   1 ShMem   1 Linda.
 CoulSu:  requested number of processors reduced to:   1 ShMem   1 Linda.
     93 vectors produced by pass  4 Test12= 1.51D-14 1.01D-09 XBig12= 4.87D-10 1.84D-06.
 CalDSu:  requested number of processors reduced to:   2 ShMem   1 Linda.
 CoulSu:  requested number of processors reduced to:   1 ShMem   1 Linda.
 CoulSu:  requested number of processors reduced to:   1 ShMem   1 Linda.
     63 vectors produced by pass  5 Test12= 1.51D-14 1.01D-09 XBig12= 4.53D-13 6.39D-08.
 CalDSu:  requested number of processors reduced to:   4 ShMem   1 Linda.
 CoulSu:  requested number of processors reduced to:   3 ShMem   1 Linda.
 CoulSu:  requested number of processors reduced to:   2 ShMem   1 Linda.
     10 vectors produced by pass  6 Test12= 1.51D-14 1.01D-09 XBig12= 4.39D-16 1.77D-09.
 InvSVY:  IOpt=1 It=  1 EMax= 5.00D-16
 Solved reduced A of dimension   538 with    99 vectors.
 End of Minotr F.D. properties file   721 does not exist.
 End of Minotr F.D. properties file   722 does not exist.
 End of Minotr F.D. properties file   788 does not exist.

 **********************************************************************

            Population analysis using the SCF density.

 **********************************************************************

 Orbital symmetries:
       Occupied  (A) (A) (A) (A) (A) (A) (A) (A) (A) (A) (A) (A)
                 (A) (A) (A) (A) (A) (A) (A) (A) (A) (A) (A) (A)
                 (A) (A) (A) (A) (A) (A) (A) (A) (A) (A) (A) (A)
                 (A) (A) (A) (A) (A) (A) (A) (A) (A) (A) (A) (A)
                 (A) (A) (A) (A) (A) (A) (A) (A) (A)
       Virtual   (A) (A) (A) (A) (A) (A) (A) (A) (A) (A) (A) (A)
                 (A) (A) (A) (A) (A) (A) (A) (A) (A) (A) (A) (A)
                 (A) (A) (A) (A) (A) (A) (A) (A) (A) (A) (A) (A)
                 (A) (A) (A) (A) (A) (A) (A) (A) (A) (A) (A) (A)
                 (A) (A) (A) (A) (A) (A) (A) (A) (A) (A) (A) (A)
                 (A) (A) (A) (A) (A) (A) (A) (A) (A) (A) (A) (A)
                 (A) (A) (A) (A) (A) (A) (A) (A) (A) (A) (A) (A)
                 (A) (A) (A) (A) (A) (A) (A) (A) (A) (A) (A) (A)
                 (A) (A) (A) (A) (A) (A) (A) (A) (A) (A) (A) (A)
                 (A) (A) (A) (A) (A) (A) (A) (A) (A) (A) (A) (A)
                 (A) (A) (A) (A) (A) (A) (A) (A) (A) (A) (A) (A)
                 (A) (A) (A) (A) (A) (A) (A) (A) (A) (A) (A) (A)
                 (A) (A) (A) (A) (A) (A) (A) (A) (A) (A) (A) (A)
                 (A) (A) (A) (A) (A) (A) (A) (A) (A) (A) (A) (A)
                 (A) (A) (A) (A) (A) (A) (A) (A) (A) (A) (A) (A)
                 (A) (A) (A) (A) (A) (A) (A) (A) (A) (A) (A) (A)
                 (A) (A) (A) (A) (A) (A) (A) (A) (A) (A) (A) (A)
                 (A) (A) (A) (A) (A) (A) (A) (A) (A) (A) (A) (A)
                 (A) (A) (A) (A) (A) (A) (A) (A) (A) (A) (A) (A)
                 (A) (A) (A) (A) (A) (A) (A) (A) (A) (A) (A) (A)
                 (A) (A) (A) (A) (A) (A) (A) (A) (A) (A) (A) (A)
                 (A) (A) (A) (A) (A) (A) (A) (A) (A) (A) (A)
 The electronic state is 1-A.
 Alpha  occ. eigenvalues --  -14.33355 -14.33354 -10.22076 -10.22076 -10.19302
 Alpha  occ. eigenvalues --  -10.19300 -10.18353 -10.18350 -10.17855 -10.17823
 Alpha  occ. eigenvalues --  -10.17627 -10.17620 -10.17594 -10.17588 -10.17579
 Alpha  occ. eigenvalues --  -10.17578  -0.91123  -0.91062  -0.85181  -0.82378
 Alpha  occ. eigenvalues --   -0.76067  -0.76058  -0.74769  -0.70379  -0.68348
 Alpha  occ. eigenvalues --   -0.66972  -0.60746  -0.59600  -0.58563  -0.55966
 Alpha  occ. eigenvalues --   -0.50957  -0.50366  -0.49950  -0.49348  -0.47248
 Alpha  occ. eigenvalues --   -0.43899  -0.43842  -0.43141  -0.42201  -0.41469
 Alpha  occ. eigenvalues --   -0.41102  -0.40103  -0.39735  -0.39123  -0.37409
 Alpha  occ. eigenvalues --   -0.37145  -0.36931  -0.36001  -0.33677  -0.33646
 Alpha  occ. eigenvalues --   -0.32652  -0.29628  -0.29359  -0.23808  -0.23763
 Alpha  occ. eigenvalues --   -0.20004  -0.19767
 Alpha virt. eigenvalues --   -0.00070   0.00812   0.01474   0.02008   0.09399
 Alpha virt. eigenvalues --    0.09650   0.10314   0.11448   0.12637   0.12760
 Alpha virt. eigenvalues --    0.13193   0.14579   0.14749   0.15959   0.16326
 Alpha virt. eigenvalues --    0.17165   0.18537   0.19576   0.20114   0.20360
 Alpha virt. eigenvalues --    0.21405   0.22886   0.25303   0.25707   0.26207
 Alpha virt. eigenvalues --    0.27302   0.30334   0.32865   0.34090   0.34737
 Alpha virt. eigenvalues --    0.35777   0.36406   0.38176   0.38449   0.40657
 Alpha virt. eigenvalues --    0.48267   0.48606   0.49983   0.50432   0.52232
 Alpha virt. eigenvalues --    0.52608   0.53731   0.53928   0.54413   0.54825
 Alpha virt. eigenvalues --    0.56354   0.56598   0.57168   0.58580   0.58692
 Alpha virt. eigenvalues --    0.60476   0.60713   0.61049   0.61179   0.62648
 Alpha virt. eigenvalues --    0.62792   0.64467   0.64982   0.66054   0.67838
 Alpha virt. eigenvalues --    0.68048   0.69850   0.70069   0.71022   0.72499
 Alpha virt. eigenvalues --    0.73010   0.75109   0.76119   0.77863   0.78791
 Alpha virt. eigenvalues --    0.80025   0.80144   0.81906   0.82523   0.82907
 Alpha virt. eigenvalues --    0.82984   0.83406   0.85188   0.85602   0.86319
 Alpha virt. eigenvalues --    0.86440   0.87936   0.88445   0.88590   0.89460
 Alpha virt. eigenvalues --    0.90085   0.90227   0.91340   0.93031   0.94327
 Alpha virt. eigenvalues --    0.95047   0.95957   0.97520   0.99990   1.00406
 Alpha virt. eigenvalues --    1.01390   1.01619   1.03047   1.05819   1.09487
 Alpha virt. eigenvalues --    1.11027   1.15984   1.16067   1.17454   1.17655
 Alpha virt. eigenvalues --    1.19484   1.21034   1.21393   1.26492   1.27525
 Alpha virt. eigenvalues --    1.28357   1.30655   1.32245   1.34264   1.34594
 Alpha virt. eigenvalues --    1.36472   1.36824   1.40051   1.40746   1.42003
 Alpha virt. eigenvalues --    1.42915   1.44322   1.45793   1.49466   1.54614
 Alpha virt. eigenvalues --    1.59379   1.61433   1.66948   1.67301   1.73229
 Alpha virt. eigenvalues --    1.73709   1.76549   1.76930   1.77208   1.78349
 Alpha virt. eigenvalues --    1.79355   1.79758   1.81199   1.81557   1.82189
 Alpha virt. eigenvalues --    1.84379   1.86806   1.87418   1.87626   1.89500
 Alpha virt. eigenvalues --    1.90866   1.91418   1.93378   1.96614   1.97079
 Alpha virt. eigenvalues --    1.98412   1.98986   2.00560   2.00614   2.01526
 Alpha virt. eigenvalues --    2.02096   2.05554   2.05802   2.06837   2.07414
 Alpha virt. eigenvalues --    2.09212   2.10320   2.12040   2.13031   2.13981
 Alpha virt. eigenvalues --    2.16203   2.16653   2.16745   2.17741   2.21075
 Alpha virt. eigenvalues --    2.21707   2.23290   2.24207   2.27941   2.28576
 Alpha virt. eigenvalues --    2.28881   2.30700   2.32199   2.34259   2.35295
 Alpha virt. eigenvalues --    2.35672   2.36530   2.39762   2.40128   2.41049
 Alpha virt. eigenvalues --    2.43624   2.44611   2.46666   2.47187   2.47549
 Alpha virt. eigenvalues --    2.48648   2.49541   2.51307   2.51772   2.53131
 Alpha virt. eigenvalues --    2.54248   2.55607   2.56983   2.57138   2.58262
 Alpha virt. eigenvalues --    2.61115   2.63415   2.65846   2.66215   2.67596
 Alpha virt. eigenvalues --    2.68882   2.69947   2.71056   2.73898   2.75353
 Alpha virt. eigenvalues --    2.76399   2.76930   2.79625   2.79984   2.84704
 Alpha virt. eigenvalues --    2.87031   2.88055   2.88349   2.88853   2.89583
 Alpha virt. eigenvalues --    2.97369   2.98880   3.03040   3.04865   3.07142
 Alpha virt. eigenvalues --    3.08387   3.08483   3.20133   3.20729   3.21334
 Alpha virt. eigenvalues --    3.22297   3.28488   3.28598   3.29264   3.30259
 Alpha virt. eigenvalues --    3.32072   3.34437   3.43677   3.43837   3.45703
 Alpha virt. eigenvalues --    3.45881   3.47081   3.47766   3.52738   3.52765
 Alpha virt. eigenvalues --    3.75440   3.80619   4.04462   4.05128   4.14292
 Alpha virt. eigenvalues --    4.14613   4.16280   4.16392   4.22232   4.23232
 Alpha virt. eigenvalues --    4.37819   4.41361   4.49129   4.49469   4.57076
 Alpha virt. eigenvalues --    4.57127   4.80590   4.90971
          Condensed to atoms (all electrons):
               1          2          3          4          5          6
     1  N    6.839561   0.289593  -0.071308   0.004155   0.000846   0.000002
     2  C    0.289593   4.605669   0.539541  -0.016163  -0.036532   0.000256
     3  C   -0.071308   0.539541   4.975920   0.496566  -0.039116   0.006668
     4  C    0.004155  -0.016163   0.496566   4.939786   0.505741  -0.066939
     5  C    0.000846  -0.036532  -0.039116   0.505741   4.995571   0.335687
     6  C    0.000002   0.000256   0.006668  -0.066939   0.335687   4.995496
     7  C    0.000000   0.000037   0.000045  -0.002251  -0.067185   0.506337
     8  C   -0.000000  -0.000001   0.000003   0.000047   0.006691  -0.039304
     9  C   -0.000000   0.000000   0.000000   0.000021   0.000221  -0.036652
    10  N   -0.000000  -0.000000   0.000000  -0.000000   0.000002   0.000842
    11  C    0.000000   0.000000   0.000003   0.000021   0.008242  -0.018381
    12  C   -0.000000   0.000016   0.000166  -0.003380  -0.063385   0.525358
    13  C    0.000000  -0.000003  -0.000207   0.000339  -0.013744  -0.069617
    14  C    0.003731  -0.018678  -0.040229  -0.018676   0.525925  -0.063086
    15  C   -0.000131   0.007627   0.000092   0.008716  -0.069274  -0.013724
    16  C   -0.064123   0.501161  -0.049802  -0.063201  -0.018423   0.008213
    17  H    0.343351  -0.024909  -0.009312   0.000018  -0.000020  -0.000000
    18  H    0.342663  -0.024575   0.005657  -0.000177  -0.000001  -0.000000
    19  H   -0.007366  -0.043660   0.360789  -0.032187   0.003799  -0.000228
    20  H   -0.000124   0.003809  -0.036445   0.361356  -0.042914  -0.002187
    21  H   -0.000000  -0.000013  -0.000077   0.001401  -0.002226  -0.042500
    22  H    0.000000   0.000000  -0.000000  -0.000002  -0.000221   0.003796
    23  H   -0.000000  -0.000000   0.000000  -0.000000  -0.000000  -0.000020
    24  H    0.000000   0.000000   0.000000  -0.000000  -0.000000  -0.000001
    25  H   -0.000000  -0.000000  -0.000000  -0.000002  -0.000167   0.005061
    26  H    0.000000   0.000001  -0.000021   0.000049   0.003385  -0.006283
    27  H    0.000000  -0.000000  -0.000001   0.000050   0.000518   0.004372
    28  H   -0.000000   0.000003   0.000023   0.002578   0.003761  -0.004883
    29  H    0.000001  -0.000301   0.000035  -0.000091  -0.006273   0.004465
    30  H    0.000002  -0.000144   0.000027  -0.000059  -0.004753   0.002619
    31  H   -0.000005   0.000170   0.000004  -0.000191   0.004369   0.000514
    32  H   -0.007107  -0.047494   0.005313   0.000468   0.005053  -0.000163
               7          8          9         10         11         12
     1  N    0.000000  -0.000000  -0.000000  -0.000000   0.000000  -0.000000
     2  C    0.000037  -0.000001   0.000000  -0.000000   0.000000   0.000016
     3  C    0.000045   0.000003   0.000000   0.000000   0.000003   0.000166
     4  C   -0.002251   0.000047   0.000021  -0.000000   0.000021  -0.003380
     5  C   -0.067185   0.006691   0.000221   0.000002   0.008242  -0.063385
     6  C    0.506337  -0.039304  -0.036652   0.000842  -0.018381   0.525358
     7  C    4.939675   0.497156  -0.016232   0.004137  -0.063118  -0.018674
     8  C    0.497156   4.974941   0.540197  -0.071292  -0.050131  -0.039913
     9  C   -0.016232   0.540197   4.605968   0.289780   0.500729  -0.019286
    10  N    0.004137  -0.071292   0.289780   6.839325  -0.064144   0.003734
    11  C   -0.063118  -0.050131   0.500729  -0.064144   5.065432   0.512804
    12  C   -0.018674  -0.039913  -0.019286   0.003734   0.512804   4.743602
    13  C    0.008712   0.000100   0.007685  -0.000132  -0.061313   0.357678
    14  C   -0.003895   0.000089   0.000056   0.000000   0.000016  -0.001840
    15  C    0.000898  -0.000159  -0.000013   0.000000  -0.000136   0.000276
    16  C   -0.000015   0.000006  -0.000000   0.000000   0.000004   0.000053
    17  H    0.000000  -0.000000   0.000000   0.000000  -0.000000  -0.000000
    18  H    0.000000  -0.000000   0.000000  -0.000000  -0.000000  -0.000000
    19  H   -0.000004  -0.000000  -0.000000  -0.000000  -0.000000  -0.000002
    20  H    0.001510  -0.000112   0.000002   0.000000  -0.000121   0.001437
    21  H    0.361153  -0.036340   0.003772  -0.000124   0.000886   0.004451
    22  H   -0.032178   0.360736  -0.043621  -0.007378   0.005007   0.000932
    23  H    0.000007  -0.009357  -0.024957   0.343416   0.005213  -0.000126
    24  H   -0.000180   0.005640  -0.024612   0.342730  -0.009798  -0.000085
    25  H    0.000468   0.005313  -0.047629  -0.007114   0.358881  -0.031226
    26  H   -0.000058   0.000025  -0.000147   0.000002   0.000720  -0.026726
    27  H   -0.000189   0.000001   0.000207  -0.000004  -0.005027  -0.028131
    28  H   -0.000093   0.000038  -0.000321   0.000001   0.000707  -0.024909
    29  H    0.000012  -0.000028  -0.000014  -0.000000   0.000043   0.001748
    30  H    0.002055  -0.000010  -0.000001  -0.000000  -0.000025  -0.000047
    31  H    0.000054  -0.000000  -0.000000   0.000000  -0.000001   0.000029
    32  H   -0.000003  -0.000000   0.000000   0.000000  -0.000000  -0.000000
              13         14         15         16         17         18
     1  N    0.000000   0.003731  -0.000131  -0.064123   0.343351   0.342663
     2  C   -0.000003  -0.018678   0.007627   0.501161  -0.024909  -0.024575
     3  C   -0.000207  -0.040229   0.000092  -0.049802  -0.009312   0.005657
     4  C    0.000339  -0.018676   0.008716  -0.063201   0.000018  -0.000177
     5  C   -0.013744   0.525925  -0.069274  -0.018423  -0.000020  -0.000001
     6  C   -0.069617  -0.063086  -0.013724   0.008213  -0.000000  -0.000000
     7  C    0.008712  -0.003895   0.000898  -0.000015   0.000000   0.000000
     8  C    0.000100   0.000089  -0.000159   0.000006  -0.000000  -0.000000
     9  C    0.007685   0.000056  -0.000013  -0.000000   0.000000   0.000000
    10  N   -0.000132   0.000000   0.000000   0.000000   0.000000  -0.000000
    11  C   -0.061313   0.000016  -0.000136   0.000004  -0.000000  -0.000000
    12  C    0.357678  -0.001840   0.000276   0.000053  -0.000000  -0.000000
    13  C    5.055417   0.000747  -0.000762  -0.000112   0.000000   0.000000
    14  C    0.000747   4.746099   0.357491   0.510896  -0.000130  -0.000091
    15  C   -0.000762   0.357491   5.054804  -0.061985   0.000003  -0.000003
    16  C   -0.000112   0.510896  -0.061985   5.066530   0.005196  -0.009822
    17  H    0.000000  -0.000130   0.000003   0.005196   0.434597  -0.028583
    18  H    0.000000  -0.000091  -0.000003  -0.009822  -0.028583   0.435128
    19  H   -0.000000   0.000937   0.000011   0.004997   0.004716  -0.000055
    20  H   -0.000021   0.004472  -0.000173   0.000875  -0.000005   0.000004
    21  H   -0.000173   0.001433  -0.000072  -0.000107  -0.000000  -0.000000
    22  H    0.000011  -0.000004   0.000001  -0.000000   0.000000   0.000000
    23  H    0.000003   0.000000  -0.000000  -0.000000   0.000000   0.000000
    24  H   -0.000004   0.000000  -0.000000  -0.000000   0.000000   0.000000
    25  H   -0.011092  -0.000002   0.000000  -0.000000  -0.000000  -0.000000
    26  H    0.371144   0.001391   0.000421  -0.000018  -0.000000   0.000000
    27  H    0.370801   0.000029   0.000006  -0.000001   0.000000   0.000000
    28  H    0.369371  -0.000018   0.000010  -0.000041   0.000000   0.000000
    29  H    0.000235  -0.025126   0.369248   0.001620  -0.000000  -0.000000
    30  H    0.000016  -0.026277   0.371753  -0.000236  -0.000000   0.000000
    31  H    0.000003  -0.028065   0.370656  -0.005066   0.000000  -0.000002
    32  H   -0.000000  -0.031583  -0.011050   0.359161  -0.000080   0.004943
              19         20         21         22         23         24
     1  N   -0.007366  -0.000124  -0.000000   0.000000  -0.000000   0.000000
     2  C   -0.043660   0.003809  -0.000013   0.000000  -0.000000   0.000000
     3  C    0.360789  -0.036445  -0.000077  -0.000000   0.000000   0.000000
     4  C   -0.032187   0.361356   0.001401  -0.000002  -0.000000  -0.000000
     5  C    0.003799  -0.042914  -0.002226  -0.000221  -0.000000  -0.000000
     6  C   -0.000228  -0.002187  -0.042500   0.003796  -0.000020  -0.000001
     7  C   -0.000004   0.001510   0.361153  -0.032178   0.000007  -0.000180
     8  C   -0.000000  -0.000112  -0.036340   0.360736  -0.009357   0.005640
     9  C   -0.000000   0.000002   0.003772  -0.043621  -0.024957  -0.024612
    10  N   -0.000000   0.000000  -0.000124  -0.007378   0.343416   0.342730
    11  C   -0.000000  -0.000121   0.000886   0.005007   0.005213  -0.009798
    12  C   -0.000002   0.001437   0.004451   0.000932  -0.000126  -0.000085
    13  C   -0.000000  -0.000021  -0.000173   0.000011   0.000003  -0.000004
    14  C    0.000937   0.004472   0.001433  -0.000004   0.000000   0.000000
    15  C    0.000011  -0.000173  -0.000072   0.000001  -0.000000  -0.000000
    16  C    0.004997   0.000875  -0.000107  -0.000000  -0.000000  -0.000000
    17  H    0.004716  -0.000005  -0.000000   0.000000   0.000000   0.000000
    18  H   -0.000055   0.000004  -0.000000   0.000000   0.000000   0.000000
    19  H    0.627320  -0.006146   0.000001   0.000000  -0.000000  -0.000000
    20  H   -0.006146   0.624212   0.000205   0.000001   0.000000   0.000000
    21  H    0.000001   0.000205   0.623515  -0.006123  -0.000005   0.000003
    22  H    0.000000   0.000001  -0.006123   0.627293   0.004724  -0.000056
    23  H   -0.000000   0.000000  -0.000005   0.004724   0.434603  -0.028587
    24  H   -0.000000   0.000000   0.000003  -0.000056  -0.028587   0.435116
    25  H    0.000000   0.000001   0.000019  -0.000204  -0.000084   0.004920
    26  H   -0.000001   0.000022  -0.000000  -0.000000  -0.000000   0.000000
    27  H    0.000000   0.000002   0.000002  -0.000000   0.000000  -0.000001
    28  H    0.000005   0.000267  -0.000002   0.000000  -0.000000  -0.000000
    29  H    0.000000  -0.000003   0.000023  -0.000001   0.000000  -0.000000
    30  H   -0.000000   0.000000   0.000383   0.000004  -0.000000   0.000000
    31  H   -0.000000   0.000002   0.000003   0.000000  -0.000000  -0.000000
    32  H   -0.000205   0.000019   0.000002   0.000000   0.000000   0.000000
              25         26         27         28         29         30
     1  N   -0.000000   0.000000   0.000000  -0.000000   0.000001   0.000002
     2  C   -0.000000   0.000001  -0.000000   0.000003  -0.000301  -0.000144
     3  C   -0.000000  -0.000021  -0.000001   0.000023   0.000035   0.000027
     4  C   -0.000002   0.000049   0.000050   0.002578  -0.000091  -0.000059
     5  C   -0.000167   0.003385   0.000518   0.003761  -0.006273  -0.004753
     6  C    0.005061  -0.006283   0.004372  -0.004883   0.004465   0.002619
     7  C    0.000468  -0.000058  -0.000189  -0.000093   0.000012   0.002055
     8  C    0.005313   0.000025   0.000001   0.000038  -0.000028  -0.000010
     9  C   -0.047629  -0.000147   0.000207  -0.000321  -0.000014  -0.000001
    10  N   -0.007114   0.000002  -0.000004   0.000001  -0.000000  -0.000000
    11  C    0.358881   0.000720  -0.005027   0.000707   0.000043  -0.000025
    12  C   -0.031226  -0.026726  -0.028131  -0.024909   0.001748  -0.000047
    13  C   -0.011092   0.371144   0.370801   0.369371   0.000235   0.000016
    14  C   -0.000002   0.001391   0.000029  -0.000018  -0.025126  -0.026277
    15  C    0.000000   0.000421   0.000006   0.000010   0.369248   0.371753
    16  C   -0.000000  -0.000018  -0.000001  -0.000041   0.001620  -0.000236
    17  H   -0.000000  -0.000000   0.000000   0.000000  -0.000000  -0.000000
    18  H   -0.000000   0.000000   0.000000   0.000000  -0.000000   0.000000
    19  H    0.000000  -0.000001   0.000000   0.000005   0.000000  -0.000000
    20  H    0.000001   0.000022   0.000002   0.000267  -0.000003   0.000000
    21  H    0.000019  -0.000000   0.000002  -0.000002   0.000023   0.000383
    22  H   -0.000204  -0.000000  -0.000000   0.000000  -0.000001   0.000004
    23  H   -0.000084  -0.000000   0.000000  -0.000000   0.000000  -0.000000
    24  H    0.004920   0.000000  -0.000001  -0.000000  -0.000000   0.000000
    25  H    0.631174   0.000198   0.006342   0.000211   0.000004  -0.000000
    26  H    0.000198   0.589800  -0.029370  -0.029886   0.000852   0.000029
    27  H    0.006342  -0.029370   0.598121  -0.029215  -0.000031   0.000000
    28  H    0.000211  -0.029886  -0.029215   0.587874   0.000038  -0.000003
    29  H    0.000004   0.000852  -0.000031   0.000038   0.589754  -0.029702
    30  H   -0.000000   0.000029   0.000000  -0.000003  -0.029702   0.587004
    31  H    0.000000  -0.000033  -0.000000   0.000000  -0.029820  -0.028966
    32  H    0.000000   0.000003   0.000000  -0.000001   0.000162   0.000271
              31         32
     1  N   -0.000005  -0.007107
     2  C    0.000170  -0.047494
     3  C    0.000004   0.005313
     4  C   -0.000191   0.000468
     5  C    0.004369   0.005053
     6  C    0.000514  -0.000163
     7  C    0.000054  -0.000003
     8  C   -0.000000  -0.000000
     9  C   -0.000000   0.000000
    10  N    0.000000   0.000000
    11  C   -0.000001  -0.000000
    12  C    0.000029  -0.000000
    13  C    0.000003  -0.000000
    14  C   -0.028065  -0.031583
    15  C    0.370656  -0.011050
    16  C   -0.005066   0.359161
    17  H    0.000000  -0.000080
    18  H   -0.000002   0.004943
    19  H   -0.000000  -0.000205
    20  H    0.000002   0.000019
    21  H    0.000003   0.000002
    22  H    0.000000   0.000000
    23  H   -0.000000   0.000000
    24  H   -0.000000   0.000000
    25  H    0.000000   0.000000
    26  H   -0.000033   0.000003
    27  H   -0.000000   0.000000
    28  H    0.000000  -0.000001
    29  H   -0.029820   0.000162
    30  H   -0.028966   0.000271
    31  H    0.598584   0.006284
    32  H    0.006284   0.631121
 Mulliken charges:
               1
     1  N   -0.673739
     2  C    0.264590
     3  C   -0.144335
     4  C   -0.117995
     5  C   -0.035578
     6  C   -0.035720
     7  C   -0.118185
     8  C   -0.144338
     9  C    0.264848
    10  N   -0.673779
    11  C   -0.186513
    12  C    0.105446
    13  C   -0.385079
    14  C    0.104386
    15  C   -0.384533
    16  C   -0.185759
    17  H    0.275157
    18  H    0.274914
    19  H    0.087279
    20  H    0.090054
    21  H    0.090510
    22  H    0.087286
    23  H    0.275169
    24  H    0.274914
    25  H    0.084927
    26  H    0.124500
    27  H    0.111520
    28  H    0.124482
    29  H    0.123148
    30  H    0.126059
    31  H    0.111478
    32  H    0.084887
 Sum of Mulliken charges =  -0.00000
 Mulliken charges with hydrogens summed into heavy atoms:
               1
     1  N   -0.123668
     2  C    0.264590
     3  C   -0.057056
     4  C   -0.027940
     5  C   -0.035578
     6  C   -0.035720
     7  C   -0.027675
     8  C   -0.057053
     9  C    0.264848
    10  N   -0.123696
    11  C   -0.101585
    12  C    0.105446
    13  C   -0.024577
    14  C    0.104386
    15  C   -0.023848
    16  C   -0.100873
 APT charges:
               1
     1  N   -1.405866
     2  C    0.249902
     3  C   -0.441716
     4  C   -0.537511
     5  C   -0.470193
     6  C   -0.463542
     7  C   -0.539513
     8  C   -0.438713
     9  C    0.257833
    10  N   -1.448985
    11  C   -0.405844
    12  C   -0.366661
    13  C   -1.050491
    14  C   -0.360438
    15  C   -1.049630
    16  C   -0.410794
    17  H    0.840808
    18  H    0.799799
    19  H    0.643386
    20  H    0.356858
    21  H    0.354309
    22  H    0.639261
    23  H    0.857430
    24  H    0.820563
    25  H    0.613336
    26  H    0.258713
    27  H    0.610925
    28  H    0.301701
    29  H    0.243446
    30  H    0.321263
    31  H    0.606011
    32  H    0.614355
 Sum of APT charges =  -0.00000
 APT charges with hydrogens summed into heavy atoms:
               1
     1  N    0.234740
     2  C    0.249902
     3  C    0.201670
     4  C   -0.180653
     5  C   -0.470193
     6  C   -0.463542
     7  C   -0.185204
     8  C    0.200548
     9  C    0.257833
    10  N    0.229008
    11  C    0.207492
    12  C   -0.366661
    13  C    0.120847
    14  C   -0.360438
    15  C    0.121089
    16  C    0.203561
 Electronic spatial extent (au):  <R**2>=           4311.5729
 Charge=              0.0000 electrons
 Dipole moment (field-independent basis, Debye):
    X=             -0.0078    Y=             -1.6669    Z=              0.3057  Tot=              1.6948
 Quadrupole moment (field-independent basis, Debye-Ang):
   XX=            -64.4091   YY=            -91.0214   ZZ=            -92.2481
   XY=             -0.3129   XZ=              9.9125   YZ=              0.2739
 Traceless Quadrupole moment (field-independent basis, Debye-Ang):
   XX=             18.1504   YY=             -8.4619   ZZ=             -9.6886
   XY=             -0.3129   XZ=              9.9125   YZ=              0.2739
 Octapole moment (field-independent basis, Debye-Ang**2):
  XXX=             -0.8492  YYY=             -1.4136  ZZZ=              0.9977  XYY=              2.5600
  XXY=            -51.7258  XXZ=             -9.2071  XZZ=             -6.0908  YZZ=             -0.4359
  YYZ=             -3.0258  XYZ=             29.5482
 Hexadecapole moment (field-independent basis, Debye-Ang**3):
 XXXX=          -3201.1779 YYYY=           -688.5432 ZZZZ=           -607.1526 XXXY=            -33.2697
 XXXZ=            300.7173 YYYX=             -5.3579 YYYZ=             -0.9736 ZZZX=             14.3875
 ZZZY=              1.3474 XXYY=           -808.1040 XXZZ=           -804.0529 YYZZ=           -199.6022
 XXYZ=              8.4142 YYXZ=              1.0434 ZZXY=            -15.9262
 N-N= 1.027635192187D+03 E-N=-3.569349219929D+03  KE= 6.464098951234D+02
  Exact polarizability:   0.000   0.000   0.000   0.000   0.000   0.000
 Approx polarizability: 344.921  -6.260 204.602  -0.060   0.148 193.692
 D2PCM: PCM CHGder 2nd derivatives, FixD1E=F FixD2E=F DoIter=F DoCFld=F I1PDM=0
 Calling FoFJK, ICntrl=    100147 FMM=F ISym2X=0 I1Cent= 0 IOpClX= 0 NMat=1 NMatS=1 NMatT=0.
 ***** Axes restored to original set *****
 -------------------------------------------------------------------
 Center     Atomic                   Forces (Hartrees/Bohr)
 Number     Number              X              Y              Z
 -------------------------------------------------------------------
      1        7          -0.000256561   -0.001465477    0.003409849
      2        6          -0.008518192    0.001599330   -0.014770656
      3        6           0.009459388    0.010806577    0.007328969
      4        6          -0.007247200   -0.005104533   -0.001324802
      5        6          -0.012006500    0.002820973    0.003469947
      6        6           0.011602749    0.000508299   -0.005175046
      7        6           0.007716263   -0.000798284    0.004038713
      8        6          -0.011636040    0.005468889   -0.009712878
      9        6           0.010394152   -0.013373213   -0.001928127
     10        7          -0.000094887    0.003505156    0.001116920
     11        6          -0.012080532    0.001991930    0.004539472
     12        6           0.012869089    0.001665311   -0.001274822
     13        6           0.002565318   -0.000176242    0.002129414
     14        6          -0.012800585   -0.000339912   -0.000148059
     15        6          -0.002073233   -0.002831093    0.000771059
     16        6           0.012165634   -0.003221151    0.003510447
     17        1          -0.000702816   -0.003726026   -0.000710314
     18        1          -0.001549970    0.003269095    0.001472538
     19        1          -0.001790033   -0.000559305    0.000955919
     20        1           0.000487574   -0.001628475   -0.000426638
     21        1          -0.000151364   -0.000410158    0.001750497
     22        1           0.001672446    0.001396665    0.000313580
     23        1           0.001243506   -0.000360920    0.003696603
     24        1           0.000906233    0.001420748   -0.003492806
     25        1          -0.000528962    0.000964719    0.000607789
     26        1          -0.004119542    0.001282014    0.001863737
     27        1           0.000108966    0.000411767   -0.001621174
     28        1          -0.003231826   -0.003145256    0.000520809
     29        1           0.003464115    0.000539916   -0.002939306
     30        1           0.004116288   -0.001660864    0.001294383
     31        1          -0.000415626    0.001735100   -0.000324887
     32        1           0.000432148   -0.000585580    0.001058870
 -------------------------------------------------------------------
 Cartesian Forces:  Max     0.014770656 RMS     0.005085997
 FormGI is forming the generalized inverse of G from B-inverse, IUseBI=4.

 GradGradGradGradGradGradGradGradGradGradGradGradGradGradGradGradGradGrad
 Berny optimization.
 Internal  Forces:  Max     0.017102622 RMS     0.002737233
 Search for a local minimum.
 Step number   1 out of a maximum of  169
 All quantities printed in internal units (Hartrees-Bohrs-Radians)
 Mixed Optimization -- RFO/linear search
 Second derivative matrix not updated -- analytic derivatives used.
 ITU=  0
     Eigenvalues ---   -0.00010   0.00045   0.00074   0.00529   0.00536
     Eigenvalues ---    0.01596   0.01608   0.01664   0.01668   0.01699
     Eigenvalues ---    0.01725   0.01873   0.01889   0.02025   0.02031
     Eigenvalues ---    0.02122   0.02152   0.02234   0.02301   0.02323
     Eigenvalues ---    0.02329   0.02701   0.02749   0.02888   0.02891
     Eigenvalues ---    0.05745   0.05761   0.05860   0.05868   0.11363
     Eigenvalues ---    0.11366   0.11837   0.11844   0.12387   0.12406
     Eigenvalues ---    0.12543   0.12585   0.13517   0.13523   0.14459
     Eigenvalues ---    0.14626   0.15094   0.15158   0.15319   0.15346
     Eigenvalues ---    0.18154   0.18238   0.18345   0.18362   0.19265
     Eigenvalues ---    0.19307   0.19528   0.19607   0.20116   0.20139
     Eigenvalues ---    0.22674   0.22757   0.31327   0.31711   0.31827
     Eigenvalues ---    0.31960   0.33671   0.33688   0.33841   0.33880
     Eigenvalues ---    0.34382   0.34612   0.34633   0.35474   0.35627
     Eigenvalues ---    0.35634   0.35744   0.35835   0.36029   0.38317
     Eigenvalues ---    0.39918   0.41189   0.41209   0.44292   0.44360
     Eigenvalues ---    0.45518   0.45524   0.45992   0.45997   0.46349
     Eigenvalues ---    0.46720   0.47398   0.47553   0.51073   0.51155
 RFO step:  Lambda=-6.64733459D-03 EMin=-9.93471276D-05
 Linear search not attempted -- first point.
 Iteration  1 RMS(Cart)=  0.02625933 RMS(Int)=  0.00056413
 Iteration  2 RMS(Cart)=  0.00085471 RMS(Int)=  0.00033369
 Iteration  3 RMS(Cart)=  0.00000040 RMS(Int)=  0.00033369
 Variable       Old X    -DE/DX   Delta X   Delta X   Delta X     New X
                                 (Linear)    (Quad)   (Total)
    R1        2.64542   0.00229   0.00000  -0.00351  -0.00351   2.64192
    R2        1.91806  -0.00245   0.00000  -0.00490  -0.00490   1.91316
    R3        1.91809  -0.00241   0.00000  -0.00488  -0.00488   1.91321
    R4        2.63223   0.00882   0.00000   0.01943   0.01952   2.65175
    R5        2.64040   0.00698   0.00000   0.01534   0.01540   2.65580
    R6        2.64064  -0.00338   0.00000  -0.00817  -0.00814   2.63250
    R7        2.05286   0.00079   0.00000   0.00122   0.00122   2.05407
    R8        2.65449   0.00024   0.00000  -0.00488  -0.00495   2.64954
    R9        2.05663  -0.00135   0.00000  -0.00230  -0.00230   2.05433
   R10        2.78314   0.01710   0.00000   0.04451   0.04451   2.82765
   R11        2.66603   0.00128   0.00000   0.00510   0.00500   2.67103
   R12        2.65449   0.00006   0.00000  -0.00514  -0.00520   2.64929
   R13        2.66596   0.00133   0.00000   0.00539   0.00530   2.67126
   R14        2.64052  -0.00327   0.00000  -0.00796  -0.00794   2.63258
   R15        2.05687  -0.00144   0.00000  -0.00256  -0.00256   2.05431
   R16        2.63226   0.00876   0.00000   0.01930   0.01938   2.65165
   R17        2.05288   0.00079   0.00000   0.00121   0.00121   2.05408
   R18        2.64546   0.00229   0.00000  -0.00356  -0.00356   2.64190
   R19        2.64052   0.00699   0.00000   0.01539   0.01546   2.65597
   R20        1.91818  -0.00251   0.00000  -0.00501  -0.00501   1.91317
   R21        1.91802  -0.00239   0.00000  -0.00482  -0.00482   1.91320
   R22        2.66047  -0.00643   0.00000  -0.01932  -0.01934   2.64114
   R23        2.05527   0.00004   0.00000   0.00071   0.00071   2.05598
   R24        2.84496   0.00490   0.00000   0.01247   0.01247   2.85743
   R25        2.06830   0.00050   0.00000   0.00213   0.00213   2.07043
   R26        2.06984  -0.00113   0.00000  -0.00394  -0.00394   2.06590
   R27        2.06835   0.00020   0.00000   0.00125   0.00125   2.06960
   R28        2.84531   0.00490   0.00000   0.01225   0.01225   2.85756
   R29        2.66057  -0.00641   0.00000  -0.01928  -0.01931   2.64127
   R30        2.06824   0.00018   0.00000   0.00103   0.00103   2.06927
   R31        2.06828   0.00045   0.00000   0.00230   0.00230   2.07058
   R32        2.06990  -0.00114   0.00000  -0.00393  -0.00393   2.06597
   R33        2.05535   0.00001   0.00000   0.00063   0.00063   2.05598
    A1        1.98476   0.00196   0.00000   0.01144   0.01144   1.99620
    A2        1.98469   0.00219   0.00000   0.01250   0.01250   1.99720
    A3        1.96035  -0.00348   0.00000  -0.02615  -0.02614   1.93421
    A4        2.09946   0.00204   0.00000   0.01348   0.01190   2.11136
    A5        2.09942   0.00137   0.00000   0.00797   0.00633   2.10575
    A6        2.06920  -0.00282   0.00000  -0.00463  -0.00611   2.06309
    A7        2.10455  -0.00275   0.00000  -0.01129  -0.01123   2.09332
    A8        2.10104  -0.00033   0.00000  -0.00851  -0.00854   2.09250
    A9        2.07760   0.00308   0.00000   0.01980   0.01977   2.09737
   A10        2.11433   0.00410   0.00000   0.01790   0.01779   2.13212
   A11        2.07735  -0.00091   0.00000  -0.00054  -0.00051   2.07685
   A12        2.09142  -0.00319   0.00000  -0.01723  -0.01720   2.07422
   A13        2.07756   0.00356   0.00000   0.01685   0.01694   2.09450
   A14        2.06903  -0.00122   0.00000  -0.00704  -0.00729   2.06174
   A15        2.13632  -0.00233   0.00000  -0.00953  -0.00944   2.12688
   A16        2.07867   0.00339   0.00000   0.01567   0.01573   2.09440
   A17        2.13526  -0.00215   0.00000  -0.00838  -0.00832   2.12694
   A18        2.06922  -0.00124   0.00000  -0.00716  -0.00740   2.06181
   A19        2.11424   0.00409   0.00000   0.01797   0.01784   2.13207
   A20        2.09128  -0.00316   0.00000  -0.01708  -0.01707   2.07421
   A21        2.07757  -0.00093   0.00000  -0.00067  -0.00067   2.07690
   A22        2.10445  -0.00271   0.00000  -0.01115  -0.01109   2.09336
   A23        2.07743   0.00308   0.00000   0.01992   0.01989   2.09733
   A24        2.10130  -0.00037   0.00000  -0.00877  -0.00880   2.09250
   A25        2.09947   0.00205   0.00000   0.01361   0.01206   2.11153
   A26        2.06951  -0.00285   0.00000  -0.00493  -0.00638   2.06313
   A27        2.09943   0.00138   0.00000   0.00780   0.00618   2.10562
   A28        1.98433   0.00201   0.00000   0.01182   0.01182   1.99615
   A29        1.98486   0.00216   0.00000   0.01233   0.01233   1.99719
   A30        1.96023  -0.00349   0.00000  -0.02606  -0.02606   1.93417
   A31        2.12127   0.00189   0.00000   0.00872   0.00873   2.13000
   A32        2.07865  -0.00045   0.00000  -0.00453  -0.00454   2.07411
   A33        2.08327  -0.00144   0.00000  -0.00419  -0.00420   2.07907
   A34        2.08446   0.00097   0.00000   0.00154   0.00137   2.08583
   A35        2.11963  -0.00281   0.00000  -0.00845  -0.00839   2.11124
   A36        2.07904   0.00185   0.00000   0.00702   0.00708   2.08612
   A37        1.92897   0.00339   0.00000   0.01610   0.01611   1.94507
   A38        1.94553  -0.00219   0.00000  -0.00608  -0.00613   1.93940
   A39        1.92768   0.00317   0.00000   0.01697   0.01697   1.94465
   A40        1.87347   0.00033   0.00000   0.01048   0.01043   1.88390
   A41        1.91315  -0.00538   0.00000  -0.05050  -0.05045   1.86271
   A42        1.87339   0.00039   0.00000   0.01147   0.01142   1.88481
   A43        2.12062  -0.00276   0.00000  -0.00895  -0.00889   2.11172
   A44        2.08436   0.00093   0.00000   0.00171   0.00149   2.08585
   A45        2.07791   0.00183   0.00000   0.00759   0.00765   2.08556
   A46        1.93278   0.00269   0.00000   0.01373   0.01372   1.94649
   A47        1.92498   0.00377   0.00000   0.01857   0.01858   1.94356
   A48        1.94447  -0.00206   0.00000  -0.00522  -0.00528   1.93919
   A49        1.91291  -0.00533   0.00000  -0.05013  -0.05008   1.86282
   A50        1.86798   0.00091   0.00000   0.01766   0.01758   1.88556
   A51        1.87906  -0.00026   0.00000   0.00388   0.00384   1.88291
   A52        2.12141   0.00192   0.00000   0.00867   0.00865   2.13006
   A53        2.07893  -0.00051   0.00000  -0.00481  -0.00480   2.07413
   A54        2.08285  -0.00141   0.00000  -0.00386  -0.00385   2.07900
    D1       -0.52798   0.00112   0.00000   0.04465   0.04497  -0.48301
    D2        2.80215  -0.00222   0.00000  -0.05881  -0.05913   2.74302
    D3       -2.80120   0.00222   0.00000   0.05978   0.06009  -2.74111
    D4        0.52893  -0.00111   0.00000  -0.04369  -0.04400   0.48493
    D5       -3.04172  -0.00155   0.00000  -0.03766  -0.03792  -3.07964
    D6        0.09912  -0.00154   0.00000  -0.03761  -0.03772   0.06141
    D7       -0.08544   0.00217   0.00000   0.06533   0.06496  -0.02047
    D8        3.05541   0.00218   0.00000   0.06538   0.06516   3.12057
    D9        3.04677   0.00169   0.00000   0.03483   0.03431   3.08108
   D10       -0.09607   0.00160   0.00000   0.03540   0.03504  -0.06103
   D11        0.09049  -0.00210   0.00000  -0.06877  -0.06885   0.02164
   D12       -3.05236  -0.00219   0.00000  -0.06819  -0.06812  -3.12047
   D13        0.03269  -0.00069   0.00000  -0.02429  -0.02440   0.00829
   D14       -3.12311  -0.00048   0.00000  -0.01375  -0.01366  -3.13677
   D15       -3.10816  -0.00070   0.00000  -0.02433  -0.02459  -3.13275
   D16        0.01922  -0.00049   0.00000  -0.01379  -0.01385   0.00537
   D17        3.13446  -0.00010   0.00000  -0.00169  -0.00153   3.13293
   D18        0.01740  -0.00049   0.00000  -0.01383  -0.01375   0.00365
   D19        0.00719  -0.00034   0.00000  -0.01245  -0.01239  -0.00520
   D20       -3.10987  -0.00073   0.00000  -0.02459  -0.02461  -3.13448
   D21       -1.61482   0.00010   0.00000   0.00322   0.00323  -1.61159
   D22        1.53553  -0.00050   0.00000  -0.01430  -0.01437   1.52117
   D23        1.50125   0.00052   0.00000   0.01590   0.01597   1.51722
   D24       -1.63158  -0.00007   0.00000  -0.00161  -0.00163  -1.63321
   D25        3.10195   0.00074   0.00000   0.02554   0.02550   3.12745
   D26       -0.01304   0.00038   0.00000   0.01008   0.01018  -0.00286
   D27       -0.01424   0.00025   0.00000   0.01258   0.01265  -0.00159
   D28       -3.12923  -0.00011   0.00000  -0.00288  -0.00267  -3.13190
   D29        3.13986  -0.00035   0.00000  -0.00866  -0.00887   3.13099
   D30       -0.01707   0.00018   0.00000   0.00816   0.00805  -0.00902
   D31       -0.01017   0.00022   0.00000   0.00817   0.00807  -0.00210
   D32        3.11609   0.00075   0.00000   0.02499   0.02499   3.14108
   D33       -3.13939   0.00039   0.00000   0.00867   0.00841  -3.13098
   D34        0.01423   0.00007   0.00000  -0.00253  -0.00265   0.01158
   D35        0.01093  -0.00023   0.00000  -0.00886  -0.00899   0.00194
   D36       -3.11864  -0.00055   0.00000  -0.02006  -0.02004  -3.13869
   D37       -0.03892   0.00095   0.00000   0.02998   0.03010  -0.00882
   D38        3.10526   0.00094   0.00000   0.02984   0.03013   3.13539
[...]
    53    C    4  py     Ryd( 3p)     0.00491
    54    C    4  pz     Val( 2p)     1.11414
    55    C    4  pz     Ryd( 3p)     0.00485
    56    C    4  dxy    Ryd( 3d)     0.00062
    57    C    4  dxz    Ryd( 3d)     0.00064
    58    C    4  dyz    Ryd( 3d)     0.00044
    59    C    4  dx2y2  Ryd( 3d)     0.00051
    60    C    4  dz2    Ryd( 3d)     0.00042

    61    C    5  S      Cor( 1S)     1.99895
    62    C    5  S      Val( 2S)     0.86977
    63    C    5  S      Ryd( 3S)     0.00096
    64    C    5  S      Ryd( 4S)     0.00006
    65    C    5  px     Val( 2p)     1.06213
    66    C    5  px     Ryd( 3p)     0.00521
    67    C    5  py     Val( 2p)     1.04418
    68    C    5  py     Ryd( 3p)     0.00374
    69    C    5  pz     Val( 2p)     1.02362
    70    C    5  pz     Ryd( 3p)     0.00381
    71    C    5  dxy    Ryd( 3d)     0.00069
    72    C    5  dxz    Ryd( 3d)     0.00063
    73    C    5  dyz    Ryd( 3d)     0.00040
    74    C    5  dx2y2  Ryd( 3d)     0.00077
    75    C    5  dz2    Ryd( 3d)     0.00086

    76    C    6  S      Cor( 1S)     1.99895
    77    C    6  S      Val( 2S)     0.86956
    78    C    6  S      Ryd( 3S)     0.00096
    79    C    6  S      Ryd( 4S)     0.00006
    80    C    6  px     Val( 2p)     1.06219
    81    C    6  px     Ryd( 3p)     0.00521
    82    C    6  py     Val( 2p)     1.04412
    83    C    6  py     Ryd( 3p)     0.00375
    84    C    6  pz     Val( 2p)     1.02651
    85    C    6  pz     Ryd( 3p)     0.00380
    86    C    6  dxy    Ryd( 3d)     0.00068
    87    C    6  dxz    Ryd( 3d)     0.00064
    88    C    6  dyz    Ryd( 3d)     0.00040
    89    C    6  dx2y2  Ryd( 3d)     0.00076
    90    C    6  dz2    Ryd( 3d)     0.00086

    91    C    7  S      Cor( 1S)     1.99905
    92    C    7  S      Val( 2S)     0.94584
    93    C    7  S      Ryd( 3S)     0.00072
    94    C    7  S      Ryd( 4S)     0.00005
    95    C    7  px     Val( 2p)     1.09447
    96    C    7  px     Ryd( 3p)     0.00418
    97    C    7  py     Val( 2p)     1.11180
    98    C    7  py     Ryd( 3p)     0.00485
    99    C    7  pz     Val( 2p)     1.11535
   100    C    7  pz     Ryd( 3p)     0.00486
   101    C    7  dxy    Ryd( 3d)     0.00062
   102    C    7  dxz    Ryd( 3d)     0.00064
   103    C    7  dyz    Ryd( 3d)     0.00044
   104    C    7  dx2y2  Ryd( 3d)     0.00050
   105    C    7  dz2    Ryd( 3d)     0.00043

   106    C    8  S      Cor( 1S)     1.99903
   107    C    8  S      Val( 2S)     0.95090
   108    C    8  S      Ryd( 3S)     0.00063
   109    C    8  S      Ryd( 4S)     0.00004
   110    C    8  px     Val( 2p)     1.09515
   111    C    8  px     Ryd( 3p)     0.00450
   112    C    8  py     Val( 2p)     1.12766
   113    C    8  py     Ryd( 3p)     0.00413
   114    C    8  pz     Val( 2p)     1.12920
   115    C    8  pz     Ryd( 3p)     0.00426
   116    C    8  dxy    Ryd( 3d)     0.00063
   117    C    8  dxz    Ryd( 3d)     0.00062
   118    C    8  dyz    Ryd( 3d)     0.00046
   119    C    8  dx2y2  Ryd( 3d)     0.00044
   120    C    8  dz2    Ryd( 3d)     0.00037

   121    C    9  S      Cor( 1S)     1.99897
   122    C    9  S      Val( 2S)     0.84846
   123    C    9  S      Ryd( 3S)     0.00118
   124    C    9  S      Ryd( 4S)     0.00010
   125    C    9  px     Val( 2p)     0.89914
   126    C    9  px     Ryd( 3p)     0.00566
   127    C    9  py     Val( 2p)     1.02754
   128    C    9  py     Ryd( 3p)     0.00304
   129    C    9  pz     Val( 2p)     1.02249
   130    C    9  pz     Ryd( 3p)     0.00295
   131    C    9  dxy    Ryd( 3d)     0.00118
   132    C    9  dxz    Ryd( 3d)     0.00115
   133    C    9  dyz    Ryd( 3d)     0.00041
   134    C    9  dx2y2  Ryd( 3d)     0.00114
   135    C    9  dz2    Ryd( 3d)     0.00106

   136    N   10  S      Cor( 1S)     1.99949
   137    N   10  S      Val( 2S)     1.37050
   138    N   10  S      Ryd( 3S)     0.00011
   139    N   10  S      Ryd( 4S)     0.00001
   140    N   10  px     Val( 2p)     1.31982
   141    N   10  px     Ryd( 3p)     0.00224
   142    N   10  py     Val( 2p)     1.53604
   143    N   10  py     Ryd( 3p)     0.00264
   144    N   10  pz     Val( 2p)     1.53942
   145    N   10  pz     Ryd( 3p)     0.00269
   146    N   10  dxy    Ryd( 3d)     0.00067
   147    N   10  dxz    Ryd( 3d)     0.00061
   148    N   10  dyz    Ryd( 3d)     0.00053
   149    N   10  dx2y2  Ryd( 3d)     0.00068
   150    N   10  dz2    Ryd( 3d)     0.00083

   151    C   11  S      Cor( 1S)     1.99898
   152    C   11  S      Val( 2S)     0.94091
   153    C   11  S      Ryd( 3S)     0.00062
   154    C   11  S      Ryd( 4S)     0.00004
   155    C   11  px     Val( 2p)     1.10346
   156    C   11  px     Ryd( 3p)     0.00397
   157    C   11  py     Val( 2p)     1.13241
   158    C   11  py     Ryd( 3p)     0.00420
   159    C   11  pz     Val( 2p)     1.13875
   160    C   11  pz     Ryd( 3p)     0.00421
   161    C   11  dxy    Ryd( 3d)     0.00060
   162    C   11  dxz    Ryd( 3d)     0.00062
   163    C   11  dyz    Ryd( 3d)     0.00045
   164    C   11  dx2y2  Ryd( 3d)     0.00044
   165    C   11  dz2    Ryd( 3d)     0.00036

   166    C   12  S      Cor( 1S)     1.99898
   167    C   12  S      Val( 2S)     0.87291
   168    C   12  S      Ryd( 3S)     0.00051
   169    C   12  S      Ryd( 4S)     0.00005
   170    C   12  px     Val( 2p)     1.07340
   171    C   12  px     Ryd( 3p)     0.00394
   172    C   12  py     Val( 2p)     1.03654
   173    C   12  py     Ryd( 3p)     0.00420
   174    C   12  pz     Val( 2p)     1.04882
   175    C   12  pz     Ryd( 3p)     0.00413
   176    C   12  dxy    Ryd( 3d)     0.00071
   177    C   12  dxz    Ryd( 3d)     0.00074
   178    C   12  dyz    Ryd( 3d)     0.00045
   179    C   12  dx2y2  Ryd( 3d)     0.00060
   180    C   12  dz2    Ryd( 3d)     0.00054

   181    C   13  S      Cor( 1S)     1.99940
   182    C   13  S      Val( 2S)     1.09574
   183    C   13  S      Ryd( 3S)     0.00022
   184    C   13  S      Ryd( 4S)     0.00001
   185    C   13  px     Val( 2p)     1.22678
   186    C   13  px     Ryd( 3p)     0.00203
   187    C   13  py     Val( 2p)     1.18276
   188    C   13  py     Ryd( 3p)     0.00081
   189    C   13  pz     Val( 2p)     1.18769
   190    C   13  pz     Ryd( 3p)     0.00080
   191    C   13  dxy    Ryd( 3d)     0.00082
   192    C   13  dxz    Ryd( 3d)     0.00086
   193    C   13  dyz    Ryd( 3d)     0.00076
   194    C   13  dx2y2  Ryd( 3d)     0.00022
   195    C   13  dz2    Ryd( 3d)     0.00028

   196    C   14  S      Cor( 1S)     1.99898
   197    C   14  S      Val( 2S)     0.87270
   198    C   14  S      Ryd( 3S)     0.00052
   199    C   14  S      Ryd( 4S)     0.00005
   200    C   14  px     Val( 2p)     1.07376
   201    C   14  px     Ryd( 3p)     0.00395
   202    C   14  py     Val( 2p)     1.03722
   203    C   14  py     Ryd( 3p)     0.00421
   204    C   14  pz     Val( 2p)     1.04930
   205    C   14  pz     Ryd( 3p)     0.00418
   206    C   14  dxy    Ryd( 3d)     0.00071
   207    C   14  dxz    Ryd( 3d)     0.00073
   208    C   14  dyz    Ryd( 3d)     0.00045
   209    C   14  dx2y2  Ryd( 3d)     0.00060
   210    C   14  dz2    Ryd( 3d)     0.00054

   211    C   15  S      Cor( 1S)     1.99940
   212    C   15  S      Val( 2S)     1.09576
   213    C   15  S      Ryd( 3S)     0.00022
   214    C   15  S      Ryd( 4S)     0.00001
   215    C   15  px     Val( 2p)     1.22718
   216    C   15  px     Ryd( 3p)     0.00203
   217    C   15  py     Val( 2p)     1.18140
   218    C   15  py     Ryd( 3p)     0.00082
   219    C   15  pz     Val( 2p)     1.18851
   220    C   15  pz     Ryd( 3p)     0.00079
   221    C   15  dxy    Ryd( 3d)     0.00082
   222    C   15  dxz    Ryd( 3d)     0.00086
   223    C   15  dyz    Ryd( 3d)     0.00076
   224    C   15  dx2y2  Ryd( 3d)     0.00022
   225    C   15  dz2    Ryd( 3d)     0.00028

   226    C   16  S      Cor( 1S)     1.99898
   227    C   16  S      Val( 2S)     0.94086
   228    C   16  S      Ryd( 3S)     0.00062
   229    C   16  S      Ryd( 4S)     0.00004
   230    C   16  px     Val( 2p)     1.10434
   231    C   16  px     Ryd( 3p)     0.00398
   232    C   16  py     Val( 2p)     1.13490
   233    C   16  py     Ryd( 3p)     0.00411
   234    C   16  pz     Val( 2p)     1.13566
   235    C   16  pz     Ryd( 3p)     0.00436
   236    C   16  dxy    Ryd( 3d)     0.00061
   237    C   16  dxz    Ryd( 3d)     0.00060
   238    C   16  dyz    Ryd( 3d)     0.00045
   239    C   16  dx2y2  Ryd( 3d)     0.00044
   240    C   16  dz2    Ryd( 3d)     0.00036

   241    H   17  S      Val( 1S)     0.57527
   242    H   17  S      Ryd( 2S)     0.00143
   243    H   17  px     Ryd( 2p)     0.00028
   244    H   17  py     Ryd( 2p)     0.00061
   245    H   17  pz     Ryd( 2p)     0.00036

   246    H   18  S      Val( 1S)     0.57566
   247    H   18  S      Ryd( 2S)     0.00157
   248    H   18  px     Ryd( 2p)     0.00030
   249    H   18  py     Ryd( 2p)     0.00035
   250    H   18  pz     Ryd( 2p)     0.00059

   251    H   19  S      Val( 1S)     0.76011
   252    H   19  S      Ryd( 2S)     0.00103
   253    H   19  px     Ryd( 2p)     0.00012
   254    H   19  py     Ryd( 2p)     0.00025
   255    H   19  pz     Ryd( 2p)     0.00025

   256    H   20  S      Val( 1S)     0.75908
   257    H   20  S      Ryd( 2S)     0.00093
   258    H   20  px     Ryd( 2p)     0.00016
   259    H   20  py     Ryd( 2p)     0.00024
   260    H   20  pz     Ryd( 2p)     0.00024

   261    H   21  S      Val( 1S)     0.75899
   262    H   21  S      Ryd( 2S)     0.00092
   263    H   21  px     Ryd( 2p)     0.00016
   264    H   21  py     Ryd( 2p)     0.00024
   265    H   21  pz     Ryd( 2p)     0.00024

   266    H   22  S      Val( 1S)     0.76031
   267    H   22  S      Ryd( 2S)     0.00103
   268    H   22  px     Ryd( 2p)     0.00012
   269    H   22  py     Ryd( 2p)     0.00026
   270    H   22  pz     Ryd( 2p)     0.00024

   271    H   23  S      Val( 1S)     0.57550
   272    H   23  S      Ryd( 2S)     0.00138
   273    H   23  px     Ryd( 2p)     0.00028
   274    H   23  py     Ryd( 2p)     0.00036
   275    H   23  pz     Ryd( 2p)     0.00060

   276    H   24  S      Val( 1S)     0.57609
   277    H   24  S      Ryd( 2S)     0.00158
   278    H   24  px     Ryd( 2p)     0.00030
   279    H   24  py     Ryd( 2p)     0.00059
   280    H   24  pz     Ryd( 2p)     0.00035

   281    H   25  S      Val( 1S)     0.76431
   282    H   25  S      Ryd( 2S)     0.00117
   283    H   25  px     Ryd( 2p)     0.00015
   284    H   25  py     Ryd( 2p)     0.00023
   285    H   25  pz     Ryd( 2p)     0.00024

   286    H   26  S      Val( 1S)     0.75481
   287    H   26  S      Ryd( 2S)     0.00094
   288    H   26  px     Ryd( 2p)     0.00019
   289    H   26  py     Ryd( 2p)     0.00016
   290    H   26  pz     Ryd( 2p)     0.00020

   291    H   27  S      Val( 1S)     0.75879
   292    H   27  S      Ryd( 2S)     0.00081
   293    H   27  px     Ryd( 2p)     0.00019
   294    H   27  py     Ryd( 2p)     0.00015
   295    H   27  pz     Ryd( 2p)     0.00016

   296    H   28  S      Val( 1S)     0.75121
   297    H   28  S      Ryd( 2S)     0.00114
   298    H   28  px     Ryd( 2p)     0.00017
   299    H   28  py     Ryd( 2p)     0.00020
   300    H   28  pz     Ryd( 2p)     0.00017

   301    H   29  S      Val( 1S)     0.75502
   302    H   29  S      Ryd( 2S)     0.00094
   303    H   29  px     Ryd( 2p)     0.00019
   304    H   29  py     Ryd( 2p)     0.00016
   305    H   29  pz     Ryd( 2p)     0.00020

   306    H   30  S      Val( 1S)     0.75108
   307    H   30  S      Ryd( 2S)     0.00113
   308    H   30  px     Ryd( 2p)     0.00017
   309    H   30  py     Ryd( 2p)     0.00020
   310    H   30  pz     Ryd( 2p)     0.00017

   311    H   31  S      Val( 1S)     0.75880
   312    H   31  S      Ryd( 2S)     0.00080
   313    H   31  px     Ryd( 2p)     0.00019
   314    H   31  py     Ryd( 2p)     0.00015
   315    H   31  pz     Ryd( 2p)     0.00016

   316    H   32  S      Val( 1S)     0.76462
   317    H   32  S      Ryd( 2S)     0.00119
   318    H   32  px     Ryd( 2p)     0.00015
   319    H   32  py     Ryd( 2p)     0.00024
   320    H   32  pz     Ryd( 2p)     0.00023

 WARNING:  1 low occupancy (<1.9990e) core orbital  found on  C    2
           1 low occupancy (<1.9990e) core orbital  found on  C    5
           1 low occupancy (<1.9990e) core orbital  found on  C    6
           1 low occupancy (<1.9990e) core orbital  found on  C    9
           1 low occupancy (<1.9990e) core orbital  found on  C   11
           1 low occupancy (<1.9990e) core orbital  found on  C   12
           1 low occupancy (<1.9990e) core orbital  found on  C   14
           1 low occupancy (<1.9990e) core orbital  found on  C   16


 Summary of Natural Population Analysis:                  
                                                          
                                       Natural Population 
                Natural  -----------------------------------------------
    Atom  No    Charge         Core      Valence    Rydberg      Total
 -----------------------------------------------------------------------
      N    1   -0.77285      1.99949     5.76237    0.01099     7.77285
      C    2    0.18557      1.99897     3.79756    0.01789     5.81443
      C    3   -0.31827      1.99903     4.30305    0.01618     6.31827
      C    4   -0.28502      1.99905     4.26863    0.01735     6.28502
      C    5   -0.01577      1.99895     3.99969    0.01712     6.01577
      C    6   -0.01844      1.99895     4.00238    0.01711     6.01844
      C    7   -0.28380      1.99905     4.26746    0.01729     6.28380
      C    8   -0.31802      1.99903     4.30291    0.01608     6.31802
      C    9    0.18551      1.99897     3.79763    0.01788     5.81449
      N   10   -0.77630      1.99949     5.76578    0.01103     7.77630
      C   11   -0.33003      1.99898     4.31554    0.01551     6.33003
      C   12   -0.04653      1.99898     4.03168    0.01588     6.04653
      C   13   -0.69918      1.99940     4.69298    0.00680     6.69918
      C   14   -0.04791      1.99898     4.03299    0.01595     6.04791
      C   15   -0.69907      1.99940     4.69286    0.00681     6.69907
      C   16   -0.33033      1.99898     4.31576    0.01559     6.33033
      H   17    0.42206      0.00000     0.57527    0.00268     0.57794
      H   18    0.42153      0.00000     0.57566    0.00282     0.57847
      H   19    0.23823      0.00000     0.76011    0.00166     0.76177
      H   20    0.23935      0.00000     0.75908    0.00157     0.76065
      H   21    0.23945      0.00000     0.75899    0.00156     0.76055
      H   22    0.23804      0.00000     0.76031    0.00165     0.76196
      H   23    0.42187      0.00000     0.57550    0.00262     0.57813
      H   24    0.42109      0.00000     0.57609    0.00282     0.57891
      H   25    0.23391      0.00000     0.76431    0.00179     0.76609
      H   26    0.24371      0.00000     0.75481    0.00149     0.75629
      H   27    0.23991      0.00000     0.75879    0.00131     0.76009
      H   28    0.24710      0.00000     0.75121    0.00169     0.75290
      H   29    0.24349      0.00000     0.75502    0.00149     0.75651
      H   30    0.24724      0.00000     0.75108    0.00167     0.75276
      H   31    0.23989      0.00000     0.75880    0.00130     0.76011
      H   32    0.23357      0.00000     0.76462    0.00181     0.76643
 =======================================================================
   * Total *   -0.00000     31.98573    81.74890    0.26536   114.00000

                                 Natural Population      
 --------------------------------------------------------
   Core                      31.98573 ( 99.9554% of  32)
   Valence                   81.74890 ( 99.6938% of  82)
   Natural Minimal Basis    113.73464 ( 99.7672% of 114)
   Natural Rydberg Basis      0.26536 (  0.2328% of 114)
 --------------------------------------------------------

    Atom  No          Natural Electron Configuration
 ----------------------------------------------------------------------------
      N    1      [core]2S( 1.37)2p( 4.39)3p( 0.01)
      C    2      [core]2S( 0.85)2p( 2.95)3p( 0.01)
      C    3      [core]2S( 0.95)2p( 3.35)3p( 0.01)
      C    4      [core]2S( 0.95)2p( 3.32)3p( 0.01)
      C    5      [core]2S( 0.87)2p( 3.13)3p( 0.01)
      C    6      [core]2S( 0.87)2p( 3.13)3p( 0.01)
      C    7      [core]2S( 0.95)2p( 3.32)3p( 0.01)
      C    8      [core]2S( 0.95)2p( 3.35)3p( 0.01)
      C    9      [core]2S( 0.85)2p( 2.95)3p( 0.01)
      N   10      [core]2S( 1.37)2p( 4.40)3p( 0.01)
      C   11      [core]2S( 0.94)2p( 3.37)3p( 0.01)
      C   12      [core]2S( 0.87)2p( 3.16)3p( 0.01)
      C   13      [core]2S( 1.10)2p( 3.60)
      C   14      [core]2S( 0.87)2p( 3.16)3p( 0.01)
      C   15      [core]2S( 1.10)2p( 3.60)
      C   16      [core]2S( 0.94)2p( 3.37)3p( 0.01)
      H   17            1S( 0.58)
      H   18            1S( 0.58)
      H   19            1S( 0.76)
      H   20            1S( 0.76)
      H   21            1S( 0.76)
      H   22            1S( 0.76)
      H   23            1S( 0.58)
      H   24            1S( 0.58)
      H   25            1S( 0.76)
      H   26            1S( 0.75)
      H   27            1S( 0.76)
      H   28            1S( 0.75)
      H   29            1S( 0.76)
      H   30            1S( 0.75)
      H   31            1S( 0.76)
      H   32            1S( 0.76)


 NBO analysis skipped by request.
 1\1\GINC-DRG2-W011\SP\RB3LYP TD-FC\6-31G(d,p)\C14H16N2\QDUEZ\22-Jul-20
 24\0\\# TD(NStates=10, Root=1) B3LYP/6-31G** SCRF=(Solvent=water) volu
 me pop=NPA density=current Geom=AllCheck Guess=Read\\QYIMZXITLDTULQ-UH
 FFFAOYSA-N_conf_0\\0,1\N,0,-4.9968913773,-0.2213215661,-0.2527395235\C
 ,0,-3.6067038415,-0.0877409797,-0.188650261\C,0,-3.0124762969,1.134628
 6567,0.1628313422\C,0,-1.6251281458,1.2601522168,0.1558430138\C,0,-0.7
 807721903,0.1968127664,-0.1933885891\C,0,0.7054012497,0.3885293054,-0.
 1951089501\C,0,1.3585756435,0.7983891126,-1.3659955289\C,0,2.735453606
 7,1.0043152296,-1.4143810203\C,0,3.5147817325,0.8002530594,-0.26467137
 88\N,0,4.9056530646,0.936441473,-0.3030746146\C,0,2.8660610716,0.39147
 02301,0.9136849752\C,0,1.4848138307,0.1839571384,0.9663636118\C,0,0.84
 5075692,-0.2472131241,2.2670929521\C,0,-1.3736150696,-1.0364320879,-0.
 5482655674\C,0,-0.5236788049,-2.2246831629,-0.9390286424\C,0,-2.766012
 57,-1.1583410527,-0.5401221724\H,0,-5.5066283228,0.4156050098,0.346774
 4906\H,0,-5.3328919502,-1.1693800383,-0.1375900753\H,0,-3.6371833065,1
 .9807668714,0.4372723976\H,0,-1.1807768273,2.2134406483,0.4308127052\H
 ,0,0.7686939324,0.9660129229,-2.2636274915\H,0,3.2089015729,1.32344909
 45,-2.3393291591\H,0,5.2447648176,1.5677316107,-1.018204741\H,0,5.3314
 67225,1.1451643182,0.5914057282\H,0,3.4599086499,0.232838508,1.8114249
 428\H,0,0.2971076668,-1.1889627818,2.1523349146\H,0,1.5964553011,-0.38
 61813541,3.0487991533\H,0,0.1199887438,0.4936183398,2.6213009818\H,0,0
 .1825390818,-2.4923653556,-0.1453540569\H,0,0.0762634543,-2.0109865071
 ,-1.8303483676\H,0,-1.1433424994,-3.1001514838,-1.1500332267\H,0,-3.21
 58051343,-2.1098170179,-0.8160278425\\Version=ES64L-G16RevA.03\State=1
 -A\HF=-652.6849772\RMSD=6.543e-09\Dipole=-0.0682488,0.228613,0.65907\Q
 uadrupole=21.7742997,-9.6129128,-12.1613869,10.7817061,-3.7908922,-0.0
 806825\PG=C01 [X(C14H16N2)]\\@


 Democracy is the recurrent suspicion that more than half of the people
 are right more than half of the time.
 -- E. B. White
 Job cpu time:       0 days  1 hours  6 minutes 39.4 seconds.
 Elapsed time:       0 days  0 hours 13 minutes 35.2 seconds.
 File lengths (MBytes):  RWF=    843 Int=      0 D2E=      0 Chk=     53 Scr=      1
 Normal termination of Gaussian 16 at Mon Jul 22 12:33:24 2024.
