 Entering Gaussian System, Link 0=g16
 Initial command:
 /opt/sw/arch/manual/gaussian/G16_A03/g16/l1.exe "/scratch/1381582/Gau-220011.inp" -scrdir="/scratch/1381582/"
 Entering Link 1 = /opt/sw/arch/manual/gaussian/G16_A03/g16/l1.exe PID=    220013.
  
 Copyright (c) 1988,1990,1992,1993,1995,1998,2003,2009,2016,
            Gaussian, Inc.  All Rights Reserved.
  
 This is part of the Gaussian(R) 16 program.  It is based on
 the Gaussian(R) 09 system (copyright 2009, Gaussian, Inc.),
 the Gaussian(R) 03 system (copyright 2003, Gaussian, Inc.),
 the Gaussian(R) 98 system (copyright 1998, Gaussian, Inc.),
 the Gaussian(R) 94 system (copyright 1995, Gaussian, Inc.),
 the Gaussian 92(TM) system (copyright 1992, Gaussian, Inc.),
 the Gaussian 90(TM) system (copyright 1990, Gaussian, Inc.),
 the Gaussian 88(TM) system (copyright 1988, Gaussian, Inc.),
 the Gaussian 86(TM) system (copyright 1986, Carnegie Mellon
 University), and the Gaussian 82(TM) system (copyright 1983,
 Carnegie Mellon University). Gaussian is a federally registered
 trademark of Gaussian, Inc.
  
 This software contains proprietary and confidential information,
 including trade secrets, belonging to Gaussian, Inc.
  
 This software is provided under written license and may be
 used, copied, transmitted, or stored only in accord with that
 written license.
  
 The following legend is applicable only to US Government
 contracts under FAR:
  
                    RESTRICTED RIGHTS LEGEND
  
 Use, reproduction and disclosure by the US Government is
 subject to restrictions as set forth in subparagraphs (a)
 and (c) of the Commercial Computer Software - Restricted
 Rights clause in FAR 52.227-19.
  
 Gaussian, Inc.
 340 Quinnipiac St., Bldg. 40, Wallingford CT 06492
  
  
 ---------------------------------------------------------------
 Warning -- This program may not be used in any manner that
 competes with the business of Gaussian, Inc. or will provide
 assistance to any competitor of Gaussian, Inc.  The licensee
 of this program is prohibited from giving any competitor of
 Gaussian, Inc. access to this program.  By using this program,
 the user acknowledges that Gaussian, Inc. is engaged in the
 business of creating and licensing software in the field of
 computational chemistry and represents and warrants to the
 licensee that it is not a competitor of Gaussian, Inc. and that
 it will not use this program in any manner prohibited above.
 ---------------------------------------------------------------
  

 Cite this work as:
 Gaussian 16, Revision A.03,
 M. J. Frisch, G. W. Trucks, H. B. Schlegel, G. E. Scuseria, 
 M. A. Robb, J. R. Cheeseman, G. Scalmani, V. Barone, 
 G. A. Petersson, H. Nakatsuji, X. Li, M. Caricato, A. V. Marenich, 
 J. Bloino, B. G. Janesko, R. Gomperts, B. Mennucci, H. P. Hratchian, 
 J. V. Ortiz, A. F. Izmaylov, J. L. Sonnenberg, D. Williams-Young, 
 F. Ding, F. Lipparini, F. Egidi, J. Goings, B. Peng, A. Petrone, 
 T. Henderson, D. Ranasinghe, V. G. Zakrzewski, J. Gao, N. Rega, 
 G. Zheng, W. Liang, M. Hada, M. Ehara, K. Toyota, R. Fukuda, 
 J. Hasegawa, M. Ishida, T. Nakajima, Y. Honda, O. Kitao, H. Nakai, 
 T. Vreven, K. Throssell, J. A. Montgomery, Jr., J. E. Peralta, 
 F. Ogliaro, M. J. Bearpark, J. J. Heyd, E. N. Brothers, K. N. Kudin, 
 V. N. Staroverov, T. A. Keith, R. Kobayashi, J. Normand, 
 K. Raghavachari, A. P. Rendell, J. C. Burant, S. S. Iyengar, 
 J. Tomasi, M. Cossi, J. M. Millam, M. Klene, C. Adamo, R. Cammi, 
 J. W. Ochterski, R. L. Martin, K. Morokuma, O. Farkas, 
 J. B. Foresman, and D. J. Fox, Gaussian, Inc., Wallingford CT, 2016.
 
 ******************************************
 Gaussian 16:  ES64L-G16RevA.03 25-Dec-2016
                22-Jul-2024 
 ******************************************
 %nprocshared=5
 Will use up to    5 processors via shared memory.
 %mem=10GB
 %Chk=QYIMZXITLDTULQ-UHFFFAOYSA-N_conf_3_0.chk
 -------------------------------------------------------
 # opt=CalcFc B3LYP/6-31G** SCRF=(Solvent=water) scf=xqc
 -------------------------------------------------------
 1/10=4,18=20,19=15,26=3,38=1/1,3;
 2/9=110,12=2,17=6,18=5,40=1/2;
 3/5=1,6=6,7=101,11=2,25=1,30=1,70=2201,71=2,72=1,74=-5,140=1/1,2,3;
 4//1;
 5/5=2,8=3,13=1,38=5,53=1/2,8;
 8/6=4,10=90,11=11/1;
 11/6=1,8=1,9=11,15=111,16=1/1,2,10;
 10/6=1,13=1/2;
 6/7=2,8=2,9=2,10=2,28=1/1;
 7/10=1,18=20,25=1/1,2,3,16;
 1/10=4,18=20,19=15,26=3/3(2);
 2/9=110/2;
 99//99;
 2/9=110/2;
 3/5=1,6=6,7=101,11=2,25=1,30=1,70=2205,71=1,72=1,74=-5/1,2,3;
 4/5=5,16=3,69=1/1;
 5/5=2,8=3,13=1,38=5,53=1/2,8;
 7//1,2,3,16;
 1/18=20,19=15,26=3/3(-5);
 2/9=110/2;
 6/7=2,8=2,9=2,10=2,19=2,28=1/1;
 99/9=1/99;
 ----------------------------------
 QYIMZXITLDTULQ-UHFFFAOYSA-N_conf_3
 ----------------------------------
 Symbolic Z-matrix:
 Charge =  0 Multiplicity = 1
 N                     4.75927   0.03258   1.46158 
 C                     3.40922  -0.13176   1.12983 
 C                     2.42075   0.06097   2.0921 
 C                     1.06885   0.01301   1.7419 
 C                     0.67009  -0.18321   0.40935 
 C                    -0.76749  -0.22934   0.09227 
 C                    -1.41405  -1.47513   0.03589 
 C                    -2.77689  -1.56938  -0.25801 
 C                    -3.53976  -0.42116  -0.45751 
 N                    -4.87497  -0.5226   -0.86575 
 C                    -2.89412   0.81799  -0.46033 
 C                    -1.52184   0.93421  -0.16788 
 C                    -0.89011   2.30088  -0.15094 
 C                     1.667    -0.31939  -0.57969 
 C                     1.31388  -0.506    -2.03145 
 C                     3.02351  -0.26995  -0.20602 
 H                     5.39672  -0.4205    0.81456 
 H                     4.97149  -0.18756   2.42944 
 H                     2.69097   0.24843   3.12744 
 H                     0.31739   0.14459   2.51806 
 H                    -0.84698  -2.3877    0.20932 
 H                    -3.23485  -2.55207  -0.32646 
 H                    -5.33815  -1.36543  -0.54118 
 H                    -5.4222    0.31257  -0.68329 
 H                    -3.46733   1.71266  -0.69253 
 H                    -0.50176   2.52968   0.84643 
 H                    -1.61548   3.08083  -0.40637 
 H                    -0.07896   2.35898  -0.88336 
 H                     2.21055  -0.56038  -2.65817 
 H                     0.75932  -1.43897  -2.17267 
 H                     0.71514   0.33571  -2.39313 
 H                     3.79082  -0.34255  -0.97342 
 

 GradGradGradGradGradGradGradGradGradGradGradGradGradGradGradGradGradGrad
 Berny optimization.
 Initialization pass.
                           ----------------------------
                           !    Initial Parameters    !
                           ! (Angstroms and Degrees)  !
 --------------------------                            --------------------------
 ! Name  Definition              Value          Derivative Info.                !
 --------------------------------------------------------------------------------
 ! R1    R(1,2)                  1.3999         calculate D2E/DX2 analytically  !
 ! R2    R(1,17)                 1.015          calculate D2E/DX2 analytically  !
 ! R3    R(1,18)                 1.015          calculate D2E/DX2 analytically  !
 ! R4    R(2,3)                  1.3929         calculate D2E/DX2 analytically  !
 ! R5    R(2,16)                 1.3973         calculate D2E/DX2 analytically  !
 ! R6    R(3,4)                  1.3973         calculate D2E/DX2 analytically  !
 ! R7    R(3,19)                 1.0863         calculate D2E/DX2 analytically  !
 ! R8    R(4,5)                  1.4047         calculate D2E/DX2 analytically  !
 ! R9    R(4,20)                 1.0883         calculate D2E/DX2 analytically  !
 ! R10   R(5,6)                  1.4729         calculate D2E/DX2 analytically  !
 ! R11   R(5,14)                 1.4109         calculate D2E/DX2 analytically  !
 ! R12   R(6,7)                  1.4047         calculate D2E/DX2 analytically  !
 ! R13   R(6,12)                 1.4109         calculate D2E/DX2 analytically  !
 ! R14   R(7,8)                  1.3973         calculate D2E/DX2 analytically  !
 ! R15   R(7,21)                 1.0883         calculate D2E/DX2 analytically  !
 ! R16   R(8,9)                  1.3929         calculate D2E/DX2 analytically  !
 ! R17   R(8,22)                 1.0863         calculate D2E/DX2 analytically  !
 ! R18   R(9,10)                 1.3999         calculate D2E/DX2 analytically  !
 ! R19   R(9,11)                 1.3973         calculate D2E/DX2 analytically  !
 ! R20   R(10,23)                1.015          calculate D2E/DX2 analytically  !
 ! R21   R(10,24)                1.015          calculate D2E/DX2 analytically  !
 ! R22   R(11,12)                1.4079         calculate D2E/DX2 analytically  !
 ! R23   R(11,25)                1.0876         calculate D2E/DX2 analytically  !
 ! R24   R(12,13)                1.5057         calculate D2E/DX2 analytically  !
 ! R25   R(13,26)                1.0945         calculate D2E/DX2 analytically  !
 ! R26   R(13,27)                1.0953         calculate D2E/DX2 analytically  !
 ! R27   R(13,28)                1.0944         calculate D2E/DX2 analytically  !
 ! R28   R(14,15)                1.5057         calculate D2E/DX2 analytically  !
 ! R29   R(14,16)                1.4079         calculate D2E/DX2 analytically  !
 ! R30   R(15,29)                1.0953         calculate D2E/DX2 analytically  !
 ! R31   R(15,30)                1.0945         calculate D2E/DX2 analytically  !
 ! R32   R(15,31)                1.0944         calculate D2E/DX2 analytically  !
 ! R33   R(16,32)                1.0876         calculate D2E/DX2 analytically  !
 ! A1    A(2,1,17)             113.7152         calculate D2E/DX2 analytically  !
 ! A2    A(2,1,18)             113.7132         calculate D2E/DX2 analytically  !
 ! A3    A(17,1,18)            112.3161         calculate D2E/DX2 analytically  !
 ! A4    A(1,2,3)              120.2924         calculate D2E/DX2 analytically  !
 ! A5    A(1,2,16)             120.2912         calculate D2E/DX2 analytically  !
 ! A6    A(3,2,16)             118.5721         calculate D2E/DX2 analytically  !
 ! A7    A(2,3,4)              120.576          calculate D2E/DX2 analytically  !
 ! A8    A(2,3,19)             120.3828         calculate D2E/DX2 analytically  !
 ! A9    A(4,3,19)             119.041          calculate D2E/DX2 analytically  !
 ! A10   A(3,4,5)              121.1433         calculate D2E/DX2 analytically  !
 ! A11   A(3,4,20)             119.0218         calculate D2E/DX2 analytically  !
 ! A12   A(5,4,20)             119.8292         calculate D2E/DX2 analytically  !
 ! A13   A(4,5,6)              119.057          calculate D2E/DX2 analytically  !
 ! A14   A(4,5,14)             118.5482         calculate D2E/DX2 analytically  !
 ! A15   A(6,5,14)             122.3931         calculate D2E/DX2 analytically  !
 ! A16   A(5,6,7)              119.057          calculate D2E/DX2 analytically  !
 ! A17   A(5,6,12)             122.3931         calculate D2E/DX2 analytically  !
 ! A18   A(7,6,12)             118.5482         calculate D2E/DX2 analytically  !
 ! A19   A(6,7,8)              121.1433         calculate D2E/DX2 analytically  !
 ! A20   A(6,7,21)             119.8292         calculate D2E/DX2 analytically  !
 ! A21   A(8,7,21)             119.0219         calculate D2E/DX2 analytically  !
 ! A22   A(7,8,9)              120.5761         calculate D2E/DX2 analytically  !
 ! A23   A(7,8,22)             119.041          calculate D2E/DX2 analytically  !
 ! A24   A(9,8,22)             120.3828         calculate D2E/DX2 analytically  !
 ! A25   A(8,9,10)             120.2925         calculate D2E/DX2 analytically  !
 ! A26   A(8,9,11)             118.5721         calculate D2E/DX2 analytically  !
 ! A27   A(10,9,11)            120.2911         calculate D2E/DX2 analytically  !
 ! A28   A(9,10,23)            113.7133         calculate D2E/DX2 analytically  !
 ! A29   A(9,10,24)            113.7147         calculate D2E/DX2 analytically  !
 ! A30   A(23,10,24)           112.3165         calculate D2E/DX2 analytically  !
 ! A31   A(9,11,12)            121.5457         calculate D2E/DX2 analytically  !
 ! A32   A(9,11,25)            119.1046         calculate D2E/DX2 analytically  !
 ! A33   A(12,11,25)           119.3496         calculate D2E/DX2 analytically  !
 ! A34   A(6,12,11)            119.4298         calculate D2E/DX2 analytically  !
 ! A35   A(6,12,13)            121.4765         calculate D2E/DX2 analytically  !
 ! A36   A(11,12,13)           119.0919         calculate D2E/DX2 analytically  !
 ! A37   A(12,13,26)           110.4178         calculate D2E/DX2 analytically  !
 ! A38   A(12,13,27)           111.4598         calculate D2E/DX2 analytically  !
 ! A39   A(12,13,28)           110.5865         calculate D2E/DX2 analytically  !
 ! A40   A(26,13,27)           107.3755         calculate D2E/DX2 analytically  !
 ! A41   A(26,13,28)           109.6185         calculate D2E/DX2 analytically  !
 ! A42   A(27,13,28)           107.2751         calculate D2E/DX2 analytically  !
 ! A43   A(5,14,15)            121.4766         calculate D2E/DX2 analytically  !
 ! A44   A(5,14,16)            119.4297         calculate D2E/DX2 analytically  !
 ! A45   A(15,14,16)           119.0919         calculate D2E/DX2 analytically  !
 ! A46   A(14,15,29)           111.4595         calculate D2E/DX2 analytically  !
 ! A47   A(14,15,30)           110.4182         calculate D2E/DX2 analytically  !
 ! A48   A(14,15,31)           110.5868         calculate D2E/DX2 analytically  !
 ! A49   A(29,15,30)           107.3755         calculate D2E/DX2 analytically  !
 ! A50   A(29,15,31)           107.2749         calculate D2E/DX2 analytically  !
 ! A51   A(30,15,31)           109.6183         calculate D2E/DX2 analytically  !
 ! A52   A(2,16,14)            121.5459         calculate D2E/DX2 analytically  !
 ! A53   A(2,16,32)            119.1046         calculate D2E/DX2 analytically  !
 ! A54   A(14,16,32)           119.3494         calculate D2E/DX2 analytically  !
 ! D1    D(17,1,2,3)           160.4428         calculate D2E/DX2 analytically  !
 ! D2    D(17,1,2,16)          -30.2263         calculate D2E/DX2 analytically  !
 ! D3    D(18,1,2,3)            30.2067         calculate D2E/DX2 analytically  !
 ! D4    D(18,1,2,16)         -160.4623         calculate D2E/DX2 analytically  !
 ! D5    D(1,2,3,4)            174.4095         calculate D2E/DX2 analytically  !
 ! D6    D(1,2,3,19)            -5.7484         calculate D2E/DX2 analytically  !
 ! D7    D(16,2,3,4)             4.8974         calculate D2E/DX2 analytically  !
 ! D8    D(16,2,3,19)         -175.2604         calculate D2E/DX2 analytically  !
 ! D9    D(1,2,16,14)         -174.3703         calculate D2E/DX2 analytically  !
 ! D10   D(1,2,16,32)            5.7348         calculate D2E/DX2 analytically  !
 ! D11   D(3,2,16,14)           -4.8581         calculate D2E/DX2 analytically  !
 ! D12   D(3,2,16,32)          175.247          calculate D2E/DX2 analytically  !
 ! D13   D(2,3,4,5)             -2.238          calculate D2E/DX2 analytically  !
 ! D14   D(2,3,4,20)           178.622          calculate D2E/DX2 analytically  !
 ! D15   D(19,3,4,5)           177.9177         calculate D2E/DX2 analytically  !
 ! D16   D(19,3,4,20)           -1.2222         calculate D2E/DX2 analytically  !
 ! D17   D(3,4,5,6)            179.8535         calculate D2E/DX2 analytically  !
 ! D18   D(3,4,5,14)            -0.6036         calculate D2E/DX2 analytically  !
 ! D19   D(20,4,5,6)            -1.0134         calculate D2E/DX2 analytically  !
 ! D20   D(20,4,5,14)          178.5295         calculate D2E/DX2 analytically  !
 ! D21   D(4,5,6,7)            -94.2584         calculate D2E/DX2 analytically  !
 ! D22   D(4,5,6,12)            86.2169         calculate D2E/DX2 analytically  !
 ! D23   D(14,5,6,7)            86.2171         calculate D2E/DX2 analytically  !
 ! D24   D(14,5,6,12)          -93.3076         calculate D2E/DX2 analytically  !
 ! D25   D(4,5,14,15)         -178.8263         calculate D2E/DX2 analytically  !
 ! D26   D(4,5,14,16)            0.6792         calculate D2E/DX2 analytically  !
 ! D27   D(6,5,14,15)            0.7005         calculate D2E/DX2 analytically  !
 ! D28   D(6,5,14,16)         -179.794          calculate D2E/DX2 analytically  !
 ! D29   D(5,6,7,8)            179.8532         calculate D2E/DX2 analytically  !
 ! D30   D(5,6,7,21)            -1.0144         calculate D2E/DX2 analytically  !
 ! D31   D(12,6,7,8)            -0.6036         calculate D2E/DX2 analytically  !
 ! D32   D(12,6,7,21)          178.5287         calculate D2E/DX2 analytically  !
 ! D33   D(5,6,12,11)         -179.794          calculate D2E/DX2 analytically  !
 ! D34   D(5,6,12,13)            0.7002         calculate D2E/DX2 analytically  !
 ! D35   D(7,6,12,11)            0.6789         calculate D2E/DX2 analytically  !
 ! D36   D(7,6,12,13)         -178.8269         calculate D2E/DX2 analytically  !
 ! D37   D(6,7,8,9)             -2.2378         calculate D2E/DX2 analytically  !
 ! D38   D(6,7,8,22)           177.916          calculate D2E/DX2 analytically  !
 ! D39   D(21,7,8,9)           178.623          calculate D2E/DX2 analytically  !
 ! D40   D(21,7,8,22)           -1.2232         calculate D2E/DX2 analytically  !
 ! D41   D(7,8,9,10)           174.4093         calculate D2E/DX2 analytically  !
 ! D42   D(7,8,9,11)             4.8973         calculate D2E/DX2 analytically  !
 ! D43   D(22,8,9,10)           -5.7466         calculate D2E/DX2 analytically  !
 ! D44   D(22,8,9,11)         -175.2586         calculate D2E/DX2 analytically  !
 ! D45   D(8,9,10,23)           30.2052         calculate D2E/DX2 analytically  !
 ! D46   D(8,9,10,24)          160.4415         calculate D2E/DX2 analytically  !
 ! D47   D(11,9,10,23)        -160.464          calculate D2E/DX2 analytically  !
 ! D48   D(11,9,10,24)         -30.2277         calculate D2E/DX2 analytically  !
 ! D49   D(8,9,11,12)           -4.8583         calculate D2E/DX2 analytically  !
 ! D50   D(8,9,11,25)          175.2454         calculate D2E/DX2 analytically  !
 ! D51   D(10,9,11,12)        -174.3704         calculate D2E/DX2 analytically  !
 ! D52   D(10,9,11,25)           5.7333         calculate D2E/DX2 analytically  !
 ! D53   D(9,11,12,6)            2.0859         calculate D2E/DX2 analytically  !
 ! D54   D(9,11,12,13)        -178.3965         calculate D2E/DX2 analytically  !
 ! D55   D(25,11,12,6)        -178.0181         calculate D2E/DX2 analytically  !
 ! D56   D(25,11,12,13)          1.4996         calculate D2E/DX2 analytically  !
 ! D57   D(6,12,13,26)         -62.6268         calculate D2E/DX2 analytically  !
 ! D58   D(6,12,13,27)         178.1166         calculate D2E/DX2 analytically  !
 ! D59   D(6,12,13,28)          58.8748         calculate D2E/DX2 analytically  !
 ! D60   D(11,12,13,26)        117.8658         calculate D2E/DX2 analytically  !
 ! D61   D(11,12,13,27)         -1.3908         calculate D2E/DX2 analytically  !
 ! D62   D(11,12,13,28)       -120.6326         calculate D2E/DX2 analytically  !
 ! D63   D(5,14,15,29)         178.1133         calculate D2E/DX2 analytically  !
 ! D64   D(5,14,15,30)         -62.6301         calculate D2E/DX2 analytically  !
 ! D65   D(5,14,15,31)          58.8717         calculate D2E/DX2 analytically  !
 ! D66   D(16,14,15,29)         -1.3938         calculate D2E/DX2 analytically  !
 ! D67   D(16,14,15,30)        117.8628         calculate D2E/DX2 analytically  !
 ! D68   D(16,14,15,31)       -120.6354         calculate D2E/DX2 analytically  !
 ! D69   D(5,14,16,2)            2.0855         calculate D2E/DX2 analytically  !
 ! D70   D(5,14,16,32)        -178.0198         calculate D2E/DX2 analytically  !
 ! D71   D(15,14,16,2)        -178.3971         calculate D2E/DX2 analytically  !
 ! D72   D(15,14,16,32)          1.4976         calculate D2E/DX2 analytically  !
 --------------------------------------------------------------------------------
 Trust Radius=3.00D-01 FncErr=1.00D-07 GrdErr=1.00D-06 EigMax=2.50D+02 EigMin=1.00D-04
 Number of steps in this run=    169 maximum allowed number of steps=    192.
 GradGradGradGradGradGradGradGradGradGradGradGradGradGradGradGradGradGrad

                          Input orientation:                          
 ---------------------------------------------------------------------
 Center     Atomic      Atomic             Coordinates (Angstroms)
 Number     Number       Type             X           Y           Z
 ---------------------------------------------------------------------
      1          7           0        4.759268    0.032575    1.461582
      2          6           0        3.409216   -0.131764    1.129825
      3          6           0        2.420748    0.060970    2.092100
      4          6           0        1.068850    0.013012    1.741903
      5          6           0        0.670086   -0.183210    0.409351
      6          6           0       -0.767489   -0.229342    0.092267
      7          6           0       -1.414055   -1.475126    0.035887
      8          6           0       -2.776886   -1.569380   -0.258009
      9          6           0       -3.539764   -0.421163   -0.457512
     10          7           0       -4.874968   -0.522598   -0.865751
     11          6           0       -2.894119    0.817986   -0.460330
     12          6           0       -1.521841    0.934215   -0.167877
     13          6           0       -0.890109    2.300877   -0.150941
     14          6           0        1.667000   -0.319393   -0.579690
     15          6           0        1.313881   -0.505995   -2.031454
     16          6           0        3.023508   -0.269954   -0.206023
     17          1           0        5.396718   -0.420498    0.814564
     18          1           0        4.971492   -0.187558    2.429437
     19          1           0        2.690966    0.248425    3.127437
     20          1           0        0.317386    0.144592    2.518064
     21          1           0       -0.846979   -2.387697    0.209320
     22          1           0       -3.234855   -2.552066   -0.326455
     23          1           0       -5.338151   -1.365426   -0.541180
     24          1           0       -5.422203    0.312565   -0.683294
     25          1           0       -3.467334    1.712657   -0.692534
     26          1           0       -0.501756    2.529677    0.846426
     27          1           0       -1.615479    3.080829   -0.406375
     28          1           0       -0.078964    2.358979   -0.883355
     29          1           0        2.210546   -0.560382   -2.658168
     30          1           0        0.759325   -1.438969   -2.172667
     31          1           0        0.715140    0.335708   -2.393133
     32          1           0        3.790823   -0.342549   -0.973417
 ---------------------------------------------------------------------
                    Distance matrix (angstroms):
                    1          2          3          4          5
     1  N    0.000000
     2  C    1.399897   0.000000
     3  C    2.422197   1.392907   0.000000
     4  C    3.701101   2.423409   1.397342   0.000000
     5  C    4.227903   2.832766   2.440509   1.404710   0.000000
     6  C    5.699883   4.304755   3.774714   2.480358   1.472852
     7  C    6.512733   5.124965   4.614468   3.360039   2.480356
     8  C    7.894104   6.500822   5.932660   4.614467   3.774713
     9  C    8.530108   7.133843   6.500821   5.124964   4.304755
    10  N    9.926893   8.530111   7.894106   6.512735   5.699886
    11  C    7.930004   6.569829   5.944391   4.604665   3.802933
    12  C    6.551368   5.209190   4.627532   3.347768   2.527127
    13  C    6.297689   5.103166   4.583688   3.557345   2.986440
    14  C    3.721935   2.448053   2.802012   2.420345   1.410881
    15  C    4.935793   3.811058   4.307006   3.816756   2.544836
    16  C    2.425962   1.397268   2.398792   2.774018   2.434093
    17  H    1.015012   2.032958   3.274188   4.447283   4.749900
    18  H    1.015007   2.032931   2.584929   3.967814   4.752143
    19  H    2.664496   2.156591   1.086315   2.146249   3.414419
    20  H    4.567167   3.400440   2.147689   1.088318   2.162989
    21  H    6.233449   4.904259   4.496540   3.432582   2.683517
    22  H    8.589729   7.219577   6.683053   5.420296   4.626171
    23  H   10.388616   8.990585   8.316807   6.939901   6.196778
    24  H   10.408710   9.026560   8.323340   6.935782   6.209319
    25  H    8.668326   7.349138   6.719507   5.421462   4.682596
    26  H    5.855963   4.739123   4.023337   3.098755   2.987307
    27  H    7.308797   6.158589   5.626104   4.607843   4.067329
    28  H    5.858275   4.735409   4.514725   3.703109   2.948710
    29  H    4.880566   3.996175   4.795342   4.581798   3.453251
    30  H    5.601139   4.431384   4.816470   4.186635   2.872579
    31  H    5.595149   4.459575   4.806443   4.162663   2.850478
    32  H    2.647230   2.147949   3.381912   3.861156   3.417080
                    6          7          8          9         10
     6  C    0.000000
     7  C    1.404707   0.000000
     8  C    2.440507   1.397343   0.000000
     9  C    2.832766   2.423411   1.392906   0.000000
    10  N    4.227905   3.701106   2.422200   1.399899   0.000000
    11  C    2.434095   2.774020   2.398790   1.397267   2.425962
    12  C    1.410881   2.420343   2.802008   2.448050   3.721934
    13  C    2.544837   3.816756   4.307004   3.811057   4.935794
    14  C    2.527127   3.347768   4.627534   5.209192   6.551372
    15  C    2.986440   3.557351   4.583696   5.103171   6.297697
    16  C    3.802931   4.604664   5.944391   6.569829   7.930007
    17  H    6.209323   6.935791   8.323349   9.026565  10.408718
    18  H    6.196774   6.939893   8.316800   8.990580  10.388614
    19  H    4.626168   5.420286   6.683043   7.219571   8.589725
    20  H    2.683518   3.432576   4.496532   4.904257   6.233449
    21  H    2.162988   1.088320   2.147692   3.400443   4.567173
    22  H    3.414421   2.146253   1.086320   2.156594   2.664499
    23  H    4.752146   3.967817   2.584930   2.032936   1.015009
    24  H    4.749897   4.447281   3.274185   2.032956   1.015014
    25  H    3.417081   3.861155   3.381908   2.147945   2.647225
    26  H    2.872553   4.186611   4.816458   4.431389   5.601154
    27  H    3.453254   4.581800   4.795345   3.996178   4.880572
    28  H    2.850493   4.162671   4.806438   4.459559   5.595127
    29  H    4.067329   4.607864   5.626128   6.158598   7.308809
    30  H    2.987354   3.098806   4.023395   4.739183   5.856025
    31  H    2.948675   3.703070   4.514683   4.735366   5.858233
    32  H    4.682596   5.421456   6.719504   7.349139   8.668330
                   11         12         13         14         15
    11  C    0.000000
    12  C    1.407901   0.000000
    13  C    2.512119   1.505702   0.000000
    14  C    4.702306   3.451061   3.686251   0.000000
    15  C    4.682800   3.686250   4.033910   1.505700   0.000000
    16  C    6.022176   4.702305   4.682799   1.407901   2.512118
    17  H    8.479220   7.118068   6.918257   3.983084   4.977618
    18  H    8.439770   7.082922   6.870883   4.471229   5.777462
    19  H    6.662556   5.392322   5.271093   3.887636   5.392557
    20  H    4.431485   3.349707   3.637472   3.410691   4.702592
    21  H    3.862075   3.410691   4.702593   3.349703   3.637469
    22  H    3.389878   3.887637   5.392559   5.392322   5.271093
    23  H    3.278279   4.471233   5.777468   7.082924   6.870885
    24  H    2.587734   3.983080   4.977615   7.118068   6.918265
    25  H    1.087626   2.160135   2.698410   5.522984   5.438303
    26  H    3.218836   2.148228   1.094491   3.854154   4.560048
    27  H    2.599672   2.161852   1.095323   4.729293   4.907885
    28  H    3.237083   2.150292   1.094423   3.211585   3.386181
    29  H    5.726080   4.729278   4.907856   2.161848   1.095325
    30  H    4.623159   3.854205   4.560094   2.148232   1.094492
    31  H    4.122508   3.211551   3.386169   2.150296   1.094426
    32  H    6.804304   5.522990   5.438317   2.160135   2.698407
                   16         17         18         19         20
    16  C    0.000000
    17  H    2.587737   0.000000
    18  H    3.278274   1.686088   0.000000
    19  H    3.389876   3.621869   2.424477   0.000000
    20  H    3.862071   5.387100   4.666784   2.452753   0.000000
    21  H    4.431480   6.574187   6.604857   5.289764   3.619190
    22  H    6.662556   8.963791   8.973849   7.408608   5.289770
    23  H    8.439771  10.861323  10.793548   8.973850   6.604864
    24  H    8.479219  10.946689  10.861312   8.963777   6.574176
    25  H    6.804299   9.240840   9.196266   7.393295   5.204890
    26  H    4.623102   6.595190   6.312347   4.538787   3.025557
    27  H    5.726088   7.932268   7.881140   6.249464   4.572723
    28  H    4.122548   6.371147   6.554887   5.311629   4.078021
    29  H    2.599667   4.714989   5.800478   5.861587   5.556475
    30  H    3.218822   5.609478   6.362998   5.888093   4.970506
    31  H    3.237104   5.725237   6.453489   5.864146   4.930982
    32  H    1.087629   2.404548   3.605193   4.286718   4.948991
                   21         22         23         24         25
    21  H    0.000000
    22  H    2.452758   0.000000
    23  H    4.666789   2.424475   0.000000
    24  H    5.387100   3.621870   1.686094   0.000000
    25  H    4.948991   4.286715   3.605198   2.404548   0.000000
    26  H    4.970478   5.888089   6.363018   5.609495   3.439561
    27  H    5.556479   5.861594   5.800487   4.714989   2.320162
    28  H    4.930996   5.864141   6.453473   5.725210   3.454735
    29  H    4.572748   6.249486   7.881152   7.932276   6.424075
    30  H    3.025584   4.538827   6.312398   6.595255   5.476147
    31  H    4.077979   5.311578   6.554839   6.371111   4.720288
    32  H    5.204873   7.393286   9.196264   9.240844   7.548749
                   26         27         28         29         30
    26  H    0.000000
    27  H    1.764556   0.000000
    28  H    1.788864   1.763364   0.000000
    29  H    5.402520   5.741729   4.112722   0.000000
    30  H    5.143481   5.402597   4.097494   1.764559   0.000000
    31  H    4.097448   4.112746   2.646442   1.763366   1.788865
    32  H    5.476107   6.424107   4.720341   2.320153   3.439523
                   31         32
    31  H    0.000000
    32  H    3.454772   0.000000
 Stoichiometry    C14H16N2
 Framework group  C1[X(C14H16N2)]
 Deg. of freedom    90
 Full point group                 C1      NOp   1
 Largest Abelian subgroup         C1      NOp   1
 Largest concise Abelian subgroup C1      NOp   1
                         Standard orientation:                         
 ---------------------------------------------------------------------
 Center     Atomic      Atomic             Coordinates (Angstroms)
 Number     Number       Type             X           Y           Z
 ---------------------------------------------------------------------
      1          7           0        4.958656   -0.217992   -0.280678
      2          6           0        3.565881   -0.086151   -0.330746
      3          6           0        2.803401   -0.969571   -1.091260
      4          6           0        1.407525   -0.917251   -1.054408
      5          6           0        0.736370   -0.009027   -0.219009
      6          6           0       -0.736371    0.009029   -0.219009
      7          6           0       -1.407525    0.917239   -1.054419
      8          6           0       -2.803402    0.969553   -1.091274
      9          6           0       -3.565881    0.086143   -0.330747
     10          7           0       -4.958659    0.217982   -0.280680
     11          6           0       -2.908074   -0.780866    0.545574
     12          6           0       -1.502779   -0.847999    0.598736
     13          6           0       -0.851694   -1.828303    1.538007
     14          6           0        1.502779    0.848010    0.598726
     15          6           0        0.851698    1.828319    1.537991
     16          6           0        2.908074    0.780874    0.545562
     17          1           0        5.437706    0.623598    0.023442
     18          1           0        5.362529   -0.606986   -1.126734
     19          1           0        3.286893   -1.708274   -1.724218
     20          1           0        0.836810   -1.604493   -1.676034
     21          1           0       -0.836810    1.604484   -1.676045
     22          1           0       -3.286897    1.708268   -1.724223
     23          1           0       -5.362533    0.606986   -1.126732
     24          1           0       -5.437700   -0.623616    0.023434
     25          1           0       -3.497396   -1.419179    1.199934
     26          1           0       -0.259665   -2.558571    0.977544
     27          1           0       -1.597139   -2.385591    2.115479
     28          1           0       -0.209391   -1.306537    2.254226
     29          1           0        1.597147    2.385570    2.115496
     30          1           0        0.259708    2.558620    0.977524
     31          1           0        0.209352    1.306567    2.254185
     32          1           0        3.497397    1.419216    1.199896
 ---------------------------------------------------------------------
 Rotational constants (GHZ):           1.3544781           0.2716601           0.2674716
 Standard basis: 6-31G(d,p) (6D, 7F)
 There are   320 symmetry adapted cartesian basis functions of A   symmetry.
 There are   320 symmetry adapted basis functions of A   symmetry.
   320 basis functions,   560 primitive gaussians,   320 cartesian basis functions
    57 alpha electrons       57 beta electrons
       nuclear repulsion energy      1027.7349785698 Hartrees.
 NAtoms=   32 NActive=   32 NUniq=   32 SFac= 1.00D+00 NAtFMM=   60 NAOKFM=F Big=F
 Integral buffers will be    131072 words long.
 Raffenetti 2 integral format.
 Two-electron integral symmetry is turned on.
 Force inversion solution in PCM.
 ------------------------------------------------------------------------------
 Polarizable Continuum Model (PCM)
 =================================
 Model                : PCM.
 Atomic radii         : UFF (Universal Force Field).
 Polarization charges : Total charges.
 Charge compensation  : None.
 Solution method      : Matrix inversion.
 Cavity type          : Scaled VdW (van der Waals Surface) (Alpha=1.100).
 Cavity algorithm     : GePol (No added spheres)
                        Default sphere list used, NSphG=   32.
                        Lebedev-Laikov grids with approx.  5.0 points / Ang**2.
                        Smoothing algorithm: York/Karplus (Gamma=1.0000).
                        Polarization charges: spherical gaussians, with
                                              point-specific exponents (IZeta= 3).
                        Self-potential: point-specific (ISelfS= 7).
                        Self-field    : sphere-specific E.n sum rule (ISelfD= 2).
 1st derivatives      : Analytical E(r).r(x)/FMM algorithm (CHGder, D1EAlg=3).
                        Cavity 1st derivative terms included.
 2nd derivatives      : Analytical E(r).r(xy)/FMM algorithm (CHGder, D2EAlg=3).
                        Cavity 2nd derivative terms included.
 Solvent              : Water, Eps=  78.355300 Eps(inf)=   1.777849
 ------------------------------------------------------------------------------
 One-electron integrals computed using PRISM.
 NBasis=   320 RedAO= T EigKep=  3.65D-04  NBF=   320
 NBsUse=   320 1.00D-06 EigRej= -1.00D+00 NBFU=   320
 ExpMin= 1.61D-01 ExpMax= 4.17D+03 ExpMxC= 6.27D+02 IAcc=3 IRadAn=         5 AccDes= 0.00D+00
 Harris functional with IExCor=  402 and IRadAn=       5 diagonalized for initial guess.
 HarFok:  IExCor=  402 AccDes= 0.00D+00 IRadAn=         5 IDoV= 1 UseB2=F ITyADJ=14
 ICtDFT=  3500011 ScaDFX=  1.000000  1.000000  1.000000  1.000000
 FoFCou: FMM=F IPFlag=           0 FMFlag=      100000 FMFlg1=           0
         NFxFlg=           0 DoJE=T BraDBF=F KetDBF=T FulRan=T
         wScrn=  0.000000 ICntrl=       500 IOpCl=  0 I1Cent=   200000004 NGrid=           0
         NMat0=    1 NMatS0=      1 NMatT0=    0 NMatD0=    1 NMtDS0=    0 NMtDT0=    0
 Petite list used in FoFCou.
 Requested convergence on RMS density matrix=1.00D-08 within  32 cycles.
 Requested convergence on MAX density matrix=1.00D-06.
 Requested convergence on             energy=1.00D-06.
 No special actions if energy rises.
 Inv3:  Mode=1 IEnd=    16119372.
 Iteration    1 A*A^-1 deviation from unit magnitude is 3.77D-15 for   1131.
 Iteration    1 A*A^-1 deviation from orthogonality  is 2.05D-15 for   1636    727.
 Iteration    1 A^-1*A deviation from unit magnitude is 3.77D-15 for   1131.
 Iteration    1 A^-1*A deviation from orthogonality  is 1.89D-15 for   2104   1528.
 Error on total polarization charges =  0.01000
 SCF Done:  E(RB3LYP) =  -652.681221745     A.U. after   12 cycles
            NFock= 12  Conv=0.62D-08     -V/T= 2.0097
 QCSCF skips out because SCF is already converged.
 DoSCS=F DFT=T ScalE2(SS,OS)=  1.000000  1.000000
 Range of M.O.s used for correlation:     1   320
 NBasis=   320 NAE=    57 NBE=    57 NFC=     0 NFV=     0
 NROrb=    320 NOA=    57 NOB=    57 NVA=   263 NVB=   263
 Symmetrizing basis deriv contribution to polar:
 IMax=3 JMax=2 DiffMx= 0.00D+00
 G2DrvN: will do    33 centers at a time, making    1 passes.
 Calling FoFCou, ICntrl=  3107 FMM=F I1Cent=   0 AccDes= 0.00D+00.
 NEqPCM:  Using equilibrium solvation (IEInf=0, Eps=  78.3553, EpsInf=   1.7778)
 G2PCM: DoFxE=T DoFxN=T DoGrad=T DoDP/DQ/DG/TGxP=FFFF NFrqRd=   0 IEInf=0 SqF1=F DoCFld=F IF1Alg=4.
 End of G2Drv F.D. properties file   721 does not exist.
 End of G2Drv F.D. properties file   722 does not exist.
 End of G2Drv F.D. properties file   788 does not exist.
          IDoAtm=11111111111111111111111111111111
 NEqPCM:  Using equilibrium solvation (IEInf=0, Eps=  78.3553, EpsInf=   1.7778)
          Differentiating once with respect to nuclear coordinates.
 Keep R1 ints in memory in canonical form, NReq=1335503702.
 CalDSu:  requested number of processors reduced to:   2 ShMem   1 Linda.
 CoulSu:  requested number of processors reduced to:   1 ShMem   1 Linda.
 CoulSu:  requested number of processors reduced to:   1 ShMem   1 Linda.
          There are    99 degrees of freedom in the 1st order CPHF.  IDoFFX=6 NUNeed=     0.
     93 vectors produced by pass  0 Test12= 1.51D-14 1.01D-09 XBig12= 1.18D-01 9.10D-02.
 AX will form    93 AO Fock derivatives at one time.
 CalDSu:  requested number of processors reduced to:   2 ShMem   1 Linda.
 CoulSu:  requested number of processors reduced to:   1 ShMem   1 Linda.
 CoulSu:  requested number of processors reduced to:   1 ShMem   1 Linda.
     93 vectors produced by pass  1 Test12= 1.51D-14 1.01D-09 XBig12= 1.99D-02 2.92D-02.
 CalDSu:  requested number of processors reduced to:   2 ShMem   1 Linda.
 CoulSu:  requested number of processors reduced to:   1 ShMem   1 Linda.
 CoulSu:  requested number of processors reduced to:   1 ShMem   1 Linda.
     93 vectors produced by pass  2 Test12= 1.51D-14 1.01D-09 XBig12= 1.36D-04 1.37D-03.
 CalDSu:  requested number of processors reduced to:   2 ShMem   1 Linda.
 CoulSu:  requested number of processors reduced to:   1 ShMem   1 Linda.
 CoulSu:  requested number of processors reduced to:   1 ShMem   1 Linda.
     93 vectors produced by pass  3 Test12= 1.51D-14 1.01D-09 XBig12= 3.64D-07 7.88D-05.
 CalDSu:  requested number of processors reduced to:   2 ShMem   1 Linda.
 CoulSu:  requested number of processors reduced to:   1 ShMem   1 Linda.
 CoulSu:  requested number of processors reduced to:   1 ShMem   1 Linda.
     93 vectors produced by pass  4 Test12= 1.51D-14 1.01D-09 XBig12= 4.98D-10 1.64D-06.
 CalDSu:  requested number of processors reduced to:   2 ShMem   1 Linda.
 CoulSu:  requested number of processors reduced to:   1 ShMem   1 Linda.
 CoulSu:  requested number of processors reduced to:   1 ShMem   1 Linda.
     65 vectors produced by pass  5 Test12= 1.51D-14 1.01D-09 XBig12= 4.87D-13 6.41D-08.
 CalDSu:  requested number of processors reduced to:   4 ShMem   1 Linda.
 CoulSu:  requested number of processors reduced to:   3 ShMem   1 Linda.
 CoulSu:  requested number of processors reduced to:   2 ShMem   1 Linda.
     11 vectors produced by pass  6 Test12= 1.51D-14 1.01D-09 XBig12= 4.17D-16 1.58D-09.
 InvSVY:  IOpt=1 It=  1 EMax= 5.55D-16
 Solved reduced A of dimension   541 with    99 vectors.
 End of Minotr F.D. properties file   721 does not exist.
 End of Minotr F.D. properties file   722 does not exist.
 End of Minotr F.D. properties file   788 does not exist.

 **********************************************************************

            Population analysis using the SCF density.

 **********************************************************************

 Orbital symmetries:
       Occupied  (A) (A) (A) (A) (A) (A) (A) (A) (A) (A) (A) (A)
                 (A) (A) (A) (A) (A) (A) (A) (A) (A) (A) (A) (A)
                 (A) (A) (A) (A) (A) (A) (A) (A) (A) (A) (A) (A)
                 (A) (A) (A) (A) (A) (A) (A) (A) (A) (A) (A) (A)
                 (A) (A) (A) (A) (A) (A) (A) (A) (A)
       Virtual   (A) (A) (A) (A) (A) (A) (A) (A) (A) (A) (A) (A)
                 (A) (A) (A) (A) (A) (A) (A) (A) (A) (A) (A) (A)
                 (A) (A) (A) (A) (A) (A) (A) (A) (A) (A) (A) (A)
                 (A) (A) (A) (A) (A) (A) (A) (A) (A) (A) (A) (A)
                 (A) (A) (A) (A) (A) (A) (A) (A) (A) (A) (A) (A)
                 (A) (A) (A) (A) (A) (A) (A) (A) (A) (A) (A) (A)
                 (A) (A) (A) (A) (A) (A) (A) (A) (A) (A) (A) (A)
                 (A) (A) (A) (A) (A) (A) (A) (A) (A) (A) (A) (A)
                 (A) (A) (A) (A) (A) (A) (A) (A) (A) (A) (A) (A)
                 (A) (A) (A) (A) (A) (A) (A) (A) (A) (A) (A) (A)
                 (A) (A) (A) (A) (A) (A) (A) (A) (A) (A) (A) (A)
                 (A) (A) (A) (A) (A) (A) (A) (A) (A) (A) (A) (A)
                 (A) (A) (A) (A) (A) (A) (A) (A) (A) (A) (A) (A)
                 (A) (A) (A) (A) (A) (A) (A) (A) (A) (A) (A) (A)
                 (A) (A) (A) (A) (A) (A) (A) (A) (A) (A) (A) (A)
                 (A) (A) (A) (A) (A) (A) (A) (A) (A) (A) (A) (A)
                 (A) (A) (A) (A) (A) (A) (A) (A) (A) (A) (A) (A)
                 (A) (A) (A) (A) (A) (A) (A) (A) (A) (A) (A) (A)
                 (A) (A) (A) (A) (A) (A) (A) (A) (A) (A) (A) (A)
                 (A) (A) (A) (A) (A) (A) (A) (A) (A) (A) (A) (A)
                 (A) (A) (A) (A) (A) (A) (A) (A) (A) (A) (A) (A)
                 (A) (A) (A) (A) (A) (A) (A) (A) (A) (A) (A)
 The electronic state is 1-A.
 Alpha  occ. eigenvalues --  -14.33356 -14.33356 -10.22077 -10.22077 -10.19308
 Alpha  occ. eigenvalues --  -10.19308 -10.18353 -10.18353 -10.17860 -10.17827
 Alpha  occ. eigenvalues --  -10.17624 -10.17624 -10.17596 -10.17596 -10.17581
 Alpha  occ. eigenvalues --  -10.17581  -0.91124  -0.91064  -0.85181  -0.82378
 Alpha  occ. eigenvalues --   -0.76071  -0.76057  -0.74767  -0.70380  -0.68355
 Alpha  occ. eigenvalues --   -0.66974  -0.60735  -0.59622  -0.58557  -0.55970
 Alpha  occ. eigenvalues --   -0.50947  -0.50396  -0.49947  -0.49339  -0.47249
 Alpha  occ. eigenvalues --   -0.43870  -0.43869  -0.43134  -0.42365  -0.41326
 Alpha  occ. eigenvalues --   -0.41048  -0.40157  -0.39730  -0.39112  -0.37399
 Alpha  occ. eigenvalues --   -0.37118  -0.37040  -0.35970  -0.33681  -0.33678
 Alpha  occ. eigenvalues --   -0.32567  -0.29723  -0.29313  -0.23815  -0.23770
 Alpha  occ. eigenvalues --   -0.20045  -0.19726
 Alpha virt. eigenvalues --   -0.00070   0.00805   0.01441   0.02045   0.09428
 Alpha virt. eigenvalues --    0.09630   0.10242   0.11428   0.12644   0.12730
 Alpha virt. eigenvalues --    0.13161   0.14557   0.14676   0.16014   0.16345
 Alpha virt. eigenvalues --    0.17247   0.18767   0.19541   0.20021   0.20373
 Alpha virt. eigenvalues --    0.21215   0.23369   0.25348   0.25654   0.26220
 Alpha virt. eigenvalues --    0.27255   0.30418   0.32856   0.34050   0.34925
 Alpha virt. eigenvalues --    0.35649   0.36420   0.38179   0.38457   0.40709
 Alpha virt. eigenvalues --    0.48269   0.48606   0.49887   0.50434   0.52372
 Alpha virt. eigenvalues --    0.52571   0.53852   0.53935   0.54291   0.54873
 Alpha virt. eigenvalues --    0.56409   0.56576   0.56901   0.58623   0.58714
 Alpha virt. eigenvalues --    0.60539   0.60736   0.61080   0.61090   0.62605
 Alpha virt. eigenvalues --    0.62913   0.64571   0.65186   0.66227   0.67774
 Alpha virt. eigenvalues --    0.67889   0.69790   0.70637   0.71023   0.71644
 Alpha virt. eigenvalues --    0.72663   0.75035   0.76394   0.77960   0.78744
 Alpha virt. eigenvalues --    0.80034   0.80351   0.82052   0.82233   0.82869
 Alpha virt. eigenvalues --    0.82932   0.83632   0.84649   0.85923   0.86003
 Alpha virt. eigenvalues --    0.86651   0.87905   0.88430   0.88585   0.89611
 Alpha virt. eigenvalues --    0.90080   0.90400   0.91335   0.92993   0.94811
 Alpha virt. eigenvalues --    0.95070   0.96286   0.98066   0.99919   1.00240
 Alpha virt. eigenvalues --    1.01562   1.01692   1.02919   1.05852   1.09412
 Alpha virt. eigenvalues --    1.11010   1.15778   1.15932   1.17559   1.18247
 Alpha virt. eigenvalues --    1.19310   1.20443   1.22061   1.26282   1.27184
 Alpha virt. eigenvalues --    1.28156   1.30780   1.32639   1.34290   1.34740
 Alpha virt. eigenvalues --    1.36486   1.36659   1.40292   1.41178   1.41582
 Alpha virt. eigenvalues --    1.42850   1.43412   1.46173   1.49537   1.54526
 Alpha virt. eigenvalues --    1.59478   1.61500   1.67057   1.67233   1.73100
 Alpha virt. eigenvalues --    1.73758   1.76451   1.77205   1.77224   1.78807
 Alpha virt. eigenvalues --    1.79608   1.79683   1.80798   1.81678   1.82284
 Alpha virt. eigenvalues --    1.84849   1.85976   1.87280   1.87561   1.90019
 Alpha virt. eigenvalues --    1.90432   1.91395   1.93998   1.96679   1.96848
 Alpha virt. eigenvalues --    1.98768   1.98951   2.00175   2.00811   2.01347
 Alpha virt. eigenvalues --    2.01794   2.05613   2.05722   2.06980   2.07287
 Alpha virt. eigenvalues --    2.08970   2.10253   2.12121   2.13312   2.14020
 Alpha virt. eigenvalues --    2.15988   2.16619   2.16820   2.17785   2.20380
 Alpha virt. eigenvalues --    2.22704   2.23729   2.23800   2.27545   2.28505
 Alpha virt. eigenvalues --    2.28891   2.29890   2.32579   2.34907   2.35088
 Alpha virt. eigenvalues --    2.36223   2.36290   2.39581   2.40154   2.41780
 Alpha virt. eigenvalues --    2.42777   2.45932   2.45982   2.46893   2.47551
 Alpha virt. eigenvalues --    2.49463   2.49593   2.51440   2.51460   2.52969
 Alpha virt. eigenvalues --    2.53091   2.55488   2.56812   2.57384   2.58750
 Alpha virt. eigenvalues --    2.61593   2.63457   2.66173   2.66644   2.66762
 Alpha virt. eigenvalues --    2.67980   2.69767   2.71612   2.74205   2.75161
 Alpha virt. eigenvalues --    2.76632   2.77035   2.79720   2.79777   2.84654
 Alpha virt. eigenvalues --    2.87236   2.88017   2.88468   2.88699   2.89705
 Alpha virt. eigenvalues --    2.97338   2.98742   3.03064   3.04684   3.07260
 Alpha virt. eigenvalues --    3.08399   3.08507   3.20121   3.20647   3.21374
 Alpha virt. eigenvalues --    3.22482   3.28475   3.28551   3.29269   3.30315
 Alpha virt. eigenvalues --    3.32082   3.34464   3.43898   3.43900   3.45613
 Alpha virt. eigenvalues --    3.45862   3.47039   3.47801   3.52726   3.52756
 Alpha virt. eigenvalues --    3.75434   3.80625   4.04443   4.05169   4.14269
 Alpha virt. eigenvalues --    4.14591   4.16253   4.16427   4.22148   4.23183
 Alpha virt. eigenvalues --    4.37903   4.41301   4.49072   4.49432   4.57117
 Alpha virt. eigenvalues --    4.57330   4.80648   4.90927
          Condensed to atoms (all electrons):
               1          2          3          4          5          6
     1  N    6.839236   0.289840  -0.071299   0.004141   0.000842   0.000002
     2  C    0.289840   4.606006   0.540079  -0.016168  -0.036637   0.000215
     3  C   -0.071299   0.540079   4.975384   0.496635  -0.039211   0.006759
     4  C    0.004141  -0.016168   0.496635   4.940385   0.505537  -0.067002
     5  C    0.000842  -0.036637  -0.039211   0.505537   4.995773   0.336077
     6  C    0.000002   0.000215   0.006759  -0.067002   0.336077   4.995770
     7  C   -0.000000   0.000021   0.000053  -0.002051  -0.067002   0.505539
     8  C    0.000000   0.000000   0.000001   0.000053   0.006759  -0.039211
     9  C   -0.000000   0.000000   0.000000   0.000021   0.000215  -0.036636
    10  N   -0.000000  -0.000000   0.000000  -0.000000   0.000002   0.000842
    11  C    0.000000  -0.000000   0.000003   0.000013   0.008205  -0.018437
    12  C    0.000000   0.000056   0.000113  -0.003588  -0.063729   0.526163
    13  C    0.000000  -0.000013  -0.000197   0.000439  -0.013451  -0.069634
    14  C    0.003741  -0.019320  -0.039895  -0.018689   0.526164  -0.063729
    15  C   -0.000132   0.007694   0.000100   0.008696  -0.069635  -0.013451
    16  C   -0.064167   0.500649  -0.050128  -0.063148  -0.018437   0.008205
    17  H    0.342761  -0.024660   0.005637  -0.000179  -0.000002  -0.000000
    18  H    0.343432  -0.024943  -0.009363   0.000006  -0.000019  -0.000000
    19  H   -0.007372  -0.043639   0.360743  -0.032184   0.003796  -0.000225
    20  H   -0.000125   0.003780  -0.036332   0.361320  -0.042804  -0.002266
    21  H    0.000000   0.000002  -0.000097   0.001380  -0.002266  -0.042804
    22  H   -0.000000  -0.000000  -0.000000  -0.000002  -0.000225   0.003796
    23  H   -0.000000  -0.000000   0.000000  -0.000000  -0.000000  -0.000019
    24  H   -0.000000  -0.000000   0.000000  -0.000000  -0.000000  -0.000002
    25  H    0.000000   0.000000  -0.000000  -0.000002  -0.000163   0.005061
    26  H   -0.000000  -0.000004   0.000023   0.002499   0.003491  -0.004748
    27  H    0.000000  -0.000000  -0.000001   0.000051   0.000512   0.004345
    28  H   -0.000000  -0.000009  -0.000014   0.000030   0.003399  -0.006191
    29  H   -0.000004   0.000217   0.000001  -0.000188   0.004345   0.000512
    30  H    0.000001  -0.000326   0.000040  -0.000098  -0.004748   0.003491
    31  H    0.000002  -0.000150   0.000024  -0.000050  -0.006192   0.003399
    32  H   -0.007123  -0.047619   0.005314   0.000468   0.005061  -0.000163
               7          8          9         10         11         12
     1  N   -0.000000   0.000000  -0.000000  -0.000000   0.000000   0.000000
     2  C    0.000021   0.000000   0.000000  -0.000000  -0.000000   0.000056
     3  C    0.000053   0.000001   0.000000   0.000000   0.000003   0.000113
     4  C   -0.002051   0.000053   0.000021  -0.000000   0.000013  -0.003588
     5  C   -0.067002   0.006759   0.000215   0.000002   0.008205  -0.063729
     6  C    0.505539  -0.039211  -0.036636   0.000842  -0.018437   0.526163
     7  C    4.940385   0.496634  -0.016168   0.004141  -0.063147  -0.018690
     8  C    0.496634   4.975386   0.540080  -0.071299  -0.050128  -0.039895
     9  C   -0.016168   0.540080   4.606005   0.289839   0.500650  -0.019320
    10  N    0.004141  -0.071299   0.289839   6.839238  -0.064167   0.003741
    11  C   -0.063147  -0.050128   0.500650  -0.064167   5.065341   0.512995
    12  C   -0.018690  -0.039895  -0.019320   0.003741   0.512995   4.743423
    13  C    0.008696   0.000100   0.007694  -0.000132  -0.061241   0.357469
    14  C   -0.003588   0.000113   0.000056   0.000000  -0.000001  -0.001763
    15  C    0.000440  -0.000197  -0.000013   0.000000  -0.000107   0.000669
    16  C    0.000013   0.000003  -0.000000   0.000000   0.000005  -0.000001
    17  H   -0.000000   0.000000  -0.000000  -0.000000  -0.000000   0.000000
    18  H   -0.000000   0.000000  -0.000000  -0.000000  -0.000000   0.000000
    19  H   -0.000002  -0.000000  -0.000000  -0.000000  -0.000000  -0.000004
    20  H    0.001380  -0.000097   0.000002   0.000000  -0.000132   0.001551
    21  H    0.361320  -0.036332   0.003780  -0.000125   0.000886   0.004439
    22  H   -0.032184   0.360742  -0.043639  -0.007372   0.005008   0.000933
    23  H    0.000006  -0.009362  -0.024944   0.343432   0.005215  -0.000126
    24  H   -0.000179   0.005637  -0.024660   0.342760  -0.009791  -0.000080
    25  H    0.000468   0.005314  -0.047619  -0.007123   0.358936  -0.031262
    26  H   -0.000098   0.000040  -0.000326   0.000001   0.000557  -0.024808
    27  H   -0.000188   0.000001   0.000217  -0.000004  -0.005010  -0.028221
    28  H   -0.000050   0.000024  -0.000150   0.000002   0.000846  -0.026787
    29  H    0.000051  -0.000001  -0.000000   0.000000  -0.000001   0.000026
    30  H    0.002499   0.000023  -0.000004  -0.000000  -0.000037  -0.000042
    31  H    0.000030  -0.000014  -0.000009  -0.000000   0.000008   0.001397
    32  H   -0.000002  -0.000000   0.000000   0.000000  -0.000000  -0.000002
              13         14         15         16         17         18
     1  N    0.000000   0.003741  -0.000132  -0.064167   0.342761   0.343432
     2  C   -0.000013  -0.019320   0.007694   0.500649  -0.024660  -0.024943
     3  C   -0.000197  -0.039895   0.000100  -0.050128   0.005637  -0.009363
     4  C    0.000439  -0.018689   0.008696  -0.063148  -0.000179   0.000006
     5  C   -0.013451   0.526164  -0.069635  -0.018437  -0.000002  -0.000019
     6  C   -0.069634  -0.063729  -0.013451   0.008205  -0.000000  -0.000000
     7  C    0.008696  -0.003588   0.000440   0.000013  -0.000000  -0.000000
     8  C    0.000100   0.000113  -0.000197   0.000003   0.000000   0.000000
     9  C    0.007694   0.000056  -0.000013  -0.000000  -0.000000  -0.000000
    10  N   -0.000132   0.000000   0.000000   0.000000  -0.000000  -0.000000
    11  C   -0.061241  -0.000001  -0.000107   0.000005  -0.000000  -0.000000
    12  C    0.357469  -0.001763   0.000669  -0.000001   0.000000   0.000000
    13  C    5.055357   0.000669  -0.000863  -0.000107  -0.000000  -0.000000
    14  C    0.000669   4.743420   0.357468   0.512995  -0.000080  -0.000126
    15  C   -0.000863   0.357468   5.055359  -0.061242  -0.000004   0.000003
    16  C   -0.000107   0.512995  -0.061242   5.065344  -0.009791   0.005215
    17  H   -0.000000  -0.000080  -0.000004  -0.009791   0.435115  -0.028585
    18  H   -0.000000  -0.000126   0.000003   0.005215  -0.028585   0.434565
    19  H    0.000001   0.000933   0.000011   0.005008  -0.000056   0.004717
    20  H   -0.000049   0.004439  -0.000172   0.000886   0.000003  -0.000005
    21  H   -0.000172   0.001551  -0.000049  -0.000132   0.000000   0.000000
    22  H    0.000011  -0.000004   0.000001  -0.000000  -0.000000  -0.000000
    23  H    0.000003   0.000000  -0.000000  -0.000000   0.000000   0.000000
    24  H   -0.000004   0.000000  -0.000000  -0.000000   0.000000   0.000000
    25  H   -0.011094  -0.000002   0.000000  -0.000000   0.000000   0.000000
    26  H    0.369411  -0.000042   0.000017  -0.000037   0.000000  -0.000000
    27  H    0.370859   0.000026   0.000006  -0.000001  -0.000000  -0.000000
    28  H    0.371117   0.001397   0.000272   0.000008  -0.000000   0.000000
    29  H    0.000006  -0.028222   0.370859  -0.005010  -0.000000   0.000000
    30  H    0.000017  -0.024807   0.369411   0.000556  -0.000000  -0.000000
    31  H    0.000272  -0.026787   0.371117   0.000847   0.000000  -0.000000
    32  H    0.000000  -0.031262  -0.011094   0.358935   0.004926  -0.000084
              19         20         21         22         23         24
     1  N   -0.007372  -0.000125   0.000000  -0.000000  -0.000000  -0.000000
     2  C   -0.043639   0.003780   0.000002  -0.000000  -0.000000  -0.000000
     3  C    0.360743  -0.036332  -0.000097  -0.000000   0.000000   0.000000
     4  C   -0.032184   0.361320   0.001380  -0.000002  -0.000000  -0.000000
     5  C    0.003796  -0.042804  -0.002266  -0.000225  -0.000000  -0.000000
     6  C   -0.000225  -0.002266  -0.042804   0.003796  -0.000019  -0.000002
     7  C   -0.000002   0.001380   0.361320  -0.032184   0.000006  -0.000179
     8  C   -0.000000  -0.000097  -0.036332   0.360742  -0.009362   0.005637
     9  C   -0.000000   0.000002   0.003780  -0.043639  -0.024944  -0.024660
    10  N   -0.000000   0.000000  -0.000125  -0.007372   0.343432   0.342760
    11  C   -0.000000  -0.000132   0.000886   0.005008   0.005215  -0.009791
    12  C   -0.000004   0.001551   0.004439   0.000933  -0.000126  -0.000080
    13  C    0.000001  -0.000049  -0.000172   0.000011   0.000003  -0.000004
    14  C    0.000933   0.004439   0.001551  -0.000004   0.000000   0.000000
    15  C    0.000011  -0.000172  -0.000049   0.000001  -0.000000  -0.000000
    16  C    0.005008   0.000886  -0.000132  -0.000000  -0.000000  -0.000000
    17  H   -0.000056   0.000003   0.000000  -0.000000   0.000000   0.000000
    18  H    0.004717  -0.000005   0.000000  -0.000000   0.000000   0.000000
    19  H    0.627336  -0.006127   0.000000   0.000000  -0.000000  -0.000000
    20  H   -0.006127   0.623878   0.000189   0.000000   0.000000   0.000000
    21  H    0.000000   0.000189   0.623878  -0.006127  -0.000005   0.000003
    22  H    0.000000   0.000000  -0.006127   0.627336   0.004717  -0.000056
    23  H   -0.000000   0.000000  -0.000005   0.004717   0.434565  -0.028585
    24  H   -0.000000   0.000000   0.000003  -0.000056  -0.028585   0.435115
    25  H    0.000000   0.000001   0.000019  -0.000204  -0.000084   0.004926
    26  H    0.000005   0.000349  -0.000002   0.000000  -0.000000  -0.000000
    27  H    0.000000   0.000001   0.000002  -0.000000   0.000000  -0.000000
    28  H   -0.000001   0.000022  -0.000001  -0.000000  -0.000000   0.000000
    29  H   -0.000000   0.000002   0.000001   0.000000  -0.000000  -0.000000
    30  H    0.000000  -0.000002   0.000349   0.000005  -0.000000   0.000000
    31  H   -0.000000  -0.000001   0.000022  -0.000001   0.000000  -0.000000
    32  H   -0.000204   0.000019   0.000001   0.000000   0.000000   0.000000
              25         26         27         28         29         30
     1  N    0.000000  -0.000000   0.000000  -0.000000  -0.000004   0.000001
     2  C    0.000000  -0.000004  -0.000000  -0.000009   0.000217  -0.000326
     3  C   -0.000000   0.000023  -0.000001  -0.000014   0.000001   0.000040
     4  C   -0.000002   0.002499   0.000051   0.000030  -0.000188  -0.000098
     5  C   -0.000163   0.003491   0.000512   0.003399   0.004345  -0.004748
     6  C    0.005061  -0.004748   0.004345  -0.006191   0.000512   0.003491
     7  C    0.000468  -0.000098  -0.000188  -0.000050   0.000051   0.002499
     8  C    0.005314   0.000040   0.000001   0.000024  -0.000001   0.000023
     9  C   -0.047619  -0.000326   0.000217  -0.000150  -0.000000  -0.000004
    10  N   -0.007123   0.000001  -0.000004   0.000002   0.000000  -0.000000
    11  C    0.358936   0.000557  -0.005010   0.000846  -0.000001  -0.000037
    12  C   -0.031262  -0.024808  -0.028221  -0.026787   0.000026  -0.000042
    13  C   -0.011094   0.369411   0.370859   0.371117   0.000006   0.000017
    14  C   -0.000002  -0.000042   0.000026   0.001397  -0.028222  -0.024807
    15  C    0.000000   0.000017   0.000006   0.000272   0.370859   0.369411
    16  C   -0.000000  -0.000037  -0.000001   0.000008  -0.005010   0.000556
    17  H    0.000000   0.000000  -0.000000  -0.000000  -0.000000  -0.000000
    18  H    0.000000  -0.000000  -0.000000   0.000000   0.000000  -0.000000
    19  H    0.000000   0.000005   0.000000  -0.000001  -0.000000   0.000000
    20  H    0.000001   0.000349   0.000001   0.000022   0.000002  -0.000002
    21  H    0.000019  -0.000002   0.000002  -0.000001   0.000001   0.000349
    22  H   -0.000204   0.000000  -0.000000  -0.000000   0.000000   0.000005
    23  H   -0.000084  -0.000000   0.000000  -0.000000  -0.000000  -0.000000
    24  H    0.004926  -0.000000  -0.000000   0.000000  -0.000000   0.000000
    25  H    0.631092   0.000224   0.006324   0.000193   0.000000  -0.000000
    26  H    0.000224   0.587434  -0.029179  -0.029785   0.000000  -0.000003
    27  H    0.006324  -0.029179   0.598186  -0.029425  -0.000000   0.000000
    28  H    0.000193  -0.029785  -0.029425   0.589591  -0.000034   0.000036
    29  H    0.000000   0.000000  -0.000000  -0.000034   0.598187  -0.029179
    30  H   -0.000000  -0.000003   0.000000   0.000036  -0.029179   0.587434
    31  H    0.000003   0.000036  -0.000034   0.001140  -0.029426  -0.029785
    32  H    0.000000  -0.000000   0.000000   0.000003   0.006324   0.000224
              31         32
     1  N    0.000002  -0.007123
     2  C   -0.000150  -0.047619
     3  C    0.000024   0.005314
     4  C   -0.000050   0.000468
     5  C   -0.006192   0.005061
     6  C    0.003399  -0.000163
     7  C    0.000030  -0.000002
     8  C   -0.000014  -0.000000
     9  C   -0.000009   0.000000
    10  N   -0.000000   0.000000
    11  C    0.000008  -0.000000
    12  C    0.001397  -0.000002
    13  C    0.000272   0.000000
    14  C   -0.026787  -0.031262
    15  C    0.371117  -0.011094
    16  C    0.000847   0.358935
    17  H    0.000000   0.004926
    18  H   -0.000000  -0.000084
    19  H   -0.000000  -0.000204
    20  H   -0.000001   0.000019
    21  H    0.000022   0.000001
    22  H   -0.000001   0.000000
    23  H    0.000000   0.000000
    24  H   -0.000000   0.000000
    25  H    0.000003   0.000000
    26  H    0.000036  -0.000000
    27  H   -0.000034   0.000000
    28  H    0.001140   0.000003
    29  H   -0.029426   0.006324
    30  H   -0.029785   0.000224
    31  H    0.589591   0.000193
    32  H    0.000193   0.631093
 Mulliken charges:
               1
     1  N   -0.673775
     2  C    0.264929
     3  C   -0.144374
     4  C   -0.118324
     5  C   -0.035659
     6  C   -0.035657
     7  C   -0.118325
     8  C   -0.144375
     9  C    0.264929
    10  N   -0.673776
    11  C   -0.186468
    12  C    0.105340
    13  C   -0.385164
    14  C    0.105342
    15  C   -0.385165
    16  C   -0.186469
    17  H    0.274916
    18  H    0.275187
    19  H    0.087267
    20  H    0.090287
    21  H    0.090287
    22  H    0.087267
    23  H    0.275187
    24  H    0.274916
    25  H    0.084994
    26  H    0.124945
    27  H    0.111533
    28  H    0.124367
    29  H    0.111533
    30  H    0.124946
    31  H    0.124367
    32  H    0.084993
 Sum of Mulliken charges =  -0.00000
 Mulliken charges with hydrogens summed into heavy atoms:
               1
     1  N   -0.123672
     2  C    0.264929
     3  C   -0.057107
     4  C   -0.028037
     5  C   -0.035659
     6  C   -0.035657
     7  C   -0.028038
     8  C   -0.057109
     9  C    0.264929
    10  N   -0.123673
    11  C   -0.101474
    12  C    0.105340
    13  C   -0.024318
    14  C    0.105342
    15  C   -0.024319
    16  C   -0.101476
 APT charges:
               1
     1  N   -1.448779
     2  C    0.257747
     3  C   -0.439034
     4  C   -0.540387
     5  C   -0.463499
     6  C   -0.463497
     7  C   -0.540384
     8  C   -0.439039
     9  C    0.257746
    10  N   -1.448770
    11  C   -0.406018
    12  C   -0.366756
    13  C   -1.050377
    14  C   -0.366750
    15  C   -1.050384
    16  C   -0.406025
    17  H    0.818989
    18  H    0.859128
    19  H    0.640443
    20  H    0.355360
    21  H    0.355360
    22  H    0.640443
    23  H    0.859129
    24  H    0.818977
    25  H    0.612427
    26  H    0.305682
    27  H    0.609596
    28  H    0.255482
    29  H    0.609592
    30  H    0.305697
    31  H    0.255475
    32  H    0.612426
 Sum of APT charges =  -0.00000
 APT charges with hydrogens summed into heavy atoms:
               1
     1  N    0.229338
     2  C    0.257747
     3  C    0.201408
     4  C   -0.185026
     5  C   -0.463499
     6  C   -0.463497
     7  C   -0.185024
     8  C    0.201404
     9  C    0.257746
    10  N    0.229336
    11  C    0.206409
    12  C   -0.366756
    13  C    0.120383
    14  C   -0.366750
    15  C    0.120381
    16  C    0.206401
 Electronic spatial extent (au):  <R**2>=           4310.4649
 Charge=             -0.0000 electrons
 Dipole moment (field-independent basis, Debye):
    X=              0.0000    Y=              0.0000    Z=             -1.4524  Tot=              1.4524
 Quadrupole moment (field-independent basis, Debye-Ang):
   XX=            -64.2983   YY=            -91.5105   ZZ=            -91.1224
   XY=              9.1608   XZ=             -0.0001   YZ=              0.0000
 Traceless Quadrupole moment (field-independent basis, Debye-Ang):
   XX=             18.0121   YY=             -9.2001   ZZ=             -8.8120
   XY=              9.1608   XZ=             -0.0001   YZ=              0.0000
 Octapole moment (field-independent basis, Debye-Ang**2):
  XXX=              0.0015  YYY=              0.0002  ZZZ=             -1.0492  XYY=             -0.0002
  XXY=              0.0002  XXZ=            -63.5855  XZZ=              0.0000  YZZ=             -0.0001
  YYZ=             -3.3348  XYZ=             27.9793
 Hexadecapole moment (field-independent basis, Debye-Ang**3):
 XXXX=          -3194.7834 YYYY=           -688.7320 ZZZZ=           -604.6903 XXXY=            253.9840
 XXXZ=              0.0005 YYYX=              6.4741 YYYZ=             -0.0001 ZZZX=             -0.0010
 ZZZY=              0.0000 XXYY=           -824.6485 XXZZ=           -767.5740 YYZZ=           -199.2291
 XXYZ=             -0.0001 YYXZ=             -0.0000 ZZXY=            -14.5977
 N-N= 1.027734978570D+03 E-N=-3.569562296892D+03  KE= 6.464092224372D+02
  Exact polarizability:   0.000   0.000   0.000   0.000   0.000   0.000
 Approx polarizability: 345.067  -6.296 205.769   0.000  -0.000 192.462
 D2PCM: PCM CHGder 2nd derivatives, FixD1E=F FixD2E=F DoIter=F DoCFld=F I1PDM=0
 Calling FoFJK, ICntrl=    100147 FMM=F ISym2X=0 I1Cent= 0 IOpClX= 0 NMat=1 NMatS=1 NMatT=0.
 ***** Axes restored to original set *****
 -------------------------------------------------------------------
 Center     Atomic                   Forces (Hartrees/Bohr)
 Number     Number              X              Y              Z
 -------------------------------------------------------------------
      1        7           0.000457994   -0.003640508    0.000292915
      2        6           0.008637391    0.014553048   -0.001898933
      3        6          -0.013028388   -0.003143413    0.008988164
      4        6           0.008558042    0.000481959   -0.002662584
      5        6           0.010081294    0.003382542    0.007298524
      6        6          -0.010660660   -0.005836464   -0.004311640
      7        6          -0.007489078    0.004045736   -0.002846617
      8        6           0.009832371   -0.010393827    0.007465595
      9        6          -0.005117294    0.000362767   -0.016239218
     10        7          -0.001181216    0.000572531    0.003439032
     11        6           0.010364383    0.004278961    0.006727352
     12        6          -0.012383357   -0.001663726   -0.002946106
     13        6          -0.002489305    0.002014762   -0.000998629
     14        6           0.012195527    0.000871415    0.003912067
     15        6           0.002981355    0.000070182   -0.001538519
     16        6          -0.010633517   -0.005427332   -0.005333199
     17        1           0.000225000    0.000172521    0.003899625
     18        1           0.001971737   -0.000867320   -0.003221501
     19        1           0.001789132   -0.001113478    0.000575667
     20        1           0.000117664   -0.000305030   -0.001707198
     21        1           0.000216539    0.001725445   -0.000018476
     22        1          -0.002047149    0.000018703    0.000760592
     23        1          -0.001316294    0.003642977   -0.000151543
     24        1          -0.001066637   -0.003738209    0.000433430
     25        1           0.000136850    0.000403394    0.001136025
     26        1           0.004061742    0.001224352   -0.001628401
     27        1          -0.000173075   -0.001668843    0.000233606
     28        1           0.003253841    0.001578116    0.003003292
     29        1          -0.000199424    0.000094974    0.001679905
     30        1          -0.003285556    0.002061646   -0.002366296
     31        1          -0.003495917   -0.002609500   -0.001749569
     32        1          -0.000313994   -0.001148380   -0.000227359
 -------------------------------------------------------------------
 Cartesian Forces:  Max     0.016239218 RMS     0.005088991
 FormGI is forming the generalized inverse of G from B-inverse, IUseBI=4.

 GradGradGradGradGradGradGradGradGradGradGradGradGradGradGradGradGradGrad
 Berny optimization.
 Internal  Forces:  Max     0.017060092 RMS     0.002734553
 Search for a local minimum.
 Step number   1 out of a maximum of  169
 All quantities printed in internal units (Hartrees-Bohrs-Radians)
 Mixed Optimization -- RFO/linear search
 Second derivative matrix not updated -- analytic derivatives used.
 ITU=  0
     Eigenvalues ---    0.00006   0.00051   0.00098   0.00531   0.00531
     Eigenvalues ---    0.01589   0.01620   0.01662   0.01665   0.01699
     Eigenvalues ---    0.01728   0.01869   0.01889   0.02033   0.02035
     Eigenvalues ---    0.02125   0.02155   0.02239   0.02314   0.02327
     Eigenvalues ---    0.02339   0.02697   0.02754   0.02886   0.02891
     Eigenvalues ---    0.05754   0.05762   0.05858   0.05865   0.11363
     Eigenvalues ---    0.11369   0.11837   0.11841   0.12386   0.12406
     Eigenvalues ---    0.12541   0.12585   0.13515   0.13516   0.14466
     Eigenvalues ---    0.14620   0.15095   0.15171   0.15315   0.15323
     Eigenvalues ---    0.18131   0.18244   0.18361   0.18378   0.19262
     Eigenvalues ---    0.19317   0.19530   0.19622   0.20128   0.20186
     Eigenvalues ---    0.22705   0.22778   0.31330   0.31737   0.31812
     Eigenvalues ---    0.31943   0.33681   0.33693   0.33843   0.33888
     Eigenvalues ---    0.34378   0.34619   0.34636   0.35484   0.35628
     Eigenvalues ---    0.35635   0.35745   0.35840   0.36031   0.38323
     Eigenvalues ---    0.39922   0.41186   0.41213   0.44282   0.44380
     Eigenvalues ---    0.45517   0.45524   0.45993   0.45996   0.46349
     Eigenvalues ---    0.46718   0.47397   0.47560   0.51069   0.51152
 RFO step:  Lambda=-6.59956147D-03 EMin= 5.79760155D-05
 Linear search not attempted -- first point.
 Iteration  1 RMS(Cart)=  0.02193922 RMS(Int)=  0.00053452
 Iteration  2 RMS(Cart)=  0.00084462 RMS(Int)=  0.00033108
 Iteration  3 RMS(Cart)=  0.00000040 RMS(Int)=  0.00033108
 Variable       Old X    -DE/DX   Delta X   Delta X   Delta X     New X
                                 (Linear)    (Quad)   (Total)
    R1        2.64542   0.00228   0.00000  -0.00355  -0.00355   2.64187
    R2        1.91810  -0.00242   0.00000  -0.00490  -0.00490   1.91320
    R3        1.91809  -0.00247   0.00000  -0.00492  -0.00492   1.91316
    R4        2.63221   0.00877   0.00000   0.01940   0.01948   2.65170
    R5        2.64045   0.00700   0.00000   0.01538   0.01545   2.65590
    R6        2.64059  -0.00333   0.00000  -0.00812  -0.00810   2.63249
    R7        2.05284   0.00080   0.00000   0.00125   0.00125   2.05409
    R8        2.65452   0.00014   0.00000  -0.00500  -0.00506   2.64945
    R9        2.05662  -0.00134   0.00000  -0.00229  -0.00229   2.05433
   R10        2.78329   0.01706   0.00000   0.04439   0.04439   2.82768
   R11        2.66618   0.00124   0.00000   0.00508   0.00499   2.67117
   R12        2.65451   0.00015   0.00000  -0.00499  -0.00506   2.64945
   R13        2.66618   0.00124   0.00000   0.00508   0.00499   2.67117
   R14        2.64060  -0.00333   0.00000  -0.00812  -0.00810   2.63249
   R15        2.05663  -0.00134   0.00000  -0.00229  -0.00229   2.05433
   R16        2.63221   0.00877   0.00000   0.01940   0.01949   2.65170
   R17        2.05285   0.00080   0.00000   0.00124   0.00124   2.05409
   R18        2.64543   0.00228   0.00000  -0.00355  -0.00355   2.64187
   R19        2.64045   0.00700   0.00000   0.01539   0.01545   2.65590
   R20        1.91809  -0.00247   0.00000  -0.00492  -0.00492   1.91316
   R21        1.91810  -0.00242   0.00000  -0.00490  -0.00490   1.91320
   R22        2.66055  -0.00643   0.00000  -0.01929  -0.01931   2.64124
   R23        2.05532   0.00002   0.00000   0.00067   0.00067   2.05598
   R24        2.84536   0.00482   0.00000   0.01216   0.01216   2.85752
   R25        2.06829   0.00021   0.00000   0.00143   0.00143   2.06972
   R26        2.06986  -0.00113   0.00000  -0.00394  -0.00394   2.06592
   R27        2.06816   0.00049   0.00000   0.00206   0.00206   2.07022
   R28        2.84536   0.00482   0.00000   0.01216   0.01216   2.85752
   R29        2.66055  -0.00643   0.00000  -0.01929  -0.01931   2.64124
   R30        2.06986  -0.00113   0.00000  -0.00395  -0.00395   2.06592
   R31        2.06829   0.00021   0.00000   0.00143   0.00143   2.06972
   R32        2.06816   0.00048   0.00000   0.00205   0.00205   2.07022
   R33        2.05532   0.00002   0.00000   0.00066   0.00066   2.05598
    A1        1.98471   0.00219   0.00000   0.01249   0.01250   1.99720
    A2        1.98467   0.00197   0.00000   0.01151   0.01152   1.99619
    A3        1.96029  -0.00348   0.00000  -0.02611  -0.02610   1.93418
    A4        2.09950   0.00204   0.00000   0.01348   0.01193   2.11143
    A5        2.09948   0.00139   0.00000   0.00788   0.00627   2.10575
    A6        2.06947  -0.00286   0.00000  -0.00493  -0.00637   2.06310
    A7        2.10445  -0.00274   0.00000  -0.01120  -0.01114   2.09330
    A8        2.10108  -0.00033   0.00000  -0.00854  -0.00857   2.09251
    A9        2.07766   0.00307   0.00000   0.01974   0.01971   2.09737
   A10        2.11435   0.00411   0.00000   0.01795   0.01782   2.13217
   A11        2.07732  -0.00092   0.00000  -0.00051  -0.00050   2.07682
   A12        2.09141  -0.00319   0.00000  -0.01723  -0.01722   2.07419
   A13        2.07794   0.00353   0.00000   0.01643   0.01649   2.09442
   A14        2.06906  -0.00123   0.00000  -0.00706  -0.00731   2.06175
   A15        2.13616  -0.00230   0.00000  -0.00924  -0.00918   2.12698
   A16        2.07794   0.00353   0.00000   0.01643   0.01649   2.09442
   A17        2.13616  -0.00230   0.00000  -0.00924  -0.00918   2.12698
   A18        2.06906  -0.00123   0.00000  -0.00706  -0.00731   2.06175
   A19        2.11435   0.00411   0.00000   0.01795   0.01782   2.13217
   A20        2.09141  -0.00319   0.00000  -0.01723  -0.01722   2.07419
   A21        2.07732  -0.00092   0.00000  -0.00051  -0.00050   2.07682
   A22        2.10445  -0.00275   0.00000  -0.01121  -0.01114   2.09330
   A23        2.07766   0.00307   0.00000   0.01974   0.01971   2.09737
   A24        2.10108  -0.00033   0.00000  -0.00854  -0.00857   2.09251
   A25        2.09950   0.00204   0.00000   0.01348   0.01193   2.11143
   A26        2.06947  -0.00286   0.00000  -0.00493  -0.00637   2.06310
   A27        2.09948   0.00139   0.00000   0.00788   0.00627   2.10575
   A28        1.98467   0.00197   0.00000   0.01151   0.01152   1.99619
   A29        1.98470   0.00219   0.00000   0.01250   0.01251   1.99720
   A30        1.96029  -0.00349   0.00000  -0.02612  -0.02611   1.93418
   A31        2.12137   0.00193   0.00000   0.00870   0.00871   2.13008
   A32        2.07877  -0.00048   0.00000  -0.00466  -0.00467   2.07410
   A33        2.08304  -0.00145   0.00000  -0.00403  -0.00404   2.07901
   A34        2.08444   0.00093   0.00000   0.00151   0.00135   2.08579
   A35        2.12017  -0.00273   0.00000  -0.00866  -0.00859   2.11157
   A36        2.07855   0.00180   0.00000   0.00721   0.00728   2.08582
   A37        1.92715   0.00330   0.00000   0.01762   0.01762   1.94478
   A38        1.94534  -0.00222   0.00000  -0.00605  -0.00610   1.93924
   A39        1.93010   0.00327   0.00000   0.01518   0.01518   1.94528
   A40        1.87406   0.00029   0.00000   0.01031   0.01026   1.88432
   A41        1.91320  -0.00539   0.00000  -0.05058  -0.05053   1.86268
   A42        1.87230   0.00046   0.00000   0.01199   0.01194   1.88425
   A43        2.12017  -0.00273   0.00000  -0.00866  -0.00859   2.11157
   A44        2.08444   0.00093   0.00000   0.00151   0.00135   2.08579
   A45        2.07855   0.00180   0.00000   0.00721   0.00728   2.08582
   A46        1.94534  -0.00222   0.00000  -0.00605  -0.00610   1.93923
   A47        1.92716   0.00330   0.00000   0.01762   0.01762   1.94478
   A48        1.93010   0.00327   0.00000   0.01517   0.01518   1.94528
   A49        1.87406   0.00029   0.00000   0.01031   0.01026   1.88432
   A50        1.87230   0.00046   0.00000   0.01199   0.01195   1.88425
   A51        1.91320  -0.00539   0.00000  -0.05058  -0.05053   1.86268
   A52        2.12138   0.00193   0.00000   0.00869   0.00871   2.13008
   A53        2.07877  -0.00048   0.00000  -0.00466  -0.00467   2.07410
   A54        2.08304  -0.00145   0.00000  -0.00403  -0.00404   2.07901
    D1        2.80026  -0.00219   0.00000  -0.05944  -0.05975   2.74050
    D2       -0.52755   0.00110   0.00000   0.04285   0.04316  -0.48439
    D3        0.52721  -0.00109   0.00000  -0.04443  -0.04474   0.48247
    D4       -2.80060   0.00219   0.00000   0.05785   0.05817  -2.74243
    D5        3.04402   0.00145   0.00000   0.03561   0.03588   3.07990
    D6       -0.10033   0.00146   0.00000   0.03566   0.03576  -0.06457
    D7        0.08548  -0.00222   0.00000  -0.06624  -0.06585   0.01962
    D8       -3.05887  -0.00221   0.00000  -0.06619  -0.06597  -3.12484
    D9       -3.04334  -0.00174   0.00000  -0.03746  -0.03691  -3.08025
   D10        0.10009  -0.00163   0.00000  -0.03755  -0.03719   0.06290
   D11       -0.08479   0.00200   0.00000   0.06500   0.06509  -0.01970
   D12        3.05864   0.00211   0.00000   0.06491   0.06482   3.12345
   D13       -0.03906   0.00094   0.00000   0.02978   0.02990  -0.00916
   D14        3.11754   0.00044   0.00000   0.01333   0.01319   3.13073
   D15        3.10525   0.00093   0.00000   0.02977   0.03006   3.13531
   D16       -0.02133   0.00043   0.00000   0.01332   0.01335  -0.00798
   D17        3.13904  -0.00032   0.00000  -0.00827  -0.00848   3.13055
   D18       -0.01053   0.00023   0.00000   0.00850   0.00840  -0.00214
   D19       -0.01769   0.00020   0.00000   0.00846   0.00834  -0.00934
   D20        3.11593   0.00075   0.00000   0.02523   0.02523   3.14115
   D21       -1.64512   0.00053   0.00000   0.01874   0.01882  -1.62630
   D22        1.50477  -0.00005   0.00000   0.00128   0.00128   1.50605
   D23        1.50477  -0.00005   0.00000   0.00127   0.00127   1.50605
   D24       -1.62852  -0.00062   0.00000  -0.01619  -0.01627  -1.64479
   D25       -3.12111  -0.00051   0.00000  -0.01852  -0.01850  -3.13961
   D26        0.01185  -0.00024   0.00000  -0.00930  -0.00942   0.00243
   D27        0.01223   0.00008   0.00000  -0.00103  -0.00116   0.01106
   D28       -3.13800   0.00035   0.00000   0.00818   0.00792  -3.13008
   D29        3.13903  -0.00032   0.00000  -0.00827  -0.00848   3.13055
   D30       -0.01771   0.00020   0.00000   0.00847   0.00836  -0.00935
   D31       -0.01054   0.00023   0.00000   0.00850   0.00840  -0.00214
   D32        3.11591   0.00075   0.00000   0.02524   0.02524   3.14115
   D33       -3.13800   0.00035   0.00000   0.00818   0.00792  -3.13008
   D34        0.01222   0.00008   0.00000  -0.00103  -0.00116   0.01106
   D35        0.01185  -0.00024   0.00000  -0.00930  -0.00942   0.00243
   D36       -3.12112  -0.00051   0.00000  -0.01851  -0.01849  -3.13961
   D37       -0.03906   0.00094   0.00000   0.02978   0.02990  -0.00916
   D38        3.10522   0.00093   0.00000   0.02980   0.03009   3.13531
[...]
    54    C    4  pz     Val( 2p)     1.11478
    55    C    4  pz     Ryd( 3p)     0.00483
    56    C    4  dxy    Ryd( 3d)     0.00062
    57    C    4  dxz    Ryd( 3d)     0.00064
    58    C    4  dyz    Ryd( 3d)     0.00044
    59    C    4  dx2y2  Ryd( 3d)     0.00050
    60    C    4  dz2    Ryd( 3d)     0.00043

    61    C    5  S      Cor( 1S)     1.99895
    62    C    5  S      Val( 2S)     0.86967
    63    C    5  S      Ryd( 3S)     0.00096
    64    C    5  S      Ryd( 4S)     0.00006
    65    C    5  px     Val( 2p)     1.06211
    66    C    5  px     Ryd( 3p)     0.00521
    67    C    5  py     Val( 2p)     1.04301
    68    C    5  py     Ryd( 3p)     0.00372
    69    C    5  pz     Val( 2p)     1.02659
    70    C    5  pz     Ryd( 3p)     0.00384
    71    C    5  dxy    Ryd( 3d)     0.00069
    72    C    5  dxz    Ryd( 3d)     0.00064
    73    C    5  dyz    Ryd( 3d)     0.00040
    74    C    5  dx2y2  Ryd( 3d)     0.00076
    75    C    5  dz2    Ryd( 3d)     0.00086

    76    C    6  S      Cor( 1S)     1.99895
    77    C    6  S      Val( 2S)     0.86967
    78    C    6  S      Ryd( 3S)     0.00096
    79    C    6  S      Ryd( 4S)     0.00006
    80    C    6  px     Val( 2p)     1.06211
    81    C    6  px     Ryd( 3p)     0.00521
    82    C    6  py     Val( 2p)     1.04301
    83    C    6  py     Ryd( 3p)     0.00372
    84    C    6  pz     Val( 2p)     1.02659
    85    C    6  pz     Ryd( 3p)     0.00384
    86    C    6  dxy    Ryd( 3d)     0.00069
    87    C    6  dxz    Ryd( 3d)     0.00064
    88    C    6  dyz    Ryd( 3d)     0.00040
    89    C    6  dx2y2  Ryd( 3d)     0.00076
    90    C    6  dz2    Ryd( 3d)     0.00086

    91    C    7  S      Cor( 1S)     1.99905
    92    C    7  S      Val( 2S)     0.94600
    93    C    7  S      Ryd( 3S)     0.00072
    94    C    7  S      Ryd( 4S)     0.00005
    95    C    7  px     Val( 2p)     1.09492
    96    C    7  px     Ryd( 3p)     0.00418
    97    C    7  py     Val( 2p)     1.11136
    98    C    7  py     Ryd( 3p)     0.00485
    99    C    7  pz     Val( 2p)     1.11478
   100    C    7  pz     Ryd( 3p)     0.00483
   101    C    7  dxy    Ryd( 3d)     0.00062
   102    C    7  dxz    Ryd( 3d)     0.00064
   103    C    7  dyz    Ryd( 3d)     0.00044
   104    C    7  dx2y2  Ryd( 3d)     0.00050
   105    C    7  dz2    Ryd( 3d)     0.00043

   106    C    8  S      Cor( 1S)     1.99903
   107    C    8  S      Val( 2S)     0.95093
   108    C    8  S      Ryd( 3S)     0.00063
   109    C    8  S      Ryd( 4S)     0.00004
   110    C    8  px     Val( 2p)     1.09455
   111    C    8  px     Ryd( 3p)     0.00451
   112    C    8  py     Val( 2p)     1.12775
   113    C    8  py     Ryd( 3p)     0.00416
   114    C    8  pz     Val( 2p)     1.12963
   115    C    8  pz     Ryd( 3p)     0.00429
   116    C    8  dxy    Ryd( 3d)     0.00063
   117    C    8  dxz    Ryd( 3d)     0.00062
   118    C    8  dyz    Ryd( 3d)     0.00046
   119    C    8  dx2y2  Ryd( 3d)     0.00044
   120    C    8  dz2    Ryd( 3d)     0.00037

   121    C    9  S      Cor( 1S)     1.99897
   122    C    9  S      Val( 2S)     0.84850
   123    C    9  S      Ryd( 3S)     0.00118
   124    C    9  S      Ryd( 4S)     0.00010
   125    C    9  px     Val( 2p)     0.89902
   126    C    9  px     Ryd( 3p)     0.00566
   127    C    9  py     Val( 2p)     1.02737
   128    C    9  py     Ryd( 3p)     0.00304
   129    C    9  pz     Val( 2p)     1.02369
   130    C    9  pz     Ryd( 3p)     0.00297
   131    C    9  dxy    Ryd( 3d)     0.00118
   132    C    9  dxz    Ryd( 3d)     0.00115
   133    C    9  dyz    Ryd( 3d)     0.00041
   134    C    9  dx2y2  Ryd( 3d)     0.00114
   135    C    9  dz2    Ryd( 3d)     0.00107

   136    N   10  S      Cor( 1S)     1.99949
   137    N   10  S      Val( 2S)     1.37057
   138    N   10  S      Ryd( 3S)     0.00011
   139    N   10  S      Ryd( 4S)     0.00001
   140    N   10  px     Val( 2p)     1.31996
   141    N   10  px     Ryd( 3p)     0.00224
   142    N   10  py     Val( 2p)     1.53617
   143    N   10  py     Ryd( 3p)     0.00265
   144    N   10  pz     Val( 2p)     1.53714
   145    N   10  pz     Ryd( 3p)     0.00267
   146    N   10  dxy    Ryd( 3d)     0.00068
   147    N   10  dxz    Ryd( 3d)     0.00060
   148    N   10  dyz    Ryd( 3d)     0.00053
   149    N   10  dx2y2  Ryd( 3d)     0.00068
   150    N   10  dz2    Ryd( 3d)     0.00083

   151    C   11  S      Cor( 1S)     1.99898
   152    C   11  S      Val( 2S)     0.94100
   153    C   11  S      Ryd( 3S)     0.00061
   154    C   11  S      Ryd( 4S)     0.00004
   155    C   11  px     Val( 2p)     1.10402
   156    C   11  px     Ryd( 3p)     0.00397
   157    C   11  py     Val( 2p)     1.13160
   158    C   11  py     Ryd( 3p)     0.00422
   159    C   11  pz     Val( 2p)     1.13788
   160    C   11  pz     Ryd( 3p)     0.00420
   161    C   11  dxy    Ryd( 3d)     0.00060
   162    C   11  dxz    Ryd( 3d)     0.00062
   163    C   11  dyz    Ryd( 3d)     0.00045
   164    C   11  dx2y2  Ryd( 3d)     0.00044
   165    C   11  dz2    Ryd( 3d)     0.00036

   166    C   12  S      Cor( 1S)     1.99898
   167    C   12  S      Val( 2S)     0.87281
   168    C   12  S      Ryd( 3S)     0.00051
   169    C   12  S      Ryd( 4S)     0.00005
   170    C   12  px     Val( 2p)     1.07334
   171    C   12  px     Ryd( 3p)     0.00394
   172    C   12  py     Val( 2p)     1.03734
   173    C   12  py     Ryd( 3p)     0.00420
   174    C   12  pz     Val( 2p)     1.04950
   175    C   12  pz     Ryd( 3p)     0.00415
   176    C   12  dxy    Ryd( 3d)     0.00071
   177    C   12  dxz    Ryd( 3d)     0.00073
   178    C   12  dyz    Ryd( 3d)     0.00045
   179    C   12  dx2y2  Ryd( 3d)     0.00060
   180    C   12  dz2    Ryd( 3d)     0.00054

   181    C   13  S      Cor( 1S)     1.99940
   182    C   13  S      Val( 2S)     1.09568
   183    C   13  S      Ryd( 3S)     0.00022
   184    C   13  S      Ryd( 4S)     0.00001
   185    C   13  px     Val( 2p)     1.22724
   186    C   13  px     Ryd( 3p)     0.00203
   187    C   13  py     Val( 2p)     1.18261
   188    C   13  py     Ryd( 3p)     0.00081
   189    C   13  pz     Val( 2p)     1.18730
   190    C   13  pz     Ryd( 3p)     0.00080
   191    C   13  dxy    Ryd( 3d)     0.00082
   192    C   13  dxz    Ryd( 3d)     0.00086
   193    C   13  dyz    Ryd( 3d)     0.00076
   194    C   13  dx2y2  Ryd( 3d)     0.00021
   195    C   13  dz2    Ryd( 3d)     0.00028

   196    C   14  S      Cor( 1S)     1.99898
   197    C   14  S      Val( 2S)     0.87281
   198    C   14  S      Ryd( 3S)     0.00051
   199    C   14  S      Ryd( 4S)     0.00005
   200    C   14  px     Val( 2p)     1.07334
   201    C   14  px     Ryd( 3p)     0.00394
   202    C   14  py     Val( 2p)     1.03734
   203    C   14  py     Ryd( 3p)     0.00420
   204    C   14  pz     Val( 2p)     1.04950
   205    C   14  pz     Ryd( 3p)     0.00415
   206    C   14  dxy    Ryd( 3d)     0.00071
   207    C   14  dxz    Ryd( 3d)     0.00073
   208    C   14  dyz    Ryd( 3d)     0.00045
   209    C   14  dx2y2  Ryd( 3d)     0.00060
   210    C   14  dz2    Ryd( 3d)     0.00054

   211    C   15  S      Cor( 1S)     1.99940
   212    C   15  S      Val( 2S)     1.09568
   213    C   15  S      Ryd( 3S)     0.00022
   214    C   15  S      Ryd( 4S)     0.00001
   215    C   15  px     Val( 2p)     1.22724
   216    C   15  px     Ryd( 3p)     0.00203
   217    C   15  py     Val( 2p)     1.18261
   218    C   15  py     Ryd( 3p)     0.00081
   219    C   15  pz     Val( 2p)     1.18730
   220    C   15  pz     Ryd( 3p)     0.00080
   221    C   15  dxy    Ryd( 3d)     0.00082
   222    C   15  dxz    Ryd( 3d)     0.00086
   223    C   15  dyz    Ryd( 3d)     0.00076
   224    C   15  dx2y2  Ryd( 3d)     0.00021
   225    C   15  dz2    Ryd( 3d)     0.00028

   226    C   16  S      Cor( 1S)     1.99898
   227    C   16  S      Val( 2S)     0.94100
   228    C   16  S      Ryd( 3S)     0.00061
   229    C   16  S      Ryd( 4S)     0.00004
   230    C   16  px     Val( 2p)     1.10402
   231    C   16  px     Ryd( 3p)     0.00397
   232    C   16  py     Val( 2p)     1.13160
   233    C   16  py     Ryd( 3p)     0.00422
   234    C   16  pz     Val( 2p)     1.13788
   235    C   16  pz     Ryd( 3p)     0.00420
   236    C   16  dxy    Ryd( 3d)     0.00060
   237    C   16  dxz    Ryd( 3d)     0.00062
   238    C   16  dyz    Ryd( 3d)     0.00045
   239    C   16  dx2y2  Ryd( 3d)     0.00044
   240    C   16  dz2    Ryd( 3d)     0.00036

   241    H   17  S      Val( 1S)     0.57591
   242    H   17  S      Ryd( 2S)     0.00157
   243    H   17  px     Ryd( 2p)     0.00030
   244    H   17  py     Ryd( 2p)     0.00059
   245    H   17  pz     Ryd( 2p)     0.00035

   246    H   18  S      Val( 1S)     0.57540
   247    H   18  S      Ryd( 2S)     0.00140
   248    H   18  px     Ryd( 2p)     0.00028
   249    H   18  py     Ryd( 2p)     0.00036
   250    H   18  pz     Ryd( 2p)     0.00060

   251    H   19  S      Val( 1S)     0.76034
   252    H   19  S      Ryd( 2S)     0.00103
   253    H   19  px     Ryd( 2p)     0.00012
   254    H   19  py     Ryd( 2p)     0.00026
   255    H   19  pz     Ryd( 2p)     0.00025

   256    H   20  S      Val( 1S)     0.75904
   257    H   20  S      Ryd( 2S)     0.00093
   258    H   20  px     Ryd( 2p)     0.00016
   259    H   20  py     Ryd( 2p)     0.00024
   260    H   20  pz     Ryd( 2p)     0.00024

   261    H   21  S      Val( 1S)     0.75904
   262    H   21  S      Ryd( 2S)     0.00093
   263    H   21  px     Ryd( 2p)     0.00016
   264    H   21  py     Ryd( 2p)     0.00024
   265    H   21  pz     Ryd( 2p)     0.00024

   266    H   22  S      Val( 1S)     0.76034
   267    H   22  S      Ryd( 2S)     0.00103
   268    H   22  px     Ryd( 2p)     0.00012
   269    H   22  py     Ryd( 2p)     0.00026
   270    H   22  pz     Ryd( 2p)     0.00025

   271    H   23  S      Val( 1S)     0.57540
   272    H   23  S      Ryd( 2S)     0.00140
   273    H   23  px     Ryd( 2p)     0.00028
   274    H   23  py     Ryd( 2p)     0.00036
   275    H   23  pz     Ryd( 2p)     0.00060

   276    H   24  S      Val( 1S)     0.57591
   277    H   24  S      Ryd( 2S)     0.00157
   278    H   24  px     Ryd( 2p)     0.00030
   279    H   24  py     Ryd( 2p)     0.00059
   280    H   24  pz     Ryd( 2p)     0.00035

   281    H   25  S      Val( 1S)     0.76438
   282    H   25  S      Ryd( 2S)     0.00117
   283    H   25  px     Ryd( 2p)     0.00015
   284    H   25  py     Ryd( 2p)     0.00023
   285    H   25  pz     Ryd( 2p)     0.00024

   286    H   26  S      Val( 1S)     0.75142
   287    H   26  S      Ryd( 2S)     0.00117
   288    H   26  px     Ryd( 2p)     0.00017
   289    H   26  py     Ryd( 2p)     0.00020
   290    H   26  pz     Ryd( 2p)     0.00017

   291    H   27  S      Val( 1S)     0.75879
   292    H   27  S      Ryd( 2S)     0.00080
   293    H   27  px     Ryd( 2p)     0.00019
   294    H   27  py     Ryd( 2p)     0.00015
   295    H   27  pz     Ryd( 2p)     0.00016

   296    H   28  S      Val( 1S)     0.75516
   297    H   28  S      Ryd( 2S)     0.00096
   298    H   28  px     Ryd( 2p)     0.00019
   299    H   28  py     Ryd( 2p)     0.00016
   300    H   28  pz     Ryd( 2p)     0.00020

   301    H   29  S      Val( 1S)     0.75879
   302    H   29  S      Ryd( 2S)     0.00080
   303    H   29  px     Ryd( 2p)     0.00019
   304    H   29  py     Ryd( 2p)     0.00015
   305    H   29  pz     Ryd( 2p)     0.00016

   306    H   30  S      Val( 1S)     0.75142
   307    H   30  S      Ryd( 2S)     0.00117
   308    H   30  px     Ryd( 2p)     0.00017
   309    H   30  py     Ryd( 2p)     0.00020
   310    H   30  pz     Ryd( 2p)     0.00017

   311    H   31  S      Val( 1S)     0.75516
   312    H   31  S      Ryd( 2S)     0.00096
   313    H   31  px     Ryd( 2p)     0.00019
   314    H   31  py     Ryd( 2p)     0.00016
   315    H   31  pz     Ryd( 2p)     0.00020

   316    H   32  S      Val( 1S)     0.76438
   317    H   32  S      Ryd( 2S)     0.00117
   318    H   32  px     Ryd( 2p)     0.00015
   319    H   32  py     Ryd( 2p)     0.00023
   320    H   32  pz     Ryd( 2p)     0.00024

 WARNING:  1 low occupancy (<1.9990e) core orbital  found on  C    2
           1 low occupancy (<1.9990e) core orbital  found on  C    5
           1 low occupancy (<1.9990e) core orbital  found on  C    6
           1 low occupancy (<1.9990e) core orbital  found on  C    9
           1 low occupancy (<1.9990e) core orbital  found on  C   11
           1 low occupancy (<1.9990e) core orbital  found on  C   12
           1 low occupancy (<1.9990e) core orbital  found on  C   14
           1 low occupancy (<1.9990e) core orbital  found on  C   16


 Summary of Natural Population Analysis:                  
                                                          
                                       Natural Population 
                Natural  -----------------------------------------------
    Atom  No    Charge         Core      Valence    Rydberg      Total
 -----------------------------------------------------------------------
      N    1   -0.77435      1.99949     5.76384    0.01101     7.77435
      C    2    0.18455      1.99897     3.79858    0.01790     5.81545
      C    3   -0.31805      1.99903     4.30287    0.01614     6.31805
      C    4   -0.28338      1.99905     4.26706    0.01727     6.28338
      C    5   -0.01745      1.99895     4.00137    0.01713     6.01745
      C    6   -0.01745      1.99895     4.00137    0.01713     6.01745
      C    7   -0.28338      1.99905     4.26706    0.01727     6.28338
      C    8   -0.31805      1.99903     4.30287    0.01614     6.31805
      C    9    0.18455      1.99897     3.79858    0.01790     5.81545
      N   10   -0.77435      1.99949     5.76384    0.01101     7.77435
      C   11   -0.32900      1.99898     4.31450    0.01552     6.32900
      C   12   -0.04785      1.99898     4.03298    0.01588     6.04785
      C   13   -0.69903      1.99940     4.69283    0.00680     6.69903
      C   14   -0.04785      1.99898     4.03298    0.01588     6.04785
      C   15   -0.69903      1.99940     4.69283    0.00680     6.69903
      C   16   -0.32900      1.99898     4.31450    0.01552     6.32900
      H   17    0.42127      0.00000     0.57591    0.00282     0.57873
      H   18    0.42197      0.00000     0.57540    0.00264     0.57803
      H   19    0.23800      0.00000     0.76034    0.00166     0.76200
      H   20    0.23940      0.00000     0.75904    0.00157     0.76060
      H   21    0.23940      0.00000     0.75904    0.00157     0.76060
      H   22    0.23800      0.00000     0.76034    0.00166     0.76200
      H   23    0.42197      0.00000     0.57540    0.00264     0.57803
      H   24    0.42127      0.00000     0.57591    0.00282     0.57873
      H   25    0.23382      0.00000     0.76438    0.00179     0.76618
      H   26    0.24686      0.00000     0.75142    0.00172     0.75314
      H   27    0.23991      0.00000     0.75879    0.00130     0.76009
      H   28    0.24333      0.00000     0.75516    0.00151     0.75667
      H   29    0.23991      0.00000     0.75879    0.00130     0.76009
      H   30    0.24686      0.00000     0.75142    0.00172     0.75314
      H   31    0.24333      0.00000     0.75516    0.00151     0.75667
      H   32    0.23382      0.00000     0.76438    0.00179     0.76618
 =======================================================================
   * Total *    0.00000     31.98573    81.74896    0.26531   114.00000

                                 Natural Population      
 --------------------------------------------------------
   Core                      31.98573 ( 99.9554% of  32)
   Valence                   81.74896 ( 99.6938% of  82)
   Natural Minimal Basis    113.73469 ( 99.7673% of 114)
   Natural Rydberg Basis      0.26531 (  0.2327% of 114)
 --------------------------------------------------------

    Atom  No          Natural Electron Configuration
 ----------------------------------------------------------------------------
      N    1      [core]2S( 1.37)2p( 4.39)3p( 0.01)
      C    2      [core]2S( 0.85)2p( 2.95)3p( 0.01)
      C    3      [core]2S( 0.95)2p( 3.35)3p( 0.01)
      C    4      [core]2S( 0.95)2p( 3.32)3p( 0.01)
      C    5      [core]2S( 0.87)2p( 3.13)3p( 0.01)
      C    6      [core]2S( 0.87)2p( 3.13)3p( 0.01)
      C    7      [core]2S( 0.95)2p( 3.32)3p( 0.01)
      C    8      [core]2S( 0.95)2p( 3.35)3p( 0.01)
      C    9      [core]2S( 0.85)2p( 2.95)3p( 0.01)
      N   10      [core]2S( 1.37)2p( 4.39)3p( 0.01)
      C   11      [core]2S( 0.94)2p( 3.37)3p( 0.01)
      C   12      [core]2S( 0.87)2p( 3.16)3p( 0.01)
      C   13      [core]2S( 1.10)2p( 3.60)
      C   14      [core]2S( 0.87)2p( 3.16)3p( 0.01)
      C   15      [core]2S( 1.10)2p( 3.60)
      C   16      [core]2S( 0.94)2p( 3.37)3p( 0.01)
      H   17            1S( 0.58)
      H   18            1S( 0.58)
      H   19            1S( 0.76)
      H   20            1S( 0.76)
      H   21            1S( 0.76)
      H   22            1S( 0.76)
      H   23            1S( 0.58)
      H   24            1S( 0.58)
      H   25            1S( 0.76)
      H   26            1S( 0.75)
      H   27            1S( 0.76)
      H   28            1S( 0.76)
      H   29            1S( 0.76)
      H   30            1S( 0.75)
      H   31            1S( 0.76)
      H   32            1S( 0.76)


 NBO analysis skipped by request.
 1\1\GINC-DRG2-W012\SP\RB3LYP TD-FC\6-31G(d,p)\C14H16N2\QDUEZ\22-Jul-20
 24\0\\# TD(NStates=10, Root=1) B3LYP/6-31G** SCRF=(Solvent=water) volu
 me pop=NPA density=current Geom=AllCheck Guess=Read\\QYIMZXITLDTULQ-UH
 FFFAOYSA-N_conf_3\\0,1\N,0,4.7803327138,0.0443670755,1.4674406122\C,0,
 3.4270892271,-0.0703732739,1.1356403308\C,0,2.4295056844,0.0356017451,
 2.1176558049\C,0,1.0862914128,-0.0163659511,1.7520108495\C,0,0.6806308
 697,-0.1733766276,0.4192194844\C,0,-0.7779730601,-0.238918567,0.082089
 2577\C,0,-1.4384913318,-1.4753852477,0.0618059033\C,0,-2.7957716374,-1
 .5869299625,-0.2313994885\C,0,-3.5467274953,-0.4363574811,-0.519507604
 1\N,0,-4.8942312341,-0.5267869854,-0.8808673793\C,0,-2.8914510893,0.80
 73026079,-0.4979579816\C,0,-1.5299415641,0.9234439447,-0.2040020597\C,
 0,-0.8854037308,2.2913807794,-0.185963848\C,0,1.6809224551,-0.28396078
 39,-0.5735440179\C,0,1.3155452596,-0.4695060157,-2.0292493627\C,0,3.02
 74934275,-0.2310920432,-0.2026550951\H,0,5.411550595,-0.4043589077,0.8
 153785322\H,0,5.001475842,-0.2183689043,2.419807131\H,0,2.708295275,0.
 1572764885,3.1612076306\H,0,0.326135475,0.062126522,2.52518387\H,0,-0.
 8723230165,-2.375516943,0.287662068\H,0,-3.2760538743,-2.5620316407,-0
 .2372715259\H,0,-5.3703724366,-1.3441014815,-0.5200030924\H,0,-5.43355
 98942,0.311137999,-0.7020314374\H,0,-3.4645175106,1.7060335925,-0.7162
 189562\H,0,-0.4777942403,2.528226232,0.8028696203\H,0,-1.6055399337,3.
 0699296865,-0.4509251756\H,0,-0.0481214277,2.3506803603,-0.8900883674\
 H,0,2.2091004067,-0.5135350482,-2.6573892352\H,0,0.7459673692,-1.39237
 15971,-2.1839524199\H,0,0.6856752441,0.3496934895,-2.3932897053\H,0,3.
 7922622199,-0.3178630613,-0.9716543427\\Version=ES64L-G16RevA.03\State
 =1-A\HF=-652.6849796\RMSD=8.662e-09\Dipole=-0.087973,-0.3726105,0.4530
 562\Quadrupole=24.2075687,-12.3111861,-11.8963826,-3.7821896,3.8134404
 ,-1.4418057\PG=C01 [X(C14H16N2)]\\@


 IN NATURE THERE ARE NEITHER REWARDS OR
 PUNISHMENTS -- THERE ARE CONSEQUENCES.

                            -- ROBERT GREEN INGERSOLL
 Job cpu time:       0 days  1 hours  2 minutes 16.6 seconds.
 Elapsed time:       0 days  0 hours 12 minutes 29.4 seconds.
 File lengths (MBytes):  RWF=    844 Int=      0 D2E=      0 Chk=     53 Scr=      1
 Normal termination of Gaussian 16 at Mon Jul 22 11:46:15 2024.
