 Entering Gaussian System, Link 0=g16
 Initial command:
 /opt/sw/arch/manual/gaussian/G16_A03/g16/l1.exe "/scratch/1380828/Gau-9381.inp" -scrdir="/scratch/1380828/"
 Entering Link 1 = /opt/sw/arch/manual/gaussian/G16_A03/g16/l1.exe PID=      9382.
  
 Copyright (c) 1988,1990,1992,1993,1995,1998,2003,2009,2016,
            Gaussian, Inc.  All Rights Reserved.
  
 This is part of the Gaussian(R) 16 program.  It is based on
 the Gaussian(R) 09 system (copyright 2009, Gaussian, Inc.),
 the Gaussian(R) 03 system (copyright 2003, Gaussian, Inc.),
 the Gaussian(R) 98 system (copyright 1998, Gaussian, Inc.),
 the Gaussian(R) 94 system (copyright 1995, Gaussian, Inc.),
 the Gaussian 92(TM) system (copyright 1992, Gaussian, Inc.),
 the Gaussian 90(TM) system (copyright 1990, Gaussian, Inc.),
 the Gaussian 88(TM) system (copyright 1988, Gaussian, Inc.),
 the Gaussian 86(TM) system (copyright 1986, Carnegie Mellon
 University), and the Gaussian 82(TM) system (copyright 1983,
 Carnegie Mellon University). Gaussian is a federally registered
 trademark of Gaussian, Inc.
  
 This software contains proprietary and confidential information,
 including trade secrets, belonging to Gaussian, Inc.
  
 This software is provided under written license and may be
 used, copied, transmitted, or stored only in accord with that
 written license.
  
 The following legend is applicable only to US Government
 contracts under FAR:
  
                    RESTRICTED RIGHTS LEGEND
  
 Use, reproduction and disclosure by the US Government is
 subject to restrictions as set forth in subparagraphs (a)
 and (c) of the Commercial Computer Software - Restricted
 Rights clause in FAR 52.227-19.
  
 Gaussian, Inc.
 340 Quinnipiac St., Bldg. 40, Wallingford CT 06492
  
  
 ---------------------------------------------------------------
 Warning -- This program may not be used in any manner that
 competes with the business of Gaussian, Inc. or will provide
 assistance to any competitor of Gaussian, Inc.  The licensee
 of this program is prohibited from giving any competitor of
 Gaussian, Inc. access to this program.  By using this program,
 the user acknowledges that Gaussian, Inc. is engaged in the
 business of creating and licensing software in the field of
 computational chemistry and represents and warrants to the
 licensee that it is not a competitor of Gaussian, Inc. and that
 it will not use this program in any manner prohibited above.
 ---------------------------------------------------------------
  

 Cite this work as:
 Gaussian 16, Revision A.03,
 M. J. Frisch, G. W. Trucks, H. B. Schlegel, G. E. Scuseria, 
 M. A. Robb, J. R. Cheeseman, G. Scalmani, V. Barone, 
 G. A. Petersson, H. Nakatsuji, X. Li, M. Caricato, A. V. Marenich, 
 J. Bloino, B. G. Janesko, R. Gomperts, B. Mennucci, H. P. Hratchian, 
 J. V. Ortiz, A. F. Izmaylov, J. L. Sonnenberg, D. Williams-Young, 
 F. Ding, F. Lipparini, F. Egidi, J. Goings, B. Peng, A. Petrone, 
 T. Henderson, D. Ranasinghe, V. G. Zakrzewski, J. Gao, N. Rega, 
 G. Zheng, W. Liang, M. Hada, M. Ehara, K. Toyota, R. Fukuda, 
 J. Hasegawa, M. Ishida, T. Nakajima, Y. Honda, O. Kitao, H. Nakai, 
 T. Vreven, K. Throssell, J. A. Montgomery, Jr., J. E. Peralta, 
 F. Ogliaro, M. J. Bearpark, J. J. Heyd, E. N. Brothers, K. N. Kudin, 
 V. N. Staroverov, T. A. Keith, R. Kobayashi, J. Normand, 
 K. Raghavachari, A. P. Rendell, J. C. Burant, S. S. Iyengar, 
 J. Tomasi, M. Cossi, J. M. Millam, M. Klene, C. Adamo, R. Cammi, 
 J. W. Ochterski, R. L. Martin, K. Morokuma, O. Farkas, 
 J. B. Foresman, and D. J. Fox, Gaussian, Inc., Wallingford CT, 2016.
 
 ******************************************
 Gaussian 16:  ES64L-G16RevA.03 25-Dec-2016
                17-Jul-2024 
 ******************************************
 %nprocshared=3
 Will use up to    3 processors via shared memory.
 %mem=6GB
 %Chk=GEQHKFFSPGPGLN-OLQVQODUSA-N_conf_1_0.chk
 -------------------------------------------------------
 # opt=CalcFc B3LYP/6-31G** SCRF=(Solvent=water) scf=xqc
 -------------------------------------------------------
 1/10=4,18=20,19=15,26=3,38=1/1,3;
 2/9=110,12=2,17=6,18=5,40=1/2;
 3/5=1,6=6,7=101,11=2,25=1,30=1,70=2201,71=2,72=1,74=-5,140=1/1,2,3;
 4//1;
 5/5=2,8=3,13=1,38=5,53=1/2,8;
 8/6=4,10=90,11=11/1;
 11/6=1,8=1,9=11,15=111,16=1/1,2,10;
 10/6=1,13=1/2;
 6/7=2,8=2,9=2,10=2,28=1/1;
 7/10=1,18=20,25=1/1,2,3,16;
 1/10=4,18=20,19=15,26=3/3(2);
 2/9=110/2;
 99//99;
 2/9=110/2;
 3/5=1,6=6,7=101,11=2,25=1,30=1,70=2205,71=1,72=1,74=-5/1,2,3;
 4/5=5,16=3,69=1/1;
 5/5=2,8=3,13=1,38=5,53=1/2,8;
 7//1,2,3,16;
 1/18=20,19=15,26=3/3(-5);
 2/9=110/2;
 6/7=2,8=2,9=2,10=2,19=2,28=1/1;
 99/9=1/99;
 ----------------------------------
 GEQHKFFSPGPGLN-OLQVQODUSA-N_conf_1
 ----------------------------------
 Symbolic Z-matrix:
 Charge =  0 Multiplicity = 1
 N                     2.15589  -0.40617   0.86923 
 C                     1.4513   -0.33688  -0.41366 
 C                     0.19071  -1.21644  -0.42239 
 C                    -0.94361  -0.6459    0.43985 
 N                    -2.13368  -1.49003   0.31578 
 C                    -1.2685    0.79885   0.04357 
 C                    -0.02726   1.68735   0.0946 
 C                     1.10565   1.1181   -0.75885 
 H                     1.56367  -0.07347   1.62768 
 H                     2.3669   -1.38015   1.08799 
 H                     2.14218  -0.7152   -1.17646 
 H                    -0.15258  -1.31066  -1.46229 
 H                     0.44095  -2.23314  -0.0914 
 H                    -0.63813  -0.66479   1.49261 
 H                    -2.89332  -1.09409   0.86914 
 H                    -2.46206  -1.48775  -0.64968 
 H                    -2.03452   1.2114    0.71163 
 H                    -1.68563   0.82719  -0.97187 
 H                     0.30376   1.79854   1.13385 
 H                    -0.28289   2.69171  -0.26229 
 H                     1.99354   1.75529  -0.66249 
 H                     0.80762   1.16623  -1.81455 
 

 GradGradGradGradGradGradGradGradGradGradGradGradGradGradGradGradGradGrad
 Berny optimization.
 Initialization pass.
                           ----------------------------
                           !    Initial Parameters    !
                           ! (Angstroms and Degrees)  !
 --------------------------                            --------------------------
 ! Name  Definition              Value          Derivative Info.                !
 --------------------------------------------------------------------------------
 ! R1    R(1,2)                  1.4653         calculate D2E/DX2 analytically  !
 ! R2    R(1,9)                  1.0182         calculate D2E/DX2 analytically  !
 ! R3    R(1,10)                 1.0203         calculate D2E/DX2 analytically  !
 ! R4    R(2,3)                  1.5371         calculate D2E/DX2 analytically  !
 ! R5    R(2,8)                  1.5348         calculate D2E/DX2 analytically  !
 ! R6    R(2,11)                 1.0965         calculate D2E/DX2 analytically  !
 ! R7    R(3,4)                  1.5348         calculate D2E/DX2 analytically  !
 ! R8    R(3,12)                 1.0991         calculate D2E/DX2 analytically  !
 ! R9    R(3,13)                 1.0981         calculate D2E/DX2 analytically  !
 ! R10   R(4,5)                  1.4643         calculate D2E/DX2 analytically  !
 ! R11   R(4,6)                  1.5329         calculate D2E/DX2 analytically  !
 ! R12   R(4,14)                 1.0963         calculate D2E/DX2 analytically  !
 ! R13   R(5,15)                 1.0198         calculate D2E/DX2 analytically  !
 ! R14   R(5,16)                 1.0198         calculate D2E/DX2 analytically  !
 ! R15   R(6,7)                  1.5273         calculate D2E/DX2 analytically  !
 ! R16   R(6,17)                 1.097          calculate D2E/DX2 analytically  !
 ! R17   R(6,18)                 1.0981         calculate D2E/DX2 analytically  !
 ! R18   R(7,8)                  1.5284         calculate D2E/DX2 analytically  !
 ! R19   R(7,19)                 1.0963         calculate D2E/DX2 analytically  !
 ! R20   R(7,20)                 1.0961         calculate D2E/DX2 analytically  !
 ! R21   R(8,21)                 1.0971         calculate D2E/DX2 analytically  !
 ! R22   R(8,22)                 1.098          calculate D2E/DX2 analytically  !
 ! A1    A(2,1,9)              110.9188         calculate D2E/DX2 analytically  !
 ! A2    A(2,1,10)             109.4089         calculate D2E/DX2 analytically  !
 ! A3    A(9,1,10)             105.8126         calculate D2E/DX2 analytically  !
 ! A4    A(1,2,3)              111.8555         calculate D2E/DX2 analytically  !
 ! A5    A(1,2,8)              110.4894         calculate D2E/DX2 analytically  !
 ! A6    A(1,2,11)             106.8447         calculate D2E/DX2 analytically  !
 ! A7    A(3,2,8)              110.8841         calculate D2E/DX2 analytically  !
 ! A8    A(3,2,11)             108.3814         calculate D2E/DX2 analytically  !
 ! A9    A(8,2,11)             108.2114         calculate D2E/DX2 analytically  !
 ! A10   A(2,3,4)              112.9667         calculate D2E/DX2 analytically  !
 ! A11   A(2,3,12)             108.0934         calculate D2E/DX2 analytically  !
 ! A12   A(2,3,13)             109.9493         calculate D2E/DX2 analytically  !
 ! A13   A(4,3,12)             109.4229         calculate D2E/DX2 analytically  !
 ! A14   A(4,3,13)             110.0752         calculate D2E/DX2 analytically  !
 ! A15   A(12,3,13)            106.0802         calculate D2E/DX2 analytically  !
 ! A16   A(3,4,5)              109.8011         calculate D2E/DX2 analytically  !
 ! A17   A(3,4,6)              111.208          calculate D2E/DX2 analytically  !
 ! A18   A(3,4,14)             109.0939         calculate D2E/DX2 analytically  !
 ! A19   A(5,4,6)              110.4357         calculate D2E/DX2 analytically  !
 ! A20   A(5,4,14)             107.3298         calculate D2E/DX2 analytically  !
 ! A21   A(6,4,14)             108.8766         calculate D2E/DX2 analytically  !
 ! A22   A(4,5,15)             109.6086         calculate D2E/DX2 analytically  !
 ! A23   A(4,5,16)             109.9152         calculate D2E/DX2 analytically  !
 ! A24   A(15,5,16)            105.8418         calculate D2E/DX2 analytically  !
 ! A25   A(4,6,7)              111.5548         calculate D2E/DX2 analytically  !
 ! A26   A(4,6,17)             110.1832         calculate D2E/DX2 analytically  !
 ! A27   A(4,6,18)             110.113          calculate D2E/DX2 analytically  !
 ! A28   A(7,6,17)             109.1707         calculate D2E/DX2 analytically  !
 ! A29   A(7,6,18)             108.9404         calculate D2E/DX2 analytically  !
 ! A30   A(17,6,18)            106.7493         calculate D2E/DX2 analytically  !
 ! A31   A(6,7,8)              111.5358         calculate D2E/DX2 analytically  !
 ! A32   A(6,7,19)             109.6362         calculate D2E/DX2 analytically  !
 ! A33   A(6,7,20)             109.4287         calculate D2E/DX2 analytically  !
 ! A34   A(8,7,19)             110.0777         calculate D2E/DX2 analytically  !
 ! A35   A(8,7,20)             109.4101         calculate D2E/DX2 analytically  !
 ! A36   A(19,7,20)            106.6263         calculate D2E/DX2 analytically  !
 ! A37   A(2,8,7)              113.2304         calculate D2E/DX2 analytically  !
 ! A38   A(2,8,21)             110.3996         calculate D2E/DX2 analytically  !
 ! A39   A(2,8,22)             108.5977         calculate D2E/DX2 analytically  !
 ! A40   A(7,8,21)             109.5448         calculate D2E/DX2 analytically  !
 ! A41   A(7,8,22)             108.6248         calculate D2E/DX2 analytically  !
 ! A42   A(21,8,22)            106.1797         calculate D2E/DX2 analytically  !
 ! D1    D(9,1,2,3)            -61.1197         calculate D2E/DX2 analytically  !
 ! D2    D(9,1,2,8)             62.9293         calculate D2E/DX2 analytically  !
 ! D3    D(9,1,2,11)          -179.5723         calculate D2E/DX2 analytically  !
 ! D4    D(10,1,2,3)            55.2378         calculate D2E/DX2 analytically  !
 ! D5    D(10,1,2,8)           179.2869         calculate D2E/DX2 analytically  !
 ! D6    D(10,1,2,11)          -63.2148         calculate D2E/DX2 analytically  !
 ! D7    D(1,2,3,4)             71.9944         calculate D2E/DX2 analytically  !
 ! D8    D(1,2,3,12)          -166.7795         calculate D2E/DX2 analytically  !
 ! D9    D(1,2,3,13)           -51.4018         calculate D2E/DX2 analytically  !
 ! D10   D(8,2,3,4)            -51.8332         calculate D2E/DX2 analytically  !
 ! D11   D(8,2,3,12)            69.393          calculate D2E/DX2 analytically  !
 ! D12   D(8,2,3,13)          -175.2294         calculate D2E/DX2 analytically  !
 ! D13   D(11,2,3,4)          -170.4709         calculate D2E/DX2 analytically  !
 ! D14   D(11,2,3,12)          -49.2447         calculate D2E/DX2 analytically  !
 ! D15   D(11,2,3,13)           66.1329         calculate D2E/DX2 analytically  !
 ! D16   D(1,2,8,7)            -72.9137         calculate D2E/DX2 analytically  !
 ! D17   D(1,2,8,21)            50.3193         calculate D2E/DX2 analytically  !
 ! D18   D(1,2,8,22)           166.3475         calculate D2E/DX2 analytically  !
 ! D19   D(3,2,8,7)             51.692          calculate D2E/DX2 analytically  !
 ! D20   D(3,2,8,21)           174.925          calculate D2E/DX2 analytically  !
 ! D21   D(3,2,8,22)           -69.0468         calculate D2E/DX2 analytically  !
 ! D22   D(11,2,8,7)           170.4324         calculate D2E/DX2 analytically  !
 ! D23   D(11,2,8,21)          -66.3346         calculate D2E/DX2 analytically  !
 ! D24   D(11,2,8,22)           49.6936         calculate D2E/DX2 analytically  !
 ! D25   D(2,3,4,5)            176.4801         calculate D2E/DX2 analytically  !
 ! D26   D(2,3,4,6)             53.9484         calculate D2E/DX2 analytically  !
 ! D27   D(2,3,4,14)           -66.155          calculate D2E/DX2 analytically  !
 ! D28   D(12,3,4,5)            56.01           calculate D2E/DX2 analytically  !
 ! D29   D(12,3,4,6)           -66.5217         calculate D2E/DX2 analytically  !
 ! D30   D(12,3,4,14)          173.3748         calculate D2E/DX2 analytically  !
 ! D31   D(13,3,4,5)           -60.1933         calculate D2E/DX2 analytically  !
 ! D32   D(13,3,4,6)           177.275          calculate D2E/DX2 analytically  !
 ! D33   D(13,3,4,14)           57.1715         calculate D2E/DX2 analytically  !
 ! D34   D(3,4,5,15)          -178.4328         calculate D2E/DX2 analytically  !
 ! D35   D(3,4,5,16)           -62.5018         calculate D2E/DX2 analytically  !
 ! D36   D(6,4,5,15)           -55.4446         calculate D2E/DX2 analytically  !
 ! D37   D(6,4,5,16)            60.4863         calculate D2E/DX2 analytically  !
 ! D38   D(14,4,5,15)           63.1067         calculate D2E/DX2 analytically  !
 ! D39   D(14,4,5,16)          179.0376         calculate D2E/DX2 analytically  !
 ! D40   D(3,4,6,7)            -54.905          calculate D2E/DX2 analytically  !
 ! D41   D(3,4,6,17)          -176.33           calculate D2E/DX2 analytically  !
 ! D42   D(3,4,6,18)            66.1801         calculate D2E/DX2 analytically  !
 ! D43   D(5,4,6,7)           -177.0697         calculate D2E/DX2 analytically  !
 ! D44   D(5,4,6,17)            61.5054         calculate D2E/DX2 analytically  !
 ! D45   D(5,4,6,18)           -55.9846         calculate D2E/DX2 analytically  !
 ! D46   D(14,4,6,7)            65.327          calculate D2E/DX2 analytically  !
 ! D47   D(14,4,6,17)          -56.0979         calculate D2E/DX2 analytically  !
 ! D48   D(14,4,6,18)         -173.5879         calculate D2E/DX2 analytically  !
 ! D49   D(4,6,7,8)             54.8047         calculate D2E/DX2 analytically  !
 ! D50   D(4,6,7,19)           -67.3801         calculate D2E/DX2 analytically  !
 ! D51   D(4,6,7,20)           176.0053         calculate D2E/DX2 analytically  !
 ! D52   D(17,6,7,8)           176.8154         calculate D2E/DX2 analytically  !
 ! D53   D(17,6,7,19)           54.6307         calculate D2E/DX2 analytically  !
 ! D54   D(17,6,7,20)          -61.984          calculate D2E/DX2 analytically  !
 ! D55   D(18,6,7,8)           -66.961          calculate D2E/DX2 analytically  !
 ! D56   D(18,6,7,19)          170.8542         calculate D2E/DX2 analytically  !
 ! D57   D(18,6,7,20)           54.2395         calculate D2E/DX2 analytically  !
 ! D58   D(6,7,8,2)            -53.7255         calculate D2E/DX2 analytically  !
 ! D59   D(6,7,8,21)          -177.4283         calculate D2E/DX2 analytically  !
 ! D60   D(6,7,8,22)            66.9981         calculate D2E/DX2 analytically  !
 ! D61   D(19,7,8,2)            68.2047         calculate D2E/DX2 analytically  !
 ! D62   D(19,7,8,21)          -55.4982         calculate D2E/DX2 analytically  !
 ! D63   D(19,7,8,22)         -171.0718         calculate D2E/DX2 analytically  !
 ! D64   D(20,7,8,2)          -174.9368         calculate D2E/DX2 analytically  !
 ! D65   D(20,7,8,21)           61.3603         calculate D2E/DX2 analytically  !
 ! D66   D(20,7,8,22)          -54.2133         calculate D2E/DX2 analytically  !
 --------------------------------------------------------------------------------
 Trust Radius=3.00D-01 FncErr=1.00D-07 GrdErr=1.00D-06 EigMax=2.50D+02 EigMin=1.00D-04
 Number of steps in this run=    132 maximum allowed number of steps=    132.
 GradGradGradGradGradGradGradGradGradGradGradGradGradGradGradGradGradGrad

                          Input orientation:                          
 ---------------------------------------------------------------------
 Center     Atomic      Atomic             Coordinates (Angstroms)
 Number     Number       Type             X           Y           Z
 ---------------------------------------------------------------------
      1          7           0        2.155894   -0.406170    0.869226
      2          6           0        1.451298   -0.336883   -0.413660
      3          6           0        0.190715   -1.216437   -0.422394
      4          6           0       -0.943608   -0.645896    0.439848
      5          7           0       -2.133678   -1.490027    0.315784
      6          6           0       -1.268499    0.798849    0.043569
      7          6           0       -0.027260    1.687347    0.094603
      8          6           0        1.105646    1.118105   -0.758851
      9          1           0        1.563670   -0.073474    1.627677
     10          1           0        2.366897   -1.380149    1.087994
     11          1           0        2.142175   -0.715204   -1.176456
     12          1           0       -0.152583   -1.310655   -1.462289
     13          1           0        0.440952   -2.233137   -0.091400
     14          1           0       -0.638127   -0.664792    1.492609
     15          1           0       -2.893318   -1.094091    0.869142
     16          1           0       -2.462055   -1.487754   -0.649678
     17          1           0       -2.034524    1.211404    0.711628
     18          1           0       -1.685627    0.827191   -0.971866
     19          1           0        0.303759    1.798536    1.133849
     20          1           0       -0.282888    2.691714   -0.262294
     21          1           0        1.993544    1.755291   -0.662495
     22          1           0        0.807618    1.166233   -1.814546
 ---------------------------------------------------------------------
                    Distance matrix (angstroms):
                    1          2          3          4          5
     1  N    0.000000
     2  C    1.465282   0.000000
     3  C    2.487316   1.537127   0.000000
     4  C    3.138271   2.561160   1.534819   0.000000
     5  N    4.458864   3.835867   2.454090   1.464314   0.000000
     6  C    3.722935   2.982656   2.531364   1.532931   2.462029
     7  C    3.122341   2.557727   2.957492   2.530397   3.818589
     8  C    2.465170   1.534803   2.529898   2.957705   4.295394
     9  H    1.018167   2.061326   2.719220   2.832851   4.171099
    10  H    1.020303   2.044918   2.654024   3.452342   4.567664
    11  H    2.068938   1.096494   2.151288   3.484151   4.594568
    12  H    3.403398   2.149486   1.099141   2.164660   2.668043
    13  H    2.683587   2.172655   1.098115   2.172226   2.710485
    14  H    2.874377   2.847293   2.158362   1.096348   2.074271
    15  H    5.095859   4.592889   3.345787   2.046104   1.019816
    16  H    4.980196   4.085896   2.676278   2.049750   1.019781
    17  H    4.494550   3.976735   3.483117   2.171065   2.732079
    18  H    4.434871   3.392191   2.828249   2.171063   2.688548
    19  H    2.891566   2.876046   3.394809   2.830690   4.174323
    20  H    4.101813   3.493238   3.939996   3.474074   4.609398
    21  H    2.654135   2.175578   3.484107   3.950661   5.340700
    22  H    3.390122   2.153175   2.827680   3.381257   4.499472
                    6          7          8          9         10
     6  C    0.000000
     7  C    1.527321   0.000000
     8  C    2.526334   1.528363   0.000000
     9  H    3.360286   2.825219   2.706503   0.000000
    10  H    4.365199   4.016011   3.353038   1.625986   0.000000
    11  H    3.926005   3.477685   2.147047   2.934220   2.370736
    12  H    2.821858   3.380479   2.824330   3.744867   3.585603
    13  H    3.483300   3.952723   3.481111   2.979910   2.414088
    14  H    2.153910   2.803594   3.359841   2.283815   3.115384
    15  H    2.627705   4.068243   4.851380   4.634843   5.272531
    16  H    2.670903   4.069822   4.419379   4.836631   5.133212
    17  H    1.096950   2.153219   3.468671   3.929002   5.121553
    18  H    1.098138   2.151140   2.814464   4.257552   5.053546
    19  H    2.158722   1.096344   2.165253   2.309905   3.789813
    20  H    2.155903   1.096117   2.156581   3.824660   5.042292
    21  H    3.471921   2.159042   1.097112   2.962103   3.610344
    22  H    2.810307   2.147889   1.098012   3.735958   4.164151
                   11         12         13         14         15
    11  H    0.000000
    12  H    2.387923   0.000000
    13  H    2.525001   1.755731   0.000000
    14  H    3.854417   3.063382   2.476530   0.000000
    15  H    5.448323   3.604733   3.652044   2.378843   0.000000
    16  H    4.698220   2.454662   3.048725   2.931446   1.627198
    17  H    4.972072   3.824709   4.317140   2.465759   2.465288
    18  H    4.131938   2.676028   3.829252   3.065437   2.922184
    19  H    3.877651   4.076181   4.215975   2.661549   4.319567
    20  H    4.280621   4.180422   4.980693   3.804209   4.735696
    21  H    2.527764   3.826951   4.317899   4.174562   5.860573
    22  H    2.393326   2.679748   3.828759   4.047234   5.099821
                   16         17         18         19         20
    16  H    0.000000
    17  H    3.053095   0.000000
    18  H    2.462848   1.761676   0.000000
    19  H    4.650849   2.447563   3.055356   0.000000
    20  H    4.729354   2.491600   2.438773   1.758163   0.000000
    21  H    5.510887   4.290613   3.807017   2.466596   2.493831
    22  H    4.369363   3.802811   2.653550   3.057240   2.434293
                   21         22
    21  H    0.000000
    22  H    1.755173   0.000000
 Stoichiometry    C6H14N2
 Framework group  C1[X(C6H14N2)]
 Deg. of freedom    60
 Full point group                 C1      NOp   1
 Largest Abelian subgroup         C1      NOp   1
 Largest concise Abelian subgroup C1      NOp   1
                         Standard orientation:                         
 ---------------------------------------------------------------------
 Center     Atomic      Atomic             Coordinates (Angstroms)
 Number     Number       Type             X           Y           Z
 ---------------------------------------------------------------------
      1          7           0       -1.845123   -1.098185   -0.821476
      2          6           0       -1.281079   -0.642005    0.451632
      3          6           0        0.187511   -1.066699    0.611754
      4          6           0        1.140478   -0.283146   -0.301244
      5          7           0        2.523777   -0.681913   -0.033506
      6          6           0        0.972881    1.228666   -0.110945
      7          6           0       -0.477442    1.662385   -0.313825
      8          6           0       -1.428905    0.879355    0.590318
      9          1           0       -1.338644   -0.696614   -1.608167
     10          1           0       -1.727637   -2.108519   -0.901739
     11          1           0       -1.867149   -1.117188    1.247257
     12          1           0        0.475573   -0.910512    1.660914
     13          1           0        0.288317   -2.144257    0.425842
     14          1           0        0.924338   -0.535244   -1.346094
     15          1           0        3.156104   -0.141027   -0.623107
     16          1           0        2.772407   -0.449547    0.927818
     17          1           0        1.613446    1.772225   -0.816296
     18          1           0        1.294319    1.520218    0.897808
     19          1           0       -0.759193    1.526121   -1.364548
     20          1           0       -0.570957    2.733450   -0.100404
     21          1           0       -2.463029    1.183315    0.385744
     22          1           0       -1.229129    1.156925    1.633713
 ---------------------------------------------------------------------
 Rotational constants (GHZ):           2.9032362           1.7331890           1.3121268
 Standard basis: 6-31G(d,p) (6D, 7F)
 There are   190 symmetry adapted cartesian basis functions of A   symmetry.
 There are   190 symmetry adapted basis functions of A   symmetry.
   190 basis functions,   322 primitive gaussians,   190 cartesian basis functions
    32 alpha electrons       32 beta electrons
       nuclear repulsion energy       416.7119618407 Hartrees.
 NAtoms=   22 NActive=   22 NUniq=   22 SFac= 1.00D+00 NAtFMM=   60 NAOKFM=F Big=F
 Integral buffers will be    131072 words long.
 Raffenetti 2 integral format.
 Two-electron integral symmetry is turned on.
 Force inversion solution in PCM.
 ------------------------------------------------------------------------------
 Polarizable Continuum Model (PCM)
 =================================
 Model                : PCM.
 Atomic radii         : UFF (Universal Force Field).
 Polarization charges : Total charges.
 Charge compensation  : None.
 Solution method      : Matrix inversion.
 Cavity type          : Scaled VdW (van der Waals Surface) (Alpha=1.100).
 Cavity algorithm     : GePol (No added spheres)
                        Default sphere list used, NSphG=   22.
                        Lebedev-Laikov grids with approx.  5.0 points / Ang**2.
                        Smoothing algorithm: York/Karplus (Gamma=1.0000).
                        Polarization charges: spherical gaussians, with
                                              point-specific exponents (IZeta= 3).
                        Self-potential: point-specific (ISelfS= 7).
                        Self-field    : sphere-specific E.n sum rule (ISelfD= 2).
 1st derivatives      : Analytical E(r).r(x)/FMM algorithm (CHGder, D1EAlg=3).
                        Cavity 1st derivative terms included.
 2nd derivatives      : Analytical E(r).r(xy)/FMM algorithm (CHGder, D2EAlg=3).
                        Cavity 2nd derivative terms included.
 Solvent              : Water, Eps=  78.355300 Eps(inf)=   1.777849
 ------------------------------------------------------------------------------
 One-electron integrals computed using PRISM.
 NBasis=   190 RedAO= T EigKep=  3.02D-03  NBF=   190
 NBsUse=   190 1.00D-06 EigRej= -1.00D+00 NBFU=   190
 ExpMin= 1.61D-01 ExpMax= 4.17D+03 ExpMxC= 6.27D+02 IAcc=3 IRadAn=         5 AccDes= 0.00D+00
 Harris functional with IExCor=  402 and IRadAn=       5 diagonalized for initial guess.
 HarFok:  IExCor=  402 AccDes= 0.00D+00 IRadAn=         5 IDoV= 1 UseB2=F ITyADJ=14
 ICtDFT=  3500011 ScaDFX=  1.000000  1.000000  1.000000  1.000000
 FoFCou: FMM=F IPFlag=           0 FMFlag=      100000 FMFlg1=           0
         NFxFlg=           0 DoJE=T BraDBF=F KetDBF=T FulRan=T
         wScrn=  0.000000 ICntrl=       500 IOpCl=  0 I1Cent=   200000004 NGrid=           0
         NMat0=    1 NMatS0=      1 NMatT0=    0 NMatD0=    1 NMtDS0=    0 NMtDT0=    0
 Petite list used in FoFCou.
 Keep R1 ints in memory in canonical form, NReq=168114806.
 Requested convergence on RMS density matrix=1.00D-08 within  32 cycles.
 Requested convergence on MAX density matrix=1.00D-06.
 Requested convergence on             energy=1.00D-06.
 No special actions if energy rises.
 Inv3:  Mode=1 IEnd=     6342348.
 Iteration    1 A*A^-1 deviation from unit magnitude is 2.89D-15 for    426.
 Iteration    1 A*A^-1 deviation from orthogonality  is 1.95D-15 for   1158    186.
 Iteration    1 A^-1*A deviation from unit magnitude is 2.89D-15 for    426.
 Iteration    1 A^-1*A deviation from orthogonality  is 2.40D-15 for   1111    604.
 Error on total polarization charges =  0.00851
 SCF Done:  E(RB3LYP) =  -346.597603102     A.U. after   11 cycles
            NFock= 11  Conv=0.47D-08     -V/T= 2.0095
 QCSCF skips out because SCF is already converged.
 DoSCS=F DFT=T ScalE2(SS,OS)=  1.000000  1.000000
 Range of M.O.s used for correlation:     1   190
 NBasis=   190 NAE=    32 NBE=    32 NFC=     0 NFV=     0
 NROrb=    190 NOA=    32 NOB=    32 NVA=   158 NVB=   158
 Symmetrizing basis deriv contribution to polar:
 IMax=3 JMax=2 DiffMx= 0.00D+00
 G2DrvN: will do    23 centers at a time, making    1 passes.
 Calling FoFCou, ICntrl=  3107 FMM=F I1Cent=   0 AccDes= 0.00D+00.
 NEqPCM:  Using equilibrium solvation (IEInf=0, Eps=  78.3553, EpsInf=   1.7778)
 G2PCM: DoFxE=T DoFxN=T DoGrad=T DoDP/DQ/DG/TGxP=FFFF NFrqRd=   0 IEInf=0 SqF1=F DoCFld=F IF1Alg=4.
 End of G2Drv F.D. properties file   721 does not exist.
 End of G2Drv F.D. properties file   722 does not exist.
 End of G2Drv F.D. properties file   788 does not exist.
          IDoAtm=1111111111111111111111
 NEqPCM:  Using equilibrium solvation (IEInf=0, Eps=  78.3553, EpsInf=   1.7778)
          Differentiating once with respect to nuclear coordinates.
 Keep R1 ints in memory in canonical form, NReq=170856869.
          There are    69 degrees of freedom in the 1st order CPHF.  IDoFFX=6 NUNeed=     0.
     63 vectors produced by pass  0 Test12= 7.33D-15 1.45D-09 XBig12= 7.25D-02 6.93D-02.
 AX will form    63 AO Fock derivatives at one time.
     63 vectors produced by pass  1 Test12= 7.33D-15 1.45D-09 XBig12= 7.40D-03 1.59D-02.
     63 vectors produced by pass  2 Test12= 7.33D-15 1.45D-09 XBig12= 1.18D-04 1.12D-03.
     63 vectors produced by pass  3 Test12= 7.33D-15 1.45D-09 XBig12= 4.02D-07 5.90D-05.
     63 vectors produced by pass  4 Test12= 7.33D-15 1.45D-09 XBig12= 4.68D-10 2.03D-06.
     25 vectors produced by pass  5 Test12= 7.33D-15 1.45D-09 XBig12= 2.95D-13 5.51D-08.
      1 vectors produced by pass  6 Test12= 7.33D-15 1.45D-09 XBig12= 2.11D-16 1.72D-09.
 InvSVY:  IOpt=1 It=  1 EMax= 2.78D-16
 Solved reduced A of dimension   341 with    69 vectors.
 End of Minotr F.D. properties file   721 does not exist.
 End of Minotr F.D. properties file   722 does not exist.
 End of Minotr F.D. properties file   788 does not exist.

 **********************************************************************

            Population analysis using the SCF density.

 **********************************************************************

 Orbital symmetries:
       Occupied  (A) (A) (A) (A) (A) (A) (A) (A) (A) (A) (A) (A)
                 (A) (A) (A) (A) (A) (A) (A) (A) (A) (A) (A) (A)
                 (A) (A) (A) (A) (A) (A) (A) (A)
       Virtual   (A) (A) (A) (A) (A) (A) (A) (A) (A) (A) (A) (A)
                 (A) (A) (A) (A) (A) (A) (A) (A) (A) (A) (A) (A)
                 (A) (A) (A) (A) (A) (A) (A) (A) (A) (A) (A) (A)
                 (A) (A) (A) (A) (A) (A) (A) (A) (A) (A) (A) (A)
                 (A) (A) (A) (A) (A) (A) (A) (A) (A) (A) (A) (A)
                 (A) (A) (A) (A) (A) (A) (A) (A) (A) (A) (A) (A)
                 (A) (A) (A) (A) (A) (A) (A) (A) (A) (A) (A) (A)
                 (A) (A) (A) (A) (A) (A) (A) (A) (A) (A) (A) (A)
                 (A) (A) (A) (A) (A) (A) (A) (A) (A) (A) (A) (A)
                 (A) (A) (A) (A) (A) (A) (A) (A) (A) (A) (A) (A)
                 (A) (A) (A) (A) (A) (A) (A) (A) (A) (A) (A) (A)
                 (A) (A) (A) (A) (A) (A) (A) (A) (A) (A) (A) (A)
                 (A) (A) (A) (A) (A) (A) (A) (A) (A) (A) (A) (A)
                 (A) (A)
 The electronic state is 1-A.
 Alpha  occ. eigenvalues --  -14.30549 -14.30470 -10.20524 -10.20466 -10.17383
 Alpha  occ. eigenvalues --  -10.17286 -10.17078 -10.16994  -0.89070  -0.87224
 Alpha  occ. eigenvalues --   -0.78977  -0.72380  -0.70875  -0.60457  -0.59516
 Alpha  occ. eigenvalues --   -0.54142  -0.49566  -0.47801  -0.45846  -0.43517
 Alpha  occ. eigenvalues --   -0.43061  -0.41724  -0.38719  -0.38073  -0.36602
 Alpha  occ. eigenvalues --   -0.36086  -0.33805  -0.31923  -0.31389  -0.29752
 Alpha  occ. eigenvalues --   -0.23049  -0.22737
 Alpha virt. eigenvalues --    0.07385   0.09361   0.09750   0.12841   0.13794
 Alpha virt. eigenvalues --    0.15769   0.16166   0.16981   0.17721   0.18017
 Alpha virt. eigenvalues --    0.19066   0.19978   0.20482   0.21915   0.22331
 Alpha virt. eigenvalues --    0.24442   0.25524   0.27706   0.27837   0.29637
 Alpha virt. eigenvalues --    0.30381   0.31541   0.52381   0.52932   0.53668
 Alpha virt. eigenvalues --    0.55597   0.56562   0.56955   0.59049   0.63858
 Alpha virt. eigenvalues --    0.64757   0.66857   0.68996   0.70560   0.71341
 Alpha virt. eigenvalues --    0.71799   0.72704   0.73602   0.75296   0.78600
 Alpha virt. eigenvalues --    0.80964   0.81862   0.84330   0.84852   0.87007
 Alpha virt. eigenvalues --    0.87868   0.87948   0.89887   0.90100   0.91152
 Alpha virt. eigenvalues --    0.92995   0.94520   0.95219   0.95671   0.97126
 Alpha virt. eigenvalues --    0.98825   1.02445   1.04589   1.07159   1.15136
 Alpha virt. eigenvalues --    1.15800   1.23204   1.29154   1.30673   1.37015
 Alpha virt. eigenvalues --    1.39235   1.42878   1.47970   1.52620   1.54121
 Alpha virt. eigenvalues --    1.58524   1.58900   1.60848   1.68558   1.70731
 Alpha virt. eigenvalues --    1.75534   1.77812   1.79820   1.85572   1.86350
 Alpha virt. eigenvalues --    1.88166   1.88692   1.91006   1.91753   1.97249
 Alpha virt. eigenvalues --    1.97788   1.99511   2.00779   2.06442   2.07173
 Alpha virt. eigenvalues --    2.09535   2.10925   2.13357   2.13410   2.16252
 Alpha virt. eigenvalues --    2.17351   2.18635   2.22901   2.24450   2.25696
 Alpha virt. eigenvalues --    2.26442   2.29187   2.31864   2.32827   2.34600
 Alpha virt. eigenvalues --    2.36686   2.38876   2.39540   2.41996   2.45186
 Alpha virt. eigenvalues --    2.45327   2.47755   2.51125   2.54968   2.55670
 Alpha virt. eigenvalues --    2.57676   2.61960   2.63070   2.66935   2.68975
 Alpha virt. eigenvalues --    2.72466   2.73981   2.75471   2.79932   2.82500
 Alpha virt. eigenvalues --    2.84512   2.86487   2.87677   2.88981   2.90647
 Alpha virt. eigenvalues --    2.91997   2.94420   2.96524   2.99777   3.01723
 Alpha virt. eigenvalues --    3.04854   3.23048   3.28959   3.30427   3.31516
 Alpha virt. eigenvalues --    3.32274   3.34586   3.37377   3.40276   3.47825
 Alpha virt. eigenvalues --    3.50221   3.51658   3.54280   3.56401   3.58337
 Alpha virt. eigenvalues --    3.99775   4.05999   4.35241   4.44754   4.53191
 Alpha virt. eigenvalues --    4.74539   4.77542   4.80190
          Condensed to atoms (all electrons):
               1          2          3          4          5          6
     1  N    6.803157   0.321858  -0.075872  -0.006983   0.000092  -0.001265
     2  C    0.321858   4.803698   0.351961  -0.029251   0.002615  -0.004650
     3  C   -0.075872   0.351961   5.068493   0.372476  -0.048811  -0.053680
     4  C   -0.006983  -0.029251   0.372476   4.795185   0.314005   0.391833
     5  N    0.000092   0.002615  -0.048811   0.314005   6.804662  -0.073323
     6  C   -0.001265  -0.004650  -0.053680   0.391833  -0.073323   5.027203
     7  C   -0.003438  -0.042757  -0.016926  -0.035738   0.006337   0.325933
     8  C   -0.059579   0.378963  -0.044706  -0.018817   0.000269  -0.048090
     9  H    0.343367  -0.042083  -0.004167   0.002740  -0.000076  -0.000728
    10  H    0.341683  -0.039376  -0.002311  -0.000591  -0.000008  -0.000034
    11  H   -0.046242   0.388875  -0.048983   0.004866  -0.000088   0.000062
    12  H    0.006453  -0.028618   0.348401  -0.035373  -0.004853  -0.008351
    13  H   -0.004445  -0.029314   0.363988  -0.033791   0.002968   0.006023
    14  H    0.007012  -0.005746  -0.046423   0.379921  -0.041122  -0.057458
    15  H    0.000008  -0.000222   0.006490  -0.041198   0.339905  -0.001572
    16  H    0.000002  -0.000135  -0.008076  -0.040957   0.340667  -0.004790
    17  H   -0.000010   0.000179   0.005278  -0.032957  -0.001685   0.370256
    18  H    0.000043  -0.001102  -0.005947  -0.038265  -0.001999   0.372496
    19  H    0.002114  -0.006437   0.000021  -0.005562   0.000001  -0.040366
    20  H    0.000022   0.005126   0.000009   0.004255  -0.000164  -0.026771
    21  H    0.002069  -0.031621   0.006026   0.000279   0.000003   0.005238
    22  H    0.004541  -0.036148  -0.000500  -0.001182  -0.000019  -0.004466
               7          8          9         10         11         12
     1  N   -0.003438  -0.059579   0.343367   0.341683  -0.046242   0.006453
     2  C   -0.042757   0.378963  -0.042083  -0.039376   0.388875  -0.028618
     3  C   -0.016926  -0.044706  -0.004167  -0.002311  -0.048983   0.348401
     4  C   -0.035738  -0.018817   0.002740  -0.000591   0.004866  -0.035373
     5  N    0.006337   0.000269  -0.000076  -0.000008  -0.000088  -0.004853
     6  C    0.325933  -0.048090  -0.000728  -0.000034   0.000062  -0.008351
     7  C    4.961075   0.379524   0.004804   0.000057   0.005348   0.000353
     8  C    0.379524   4.946143  -0.007992   0.006557  -0.038463  -0.002318
     9  H    0.004804  -0.007992   0.478047  -0.033771   0.007026   0.000001
    10  H    0.000057   0.006557  -0.033771   0.479134  -0.004966   0.000057
    11  H    0.005348  -0.038463   0.007026  -0.004966   0.659962  -0.003689
    12  H    0.000353  -0.002318   0.000001   0.000057  -0.003689   0.659485
    13  H    0.000003   0.004870  -0.000402   0.005212  -0.002906  -0.035315
    14  H    0.000258  -0.000310   0.004500   0.000686  -0.000014   0.007054
    15  H    0.000119   0.000005   0.000013   0.000000   0.000004   0.000049
    16  H    0.000088   0.000013   0.000003   0.000002  -0.000007   0.005917
    17  H   -0.029465   0.005033   0.000027  -0.000001   0.000014  -0.000050
    18  H   -0.036147  -0.004261   0.000021   0.000001  -0.000080   0.004557
    19  H    0.382920  -0.040890   0.002261  -0.000175  -0.000094   0.000066
    20  H    0.372485  -0.031926  -0.000192   0.000005  -0.000164  -0.000031
    21  H   -0.035390   0.366292  -0.000458  -0.000091  -0.003670  -0.000202
    22  H   -0.040984   0.376411  -0.000054  -0.000247  -0.005764   0.002015
              13         14         15         16         17         18
     1  N   -0.004445   0.007012   0.000008   0.000002  -0.000010   0.000043
     2  C   -0.029314  -0.005746  -0.000222  -0.000135   0.000179  -0.001102
     3  C    0.363988  -0.046423   0.006490  -0.008076   0.005278  -0.005947
     4  C   -0.033791   0.379921  -0.041198  -0.040957  -0.032957  -0.038265
     5  N    0.002968  -0.041122   0.339905   0.340667  -0.001685  -0.001999
     6  C    0.006023  -0.057458  -0.001572  -0.004790   0.370256   0.372496
     7  C    0.000003   0.000258   0.000119   0.000088  -0.029465  -0.036147
     8  C    0.004870  -0.000310   0.000005   0.000013   0.005033  -0.004261
     9  H   -0.000402   0.004500   0.000013   0.000003   0.000027   0.000021
    10  H    0.005212   0.000686   0.000000   0.000002  -0.000001   0.000001
    11  H   -0.002906  -0.000014   0.000004  -0.000007   0.000014  -0.000080
    12  H   -0.035315   0.007054   0.000049   0.005917  -0.000050   0.004557
    13  H    0.641527  -0.006161  -0.000151  -0.000493  -0.000188  -0.000090
    14  H   -0.006161   0.663727  -0.003962   0.007132  -0.005794   0.006315
    15  H   -0.000151  -0.003962   0.483545  -0.033176   0.005333  -0.000310
    16  H   -0.000493   0.007132  -0.033176   0.484027  -0.000370   0.006285
    17  H   -0.000188  -0.005794   0.005333  -0.000370   0.643356  -0.038164
    18  H   -0.000090   0.006315  -0.000310   0.006285  -0.038164   0.643505
    19  H   -0.000023   0.003216  -0.000009   0.000011  -0.005286   0.006213
    20  H    0.000017  -0.000121  -0.000005  -0.000002  -0.003155  -0.006264
    21  H   -0.000184  -0.000053  -0.000001  -0.000000  -0.000194  -0.000014
    22  H   -0.000066   0.000077  -0.000000   0.000001  -0.000029   0.004956
              19         20         21         22
     1  N    0.002114   0.000022   0.002069   0.004541
     2  C   -0.006437   0.005126  -0.031621  -0.036148
     3  C    0.000021   0.000009   0.006026  -0.000500
     4  C   -0.005562   0.004255   0.000279  -0.001182
     5  N    0.000001  -0.000164   0.000003  -0.000019
     6  C   -0.040366  -0.026771   0.005238  -0.004466
     7  C    0.382920   0.372485  -0.035390  -0.040984
     8  C   -0.040890  -0.031926   0.366292   0.376411
     9  H    0.002261  -0.000192  -0.000458  -0.000054
    10  H   -0.000175   0.000005  -0.000091  -0.000247
    11  H   -0.000094  -0.000164  -0.003670  -0.005764
    12  H    0.000066  -0.000031  -0.000202   0.002015
    13  H   -0.000023   0.000017  -0.000184  -0.000066
    14  H    0.003216  -0.000121  -0.000053   0.000077
    15  H   -0.000009  -0.000005  -0.000001  -0.000000
    16  H    0.000011  -0.000002  -0.000000   0.000001
    17  H   -0.005286  -0.003155  -0.000194  -0.000029
    18  H    0.006213  -0.006264  -0.000014   0.004956
    19  H    0.642920  -0.036612  -0.004341   0.006416
    20  H   -0.036612   0.639897  -0.002721  -0.006348
    21  H   -0.004341  -0.002721   0.642931  -0.033738
    22  H    0.006416  -0.006348  -0.033738   0.641118
 Mulliken charges:
               1
     1  N   -0.634590
     2  C    0.044186
     3  C   -0.166741
     4  C    0.055104
     5  N   -0.639375
     6  C   -0.173499
     7  C   -0.198458
     8  C   -0.166728
     9  H    0.247112
    10  H    0.248176
    11  H    0.088973
    12  H    0.084391
    13  H    0.088921
    14  H    0.087263
    15  H    0.245136
    16  H    0.243860
    17  H    0.087872
    18  H    0.088252
    19  H    0.093634
    20  H    0.092659
    21  H    0.089841
    22  H    0.094011
 Sum of Mulliken charges =  -0.00000
 Mulliken charges with hydrogens summed into heavy atoms:
               1
     1  N   -0.139302
     2  C    0.133159
     3  C    0.006571
     4  C    0.142368
     5  N   -0.150379
     6  C    0.002625
     7  C   -0.012165
     8  C    0.017124
 APT charges:
               1
     1  N   -0.922479
     2  C   -0.483219
     3  C   -0.643374
     4  C   -0.268987
     5  N   -1.202889
     6  C   -0.714884
     7  C   -0.826610
     8  C   -0.794330
     9  H    0.297787
    10  H    0.570535
    11  H    0.463322
    12  H    0.321903
    13  H    0.391949
    14  H    0.300227
    15  H    0.611311
    16  H    0.486773
    17  H    0.435384
    18  H    0.338034
    19  H    0.315796
    20  H    0.494142
    21  H    0.468707
    22  H    0.360904
 Sum of APT charges =  -0.00000
 APT charges with hydrogens summed into heavy atoms:
               1
     1  N   -0.054157
     2  C   -0.019898
     3  C    0.070477
     4  C    0.031240
     5  N   -0.104804
     6  C    0.058534
     7  C   -0.016673
     8  C    0.035282
 Electronic spatial extent (au):  <R**2>=           1030.3343
 Charge=             -0.0000 electrons
 Dipole moment (field-independent basis, Debye):
    X=              1.4133    Y=              1.2068    Z=              0.2860  Tot=              1.8803
 Quadrupole moment (field-independent basis, Debye-Ang):
   XX=            -57.1628   YY=            -51.5154   ZZ=            -48.0609
   XY=              4.3767   XZ=             -0.9243   YZ=              0.0495
 Traceless Quadrupole moment (field-independent basis, Debye-Ang):
   XX=             -4.9164   YY=              0.7310   ZZ=              4.1855
   XY=              4.3767   XZ=             -0.9243   YZ=              0.0495
 Octapole moment (field-independent basis, Debye-Ang**2):
  XXX=             29.2699  YYY=             -6.6688  ZZZ=             -4.0281  XYY=            -10.6010
  XXY=             15.9254  XXZ=              7.3633  XZZ=              4.7039  YZZ=             -2.5761
  YYZ=             -2.0012  XYZ=             -0.9742
 Hexadecapole moment (field-independent basis, Debye-Ang**3):
 XXXX=           -749.7114 YYYY=           -427.5122 ZZZZ=           -171.7598 XXXY=             21.6640
 XXXZ=            -15.3952 YYYX=             26.7573 YYYZ=              9.8928 ZZZX=              6.7694
 ZZZY=              4.8063 XXYY=           -215.8898 XXZZ=           -144.0136 YYZZ=           -102.5396
 XXYZ=             -9.3648 YYXZ=              3.8150 ZZXY=              2.2412
 N-N= 4.167119618407D+02 E-N=-1.637060907852D+03  KE= 3.433421588869D+02
  Exact polarizability:   0.000   0.000   0.000   0.000   0.000   0.000
 Approx polarizability: 102.636   1.923 100.934   0.994   0.208 107.148
 D2PCM: PCM CHGder 2nd derivatives, FixD1E=F FixD2E=F DoIter=F DoCFld=F I1PDM=0
 Calling FoFJK, ICntrl=    100147 FMM=F ISym2X=0 I1Cent= 0 IOpClX= 0 NMat=1 NMatS=1 NMatT=0.
 ***** Axes restored to original set *****
 -------------------------------------------------------------------
 Center     Atomic                   Forces (Hartrees/Bohr)
 Number     Number              X              Y              Z
 -------------------------------------------------------------------
      1        7           0.011054902    0.002435274    0.005536144
      2        6          -0.001671424   -0.001863568    0.004153484
      3        6          -0.002264994   -0.001190938   -0.005944927
      4        6          -0.010997701    0.001887458   -0.009950174
      5        7          -0.003071408   -0.013949874    0.005372508
      6        6           0.006815801    0.007295425    0.003847311
      7        6          -0.000815954    0.004851553   -0.001086941
      8        6           0.002561463    0.003747747   -0.004262188
      9        1          -0.000190523   -0.000956886   -0.001172482
     10        1          -0.001236617    0.001848733    0.000005540
     11        1           0.000787421   -0.000509261    0.000176024
     12        1          -0.003630710    0.000150434   -0.000288472
     13        1          -0.000387554    0.000969584    0.000419089
     14        1           0.000406593   -0.000082893    0.001397186
     15        1           0.001016916    0.000167684   -0.001197562
     16        1           0.001106351    0.001945792    0.000730927
     17        1          -0.001701525   -0.002035220    0.000121504
     18        1          -0.000299336   -0.003160720   -0.000803731
     19        1           0.000292722    0.000977506    0.001484584
     20        1           0.001458832    0.001292584    0.001496131
     21        1           0.001223714   -0.002722792    0.000240308
     22        1          -0.000456970   -0.001097622   -0.000274261
 -------------------------------------------------------------------
 Cartesian Forces:  Max     0.013949874 RMS     0.003753124
 FormGI is forming the generalized inverse of G from B-inverse, IUseBI=4.

 GradGradGradGradGradGradGradGradGradGradGradGradGradGradGradGradGradGrad
 Berny optimization.
 Internal  Forces:  Max     0.009781275 RMS     0.002469642
 Search for a local minimum.
 Step number   1 out of a maximum of  132
 All quantities printed in internal units (Hartrees-Bohrs-Radians)
 Mixed Optimization -- RFO/linear search
 Second derivative matrix not updated -- analytic derivatives used.
 ITU=  0
     Eigenvalues ---    0.00180   0.00287   0.00459   0.00471   0.00577
     Eigenvalues ---    0.01599   0.01694   0.03123   0.03231   0.03714
     Eigenvalues ---    0.03851   0.03907   0.03988   0.04061   0.04346
     Eigenvalues ---    0.04534   0.04632   0.05081   0.05327   0.05428
     Eigenvalues ---    0.06124   0.06375   0.06674   0.07189   0.07197
     Eigenvalues ---    0.07770   0.08119   0.08844   0.10462   0.13309
     Eigenvalues ---    0.13633   0.14594   0.14974   0.16979   0.17914
     Eigenvalues ---    0.18988   0.20418   0.21783   0.24490   0.24786
     Eigenvalues ---    0.25259   0.27645   0.28075   0.29263   0.32373
     Eigenvalues ---    0.32435   0.32596   0.32676   0.32719   0.32950
     Eigenvalues ---    0.33158   0.33338   0.33423   0.33826   0.36163
     Eigenvalues ---    0.36662   0.43798   0.43823   0.44038   0.44550
 RFO step:  Lambda=-4.31867080D-03 EMin= 1.79716984D-03
 Linear search not attempted -- first point.
 Iteration  1 RMS(Cart)=  0.02542041 RMS(Int)=  0.00039844
 Iteration  2 RMS(Cart)=  0.00044758 RMS(Int)=  0.00014543
 Iteration  3 RMS(Cart)=  0.00000018 RMS(Int)=  0.00014543
 Variable       Old X    -DE/DX   Delta X   Delta X   Delta X     New X
                                 (Linear)    (Quad)   (Total)
    R1        2.76898   0.00830   0.00000   0.02130   0.02130   2.79028
    R2        1.92406  -0.00107   0.00000   0.00052   0.00052   1.92458
    R3        1.92809  -0.00202   0.00000  -0.00215  -0.00215   1.92594
    R4        2.90475   0.00830   0.00000   0.01661   0.01661   2.92136
    R5        2.90036   0.00179   0.00000   0.00821   0.00815   2.90851
    R6        2.07207   0.00055   0.00000   0.00193   0.00193   2.07400
    R7        2.90039   0.00012   0.00000   0.00194   0.00201   2.90239
    R8        2.07708   0.00139   0.00000   0.00266   0.00266   2.07973
    R9        2.07514  -0.00086   0.00000  -0.00207  -0.00207   2.07307
   R10        2.76715   0.00718   0.00000   0.01481   0.01481   2.78196
   R11        2.89682   0.00466   0.00000   0.01316   0.01321   2.91003
   R12        2.07180   0.00145   0.00000   0.00695   0.00695   2.07875
   R13        1.92717  -0.00134   0.00000  -0.00023  -0.00023   1.92694
   R14        1.92711  -0.00104   0.00000   0.00143   0.00143   1.92853
   R15        2.88622   0.00698   0.00000   0.01725   0.01726   2.90347
   R16        2.07294   0.00049   0.00000   0.00129   0.00129   2.07422
   R17        2.07518   0.00078   0.00000   0.00424   0.00424   2.07942
   R18        2.88819   0.00464   0.00000   0.01583   0.01576   2.90395
   R19        2.07179   0.00160   0.00000   0.00469   0.00469   2.07648
   R20        2.07136   0.00036   0.00000   0.00009   0.00009   2.07145
   R21        2.07324  -0.00057   0.00000  -0.00270  -0.00270   2.07054
   R22        2.07494   0.00034   0.00000  -0.00011  -0.00011   2.07483
    A1        1.93590  -0.00146   0.00000  -0.01903  -0.01921   1.91669
    A2        1.90955  -0.00005   0.00000  -0.01045  -0.01064   1.89891
    A3        1.84678  -0.00009   0.00000  -0.01393  -0.01433   1.83245
    A4        1.95225   0.00652   0.00000   0.04450   0.04459   1.99684
    A5        1.92840  -0.00293   0.00000  -0.00887  -0.00900   1.91940
    A6        1.86479  -0.00169   0.00000  -0.01578  -0.01577   1.84902
    A7        1.93529  -0.00139   0.00000  -0.00784  -0.00806   1.92723
    A8        1.89161  -0.00148   0.00000  -0.01148  -0.01139   1.88023
    A9        1.88864   0.00082   0.00000  -0.00235  -0.00256   1.88608
   A10        1.97164   0.00306   0.00000   0.00767   0.00777   1.97941
   A11        1.88659   0.00178   0.00000   0.01323   0.01323   1.89981
   A12        1.91898  -0.00159   0.00000  -0.00218  -0.00216   1.91682
   A13        1.90979  -0.00260   0.00000  -0.01674  -0.01679   1.89300
   A14        1.92117  -0.00157   0.00000  -0.01005  -0.01015   1.91103
   A15        1.85145   0.00083   0.00000   0.00843   0.00832   1.85977
   A16        1.91639  -0.00343   0.00000  -0.00776  -0.00820   1.90819
   A17        1.94095  -0.00330   0.00000  -0.01222  -0.01249   1.92845
   A18        1.90405   0.00144   0.00000  -0.01150  -0.01192   1.89213
   A19        1.92747   0.00978   0.00000   0.06286   0.06295   1.99041
   A20        1.87326  -0.00258   0.00000  -0.01852  -0.01853   1.85473
   A21        1.90026  -0.00195   0.00000  -0.01399  -0.01411   1.88614
   A22        1.91303  -0.00047   0.00000  -0.01348  -0.01375   1.89928
   A23        1.91838  -0.00326   0.00000  -0.02602  -0.02630   1.89208
   A24        1.84729   0.00060   0.00000  -0.01417  -0.01480   1.83249
   A25        1.94700   0.00436   0.00000   0.01291   0.01298   1.95997
   A26        1.92306  -0.00263   0.00000  -0.01141  -0.01177   1.91129
   A27        1.92183  -0.00320   0.00000  -0.02990  -0.02998   1.89186
   A28        1.90539   0.00081   0.00000   0.02032   0.02029   1.92568
   A29        1.90137  -0.00035   0.00000   0.00815   0.00823   1.90960
   A30        1.86313   0.00089   0.00000  -0.00011  -0.00056   1.86257
   A31        1.94667  -0.00333   0.00000  -0.00404  -0.00412   1.94255
   A32        1.91351   0.00101   0.00000  -0.00154  -0.00154   1.91197
   A33        1.90989   0.00197   0.00000   0.01147   0.01150   1.92139
   A34        1.92122   0.00141   0.00000   0.00081   0.00085   1.92207
   A35        1.90957   0.00038   0.00000   0.00562   0.00559   1.91516
   A36        1.86098  -0.00133   0.00000  -0.01255  -0.01254   1.84844
   A37        1.97624   0.00095   0.00000  -0.00901  -0.00904   1.96721
   A38        1.92684  -0.00275   0.00000  -0.02114  -0.02104   1.90579
   A39        1.89539  -0.00017   0.00000  -0.00252  -0.00251   1.89288
   A40        1.91192   0.00212   0.00000   0.01751   0.01737   1.92928
   A41        1.89586  -0.00082   0.00000   0.00266   0.00256   1.89842
   A42        1.85319   0.00065   0.00000   0.01419   0.01403   1.86722
    D1       -1.06674   0.00048   0.00000   0.01384   0.01367  -1.05307
    D2        1.09832   0.00122   0.00000   0.02927   0.02914   1.12747
    D3       -3.13413  -0.00034   0.00000   0.01258   0.01255  -3.12158
    D4        0.96408  -0.00052   0.00000  -0.02051  -0.02046   0.94362
    D5        3.12915   0.00022   0.00000  -0.00508  -0.00499   3.12416
    D6       -1.10331  -0.00134   0.00000  -0.02177  -0.02158  -1.12489
    D7        1.25654  -0.00125   0.00000  -0.01116  -0.01117   1.24537
    D8       -2.91085  -0.00133   0.00000  -0.01819  -0.01812  -2.92897
    D9       -0.89713  -0.00020   0.00000  -0.00194  -0.00189  -0.89903
   D10       -0.90466  -0.00116   0.00000  -0.02624  -0.02637  -0.93103
   D11        1.21114  -0.00124   0.00000  -0.03326  -0.03332   1.17781
   D12       -3.05833  -0.00012   0.00000  -0.01702  -0.01710  -3.07543
   D13       -2.97528  -0.00044   0.00000  -0.01170  -0.01179  -2.98706
   D14       -0.85948  -0.00052   0.00000  -0.01872  -0.01874  -0.87822
   D15        1.15424   0.00061   0.00000  -0.00248  -0.00251   1.15173
   D16       -1.27258  -0.00385   0.00000  -0.02291  -0.02293  -1.29551
   D17        0.87824  -0.00246   0.00000  -0.02255  -0.02244   0.85580
   D18        2.90331  -0.00331   0.00000  -0.01869  -0.01864   2.88467
   D19        0.90220   0.00144   0.00000   0.02241   0.02227   0.92447
   D20        3.05302   0.00283   0.00000   0.02277   0.02276   3.07578
   D21       -1.20509   0.00198   0.00000   0.02663   0.02656  -1.17853
   D22        2.97461  -0.00067   0.00000   0.00238   0.00229   2.97690
   D23       -1.15776   0.00071   0.00000   0.00274   0.00278  -1.15498
   D24        0.86732  -0.00013   0.00000   0.00660   0.00658   0.87390
   D25        3.08016   0.00553   0.00000   0.06652   0.06636  -3.13666
   D26        0.94158  -0.00227   0.00000   0.00046   0.00057   0.94215
   D27       -1.15462   0.00127   0.00000   0.03293   0.03287  -1.12175
   D28        0.97756   0.00306   0.00000   0.05637   0.05628   1.03384
   D29       -1.16102  -0.00474   0.00000  -0.00969  -0.00951  -1.17053
   D30        3.02596  -0.00120   0.00000   0.02278   0.02279   3.04875
   D31       -1.05057   0.00447   0.00000   0.06166   0.06149  -0.98908
   D32        3.09403  -0.00333   0.00000  -0.00440  -0.00430   3.08973
   D33        0.99783   0.00021   0.00000   0.02807   0.02800   1.02583
   D34       -3.11424   0.00004   0.00000  -0.00841  -0.00875  -3.12299
   D35       -1.09086  -0.00137   0.00000  -0.04819  -0.04817  -1.13903
   D36       -0.96769   0.00012   0.00000   0.01311   0.01320  -0.95449
   D37        1.05569  -0.00130   0.00000  -0.02666  -0.02622   1.02947
   D38        1.10142   0.00169   0.00000   0.02034   0.02006   1.12148
   D39        3.12480   0.00028   0.00000  -0.01943  -0.01936   3.10543
   D40       -0.95827   0.00143   0.00000   0.01326   0.01324  -0.94503
   D41       -3.07754  -0.00072   0.00000  -0.01334  -0.01318  -3.09072
   D42        1.15506   0.00171   0.00000   0.01177   0.01165   1.16671
   D43       -3.09045   0.00128   0.00000  -0.01206  -0.01217  -3.10262
   D44        1.07347  -0.00087   0.00000  -0.03866  -0.03859   1.03488
   D45       -0.97711   0.00156   0.00000  -0.01355  -0.01376  -0.99087
   D46        1.14017  -0.00009   0.00000  -0.01767  -0.01765   1.12252
   D47       -0.97909  -0.00225   0.00000  -0.04428  -0.04407  -1.02316
   D48       -3.02968   0.00019   0.00000  -0.01916  -0.01924  -3.04892
   D49        0.95652  -0.00005   0.00000  -0.00360  -0.00362   0.95291
   D50       -1.17600  -0.00030   0.00000  -0.00086  -0.00089  -1.17689
   D51        3.07187  -0.00041   0.00000   0.00857   0.00854   3.08042
   D52        3.08601   0.00007   0.00000   0.00439   0.00445   3.09047
   D53        0.95349  -0.00019   0.00000   0.00714   0.00718   0.96067
   D54       -1.08182  -0.00030   0.00000   0.01656   0.01662  -1.06521
   D55       -1.16869   0.00138   0.00000   0.02005   0.02009  -1.14861
   D56        2.98197   0.00112   0.00000   0.02279   0.02281   3.00478
   D57        0.94666   0.00101   0.00000   0.03222   0.03225   0.97890
   D58       -0.93769  -0.00045   0.00000  -0.00833  -0.00832  -0.94601
   D59       -3.09671   0.00085   0.00000   0.01242   0.01252  -3.08419
   D60        1.16934  -0.00062   0.00000  -0.01549  -0.01553   1.15381
   D61        1.19040  -0.00044   0.00000  -0.01246  -0.01247   1.17793
   D62       -0.96863   0.00086   0.00000   0.00829   0.00837  -0.96025
   D63       -2.98577  -0.00061   0.00000  -0.01962  -0.01967  -3.00544
   D64       -3.05322  -0.00101   0.00000  -0.02391  -0.02390  -3.07713
   D65        1.07094   0.00029   0.00000  -0.00315  -0.00306   1.06788
   D66       -0.94620  -0.00119   0.00000  -0.03106  -0.03111  -0.97731
         Item               Value     Threshold  Converged?
 Maximum Force            0.009781     0.000450     NO 
 RMS     Force            0.002470     0.000300     NO 
 Maximum Displacement     0.108193     0.001800     NO 
 RMS     Displacement     0.025313     0.001200     NO 
 Predicted change in Energy=-2.269328D-03
 GradGradGradGradGradGradGradGradGradGradGradGradGradGradGradGradGradGrad

                          Input orientation:                          
 ---------------------------------------------------------------------
 Center     Atomic      Atomic             Coordinates (Angstroms)
 Number     Number       Type             X           Y           Z
 ---------------------------------------------------------------------
      1          7           0        2.184835   -0.387176    0.877160
      2          6           0        1.449439   -0.337634   -0.402274
      3          6           0        0.170494   -1.205316   -0.438069
      4          6           0       -0.971505   -0.644828    0.422526
      5          7           0       -2.136688   -1.539706    0.328879
      6          6           0       -1.269821    0.816002    0.037368
      7          6           0       -0.016024    1.702119    0.096321
      8          6           0        1.118582    1.121739   -0.762335
      9          1           0        1.587817   -0.053377    1.631730
     10          1           0        2.379871   -1.360887    1.106385
     11          1           0        2.139199   -0.727547   -1.161704
     12          1           0       -0.180699   -1.278302   -1.478521
     13          1           0        0.404930   -2.227091   -0.114851
     14          1           0       -0.653655   -0.661937    1.475490
     15          1           0       -2.895547   -1.151345    0.888415
     16          1           0       -2.480784   -1.521316   -0.631722
     17          1           0       -2.051229    1.216491    0.696005
     18          1           0       -1.679279    0.829169   -0.983909
     19          1           0        0.313510    1.803932    1.139612
     20          1           0       -0.255536    2.716400   -0.243446
     21          1           0        2.024175    1.730865   -0.665427
     22          1           0        0.817915    1.159746   -1.817635
 ---------------------------------------------------------------------
                    Distance matrix (angstroms):
                    1          2          3          4          5
     1  N    0.000000
     2  C    1.476555   0.000000
     3  C    2.541014   1.545915   0.000000
     4  C    3.199306   2.575972   1.535881   0.000000
     5  N    4.506051   3.852255   2.454203   1.472151   0.000000
     6  C    3.753337   2.986391   2.527107   1.539923   2.527013
     7  C    3.133472   2.560619   2.962016   2.554900   3.880815
     8  C    2.470156   1.539117   2.533615   2.982134   4.344056
     9  H    1.018444   2.058427   2.760405   2.891733   4.216460
    10  H    1.019164   2.046656   2.700164   3.494585   4.586480
    11  H    2.067584   1.097514   2.151212   3.491863   4.600506
    12  H    3.455299   2.168068   1.100547   2.154215   2.675989
    13  H    2.745439   2.177995   1.097021   2.164926   2.670059
    14  H    2.913850   2.837988   2.153181   1.100025   2.069923
    15  H    5.137545   4.605096   3.341120   2.043416   1.019692
    16  H    5.032991   4.111010   2.677057   2.039018   1.020536
    17  H    4.533079   3.984495   3.476683   2.169125   2.781853
    18  H    4.458077   3.389484   2.803342   2.156773   2.746671
    19  H    2.893388   2.872986   3.400750   2.856905   4.223822
    20  H    4.104066   3.501327   3.949587   3.500569   4.688361
    21  H    2.625164   2.162928   3.479796   3.975130   5.384985
    22  H    3.394608   2.155044   2.813516   3.387747   4.541392
                    6          7          8          9         10
     6  C    0.000000
     7  C    1.536452   0.000000
     8  C    2.537216   1.536705   0.000000
     9  H    3.385839   2.830469   2.707883   0.000000
    10  H    4.381996   4.017779   3.353565   1.616452   0.000000
    11  H    3.929597   3.482943   2.149654   2.926056   2.367124
    12  H    2.805390   3.374931   2.821569   3.781766   3.639379
    13  H    3.476834   3.957334   3.484710   3.028994   2.478330
    14  H    2.152245   2.810239   3.366035   2.327865   3.134813
    15  H    2.690301   4.130535   4.899502   4.675319   5.284075
    16  H    2.716095   4.122575   4.467465   4.881759   5.164564
    17  H    1.097631   2.176583   3.490478   3.966208   5.142561
    18  H    1.100380   2.166876   2.821829   4.277192   5.063830
    19  H    2.167460   1.098825   2.175070   2.305566   3.779818
    20  H    2.172359   1.096163   2.168038   3.819150   5.039016
    21  H    3.490172   2.177958   1.095684   2.941234   3.581168
    22  H    2.813865   2.157046   1.097954   3.736648   4.164515
                   11         12         13         14         15
    11  H    0.000000
    12  H    2.405334   0.000000
    13  H    2.520362   1.761464   0.000000
    14  H    3.841762   3.054468   2.469716   0.000000
    15  H    5.452638   3.604012   3.613436   2.368598   0.000000
    16  H    4.717541   2.463030   3.015397   2.918437   1.618556
    17  H    4.978961   3.801505   4.306793   2.467651   2.521219
    18  H    4.127439   2.632835   3.799989   3.053513   2.984517
    19  H    3.877832   4.074191   4.222699   2.669969   4.369761
    20  H    4.294034   4.181944   4.989074   3.811352   4.817698
    21  H    2.510639   3.818073   4.311671   4.180886   5.909757
    22  H    2.395393   2.656371   3.813227   4.040881   5.143311
                   16         17         18         19         20
    16  H    0.000000
    17  H    3.072941   0.000000
    18  H    2.508232   1.763654   0.000000
    19  H    4.690734   2.476664   3.070946   0.000000
    20  H    4.802159   2.521271   2.477291   1.751931   0.000000
    21  H    5.556301   4.327470   3.824926   2.487947   2.519213
    22  H    4.413151   3.814917   2.653367   3.068340   2.460395
                   21         22
    21  H    0.000000
    22  H    1.763186   0.000000
 Stoichiometry    C6H14N2
 Framework group  C1[X(C6H14N2)]
 Deg. of freedom    60
 Full point group                 C1      NOp   1
 Largest Abelian subgroup         C1      NOp   1
 Largest concise Abelian subgroup C1      NOp   1
                         Standard orientation:                         
 ---------------------------------------------------------------------
 Center     Atomic      Atomic             Coordinates (Angstroms)
 Number     Number       Type             X           Y           Z
 ---------------------------------------------------------------------
      1          7           0       -1.859817   -1.128209   -0.823021
      2          6           0       -1.262534   -0.669291    0.446963
      3          6           0        0.226651   -1.044172    0.624853
      4          6           0        1.169688   -0.248722   -0.289954
      5          7           0        2.557176   -0.679732   -0.052607
      6          6           0        0.943643    1.264158   -0.112580
      7          6           0       -0.526531    1.661696   -0.315645
      8          6           0       -1.455907    0.849923    0.600186
      9          1           0       -1.361530   -0.713720   -1.608602
     10          1           0       -1.707259   -2.131776   -0.913977
     11          1           0       -1.829893   -1.166675    1.243989
     12          1           0        0.517393   -0.859624    1.670135
     13          1           0        0.363799   -2.117981    0.447145
     14          1           0        0.940920   -0.507727   -1.334289
     15          1           0        3.177800   -0.134712   -0.650563
     16          1           0        2.815929   -0.422656    0.900521
     17          1           0        1.587596    1.815255   -0.810012
     18          1           0        1.261935    1.546183    0.902303
     19          1           0       -0.806238    1.510953   -1.367528
     20          1           0       -0.657439    2.732360   -0.120417
     21          1           0       -2.504216    1.101203    0.404153
     22          1           0       -1.250376    1.122949    1.643602
 ---------------------------------------------------------------------
 Rotational constants (GHZ):           2.8831332           1.7015665           1.2922734
 Standard basis: 6-31G(d,p) (6D, 7F)
 There are   190 symmetry adapted cartesian basis functions of A   symmetry.
 There are   190 symmetry adapted basis functions of A   symmetry.
   190 basis functions,   322 primitive gaussians,   190 cartesian basis functions
    32 alpha electrons       32 beta electrons
       nuclear repulsion energy       414.6201315809 Hartrees.
 NAtoms=   22 NActive=   22 NUniq=   22 SFac= 1.00D+00 NAtFMM=   60 NAOKFM=F Big=F
 Integral buffers will be    131072 words long.
 Raffenetti 2 integral format.
 Two-electron integral symmetry is turned on.
 ------------------------------------------------------------------------------
 Polarizable Continuum Model (PCM)
 =================================
 Model                : PCM.
 Atomic radii         : UFF (Universal Force Field).
 Polarization charges : Total charges.
 Charge compensation  : None.
 Solution method      : Matrix inversion.
 Cavity type          : Scaled VdW (van der Waals Surface) (Alpha=1.100).
 Cavity algorithm     : GePol (No added spheres)
                        Default sphere list used, NSphG=   22.
                        Lebedev-Laikov grids with approx.  5.0 points / Ang**2.
                        Smoothing algorithm: York/Karplus (Gamma=1.0000).
                        Polarization charges: spherical gaussians, with
                                              point-specific exponents (IZeta= 3).
                        Self-potential: point-specific (ISelfS= 7).
                        Self-field    : sphere-specific E.n sum rule (ISelfD= 2).
 1st derivatives      : Analytical E(r).r(x)/FMM algorithm (CHGder, D1EAlg=3).
                        Cavity 1st derivative terms included.
 Solvent              : Water, Eps=  78.355300 Eps(inf)=   1.777849
 ------------------------------------------------------------------------------
 One-electron integrals computed using PRISM.
 NBasis=   190 RedAO= T EigKep=  3.15D-03  NBF=   190
 NBsUse=   190 1.00D-06 EigRej= -1.00D+00 NBFU=   190
 Initial guess from the checkpoint file:  "GEQHKFFSPGPGLN-OLQVQODUSA-N_conf_1_0.chk"
 B after Tr=    -0.000000   -0.000000   -0.000000
         Rot=    0.999958   -0.000167   -0.002389   -0.008886 Ang=  -1.05 deg.
 ExpMin= 1.61D-01 ExpMax= 4.17D+03 ExpMxC= 6.27D+02 IAcc=2 IRadAn=         4 AccDes= 0.00D+00
 Harris functional with IExCor=  402 and IRadAn=       4 diagonalized for initial guess.
 HarFok:  IExCor=  402 AccDes= 0.00D+00 IRadAn=         4 IDoV= 1 UseB2=F ITyADJ=14
 ICtDFT=  3500011 ScaDFX=  1.000000  1.000000  1.000000  1.000000
 FoFCou: FMM=F IPFlag=           0 FMFlag=      100000 FMFlg1=           0
         NFxFlg=           0 DoJE=T BraDBF=F KetDBF=T FulRan=T
         wScrn=  0.000000 ICntrl=       500 IOpCl=  0 I1Cent=   200000004 NGrid=           0
         NMat0=    1 NMatS0=      1 NMatT0=    0 NMatD0=    1 NMtDS0=    0 NMtDT0=    0
 Petite list used in FoFCou.
 Keep R1 ints in memory in canonical form, NReq=168114806.
 Requested convergence on RMS density matrix=1.00D-08 within  32 cycles.
 Requested convergence on MAX density matrix=1.00D-06.
 Requested convergence on             energy=1.00D-06.
 No special actions if energy rises.
 Inv3:  Mode=1 IEnd=     6316203.
 Iteration    1 A*A^-1 deviation from unit magnitude is 3.55D-15 for    735.
 Iteration    1 A*A^-1 deviation from orthogonality  is 1.66D-15 for   1027    869.
 Iteration    1 A^-1*A deviation from unit magnitude is 3.89D-15 for    735.
 Iteration    1 A^-1*A deviation from orthogonality  is 1.95D-14 for   1089   1027.
 Error on total polarization charges =  0.00850
 SCF Done:  E(RB3LYP) =  -346.599919010     A.U. after    9 cycles
            NFock=  9  Conv=0.36D-08     -V/T= 2.0098
 QCSCF skips out because SCF is already converged.
 D1PCM: PCM CHGder 1st derivatives, ID1Alg=3 FixD1E=F DoIter=F DoCFld=F I1PDM=0.
 Calling FoFJK, ICntrl=      2127 FMM=F ISym2X=0 I1Cent= 0 IOpClX= 0 NMat=1 NMatS=1 NMatT=0.
 ***** Axes restored to original set *****
 -------------------------------------------------------------------
 Center     Atomic                   Forces (Hartrees/Bohr)
 Number     Number              X              Y              Z
 -------------------------------------------------------------------
      1        7           0.000715843    0.000315483    0.000257792
      2        6          -0.000302032   -0.000216461    0.000537178
      3        6          -0.000002858   -0.000252651   -0.000323330
      4        6          -0.000703390    0.000149910   -0.000650785
      5        7          -0.000054889   -0.001063579    0.000489128
      6        6           0.000311570    0.000704154    0.000376783
      7        6          -0.000055627    0.000109977   -0.000168958
      8        6           0.000240986    0.000367956   -0.000509374
      9        1           0.000008493   -0.000100280    0.000029910
     10        1          -0.000052405    0.000020223    0.000064759
     11        1           0.000053362   -0.000038519    0.000039433
     12        1          -0.000132276    0.000262933   -0.000050241
     13        1          -0.000146365   -0.000022500   -0.000179976
     14        1           0.000253821    0.000146411   -0.000007676
     15        1          -0.000027587   -0.000044358   -0.000028565
     16        1          -0.000144135    0.000062169    0.000059129
     17        1          -0.000202713   -0.000032152   -0.000206141
     18        1           0.000161924   -0.000137170   -0.000068932
     19        1           0.000035700   -0.000067850    0.000040778
     20        1           0.000082847    0.000128484    0.000248132
     21        1           0.000067536   -0.000115202    0.000033270
     22        1          -0.000107805   -0.000176977    0.000017686
 -------------------------------------------------------------------
 Cartesian Forces:  Max     0.001063579 RMS     0.000285869

 GradGradGradGradGradGradGradGradGradGradGradGradGradGradGradGradGradGrad
 Berny optimization.
 Using GEDIIS/GDIIS optimizer.
 FormGI is forming the generalized inverse of G from B-inverse, IUseBI=4.
 Internal  Forces:  Max     0.000784533 RMS     0.000184150
 Search for a local minimum.
 Step number   2 out of a maximum of  132
 All quantities printed in internal units (Hartrees-Bohrs-Radians)
 Mixed Optimization -- En-DIIS/RFO-DIIS
 Update second derivatives using D2CorX and points    1    2
 DE= -2.32D-03 DEPred=-2.27D-03 R= 1.02D+00
 TightC=F SS=  1.41D+00  RLast= 2.26D-01 DXNew= 5.0454D-01 6.7711D-01
 Trust test= 1.02D+00 RLast= 2.26D-01 DXMaxT set to 5.05D-01
 ITU=  1  0
 Use linear search instead of GDIIS.
     Eigenvalues ---    0.00180   0.00287   0.00459   0.00471   0.00576
     Eigenvalues ---    0.01599   0.01693   0.03125   0.03246   0.03719
     Eigenvalues ---    0.03849   0.03907   0.03989   0.04060   0.04339
     Eigenvalues ---    0.04532   0.04630   0.05072   0.05323   0.05427
     Eigenvalues ---    0.06121   0.06373   0.06671   0.07189   0.07222
     Eigenvalues ---    0.07768   0.08120   0.08815   0.10463   0.13299
     Eigenvalues ---    0.13500   0.14588   0.14968   0.16982   0.17912
     Eigenvalues ---    0.18979   0.20398   0.21744   0.24485   0.24670
     Eigenvalues ---    0.25250   0.27624   0.28055   0.29247   0.32336
     Eigenvalues ---    0.32428   0.32595   0.32658   0.32720   0.32950
     Eigenvalues ---    0.33156   0.33336   0.33420   0.33832   0.36048
     Eigenvalues ---    0.36182   0.43800   0.43828   0.44038   0.44550
 RFO step:  Lambda=-5.91289673D-05 EMin= 1.79719010D-03
 Quartic linear search produced a step of  0.09419.
 Iteration  1 RMS(Cart)=  0.01154328 RMS(Int)=  0.00006259
 Iteration  2 RMS(Cart)=  0.00008930 RMS(Int)=  0.00001638
 Iteration  3 RMS(Cart)=  0.00000000 RMS(Int)=  0.00001638
 Variable       Old X    -DE/DX   Delta X   Delta X   Delta X     New X
                                 (Linear)    (Quad)   (Total)
    R1        2.79028   0.00064   0.00201  -0.00077   0.00124   2.79152
    R2        1.92458  -0.00001   0.00005   0.00002   0.00007   1.92465
    R3        1.92594  -0.00002  -0.00020   0.00034   0.00014   1.92608
    R4        2.92136   0.00044   0.00156  -0.00048   0.00108   2.92244
    R5        2.90851   0.00014   0.00077   0.00068   0.00144   2.90995
    R6        2.07400   0.00002   0.00018  -0.00006   0.00013   2.07413
    R7        2.90239   0.00008   0.00019  -0.00015   0.00004   2.90243
    R8        2.07973   0.00007   0.00025  -0.00009   0.00016   2.07990
    R9        2.07307  -0.00006  -0.00019  -0.00008  -0.00027   2.07280
   R10        2.78196   0.00078   0.00139  -0.00064   0.00075   2.78271
   R11        2.91003   0.00056   0.00124   0.00011   0.00136   2.91139
   R12        2.07875   0.00006   0.00065  -0.00021   0.00045   2.07919
   R13        1.92694  -0.00002  -0.00002   0.00011   0.00009   1.92703
   R14        1.92853  -0.00000   0.00013   0.00012   0.00025   1.92879
   R15        2.90347   0.00028   0.00163  -0.00062   0.00100   2.90448
   R16        2.07422   0.00001   0.00012  -0.00025  -0.00012   2.07410
   R17        2.07942   0.00000   0.00040  -0.00007   0.00033   2.07975
   R18        2.90395   0.00020   0.00148  -0.00031   0.00117   2.90512
   R19        2.07648   0.00004   0.00044  -0.00018   0.00026   2.07673
   R20        2.07145   0.00002   0.00001   0.00001   0.00002   2.07147
   R21        2.07054  -0.00000  -0.00025   0.00008  -0.00018   2.07036
   R22        2.07483   0.00001  -0.00001  -0.00009  -0.00010   2.07473
    A1        1.91669   0.00004  -0.00181   0.00217   0.00034   1.91703
    A2        1.89891   0.00004  -0.00100   0.00040  -0.00062   1.89829
    A3        1.83245  -0.00008  -0.00135  -0.00010  -0.00148   1.83097
    A4        1.99684   0.00046   0.00420   0.00115   0.00537   2.00221
    A5        1.91940  -0.00020  -0.00085   0.00186   0.00100   1.92041
    A6        1.84902  -0.00011  -0.00149  -0.00059  -0.00208   1.84694
    A7        1.92723  -0.00006  -0.00076  -0.00240  -0.00319   1.92404
    A8        1.88023  -0.00012  -0.00107   0.00031  -0.00075   1.87947
    A9        1.88608   0.00001  -0.00024  -0.00037  -0.00063   1.88545
   A10        1.97941   0.00012   0.00073  -0.00362  -0.00292   1.97650
   A11        1.89981   0.00008   0.00125  -0.00307  -0.00182   1.89799
   A12        1.91682  -0.00007  -0.00020   0.00349   0.00330   1.92012
   A13        1.89300  -0.00009  -0.00158   0.00063  -0.00096   1.89205
   A14        1.91103  -0.00008  -0.00096   0.00223   0.00128   1.91230
   A15        1.85977   0.00004   0.00078   0.00051   0.00128   1.86105
   A16        1.90819  -0.00024  -0.00077   0.00279   0.00200   1.91019
   A17        1.92845  -0.00020  -0.00118  -0.00341  -0.00465   1.92380
   A18        1.89213   0.00001  -0.00112  -0.00162  -0.00280   1.88933
   A19        1.99041   0.00075   0.00593   0.00272   0.00867   1.99908
   A20        1.85473  -0.00021  -0.00175   0.00098  -0.00076   1.85397
   A21        1.88614  -0.00014  -0.00133  -0.00157  -0.00293   1.88321
   A22        1.89928   0.00007  -0.00130   0.00105  -0.00027   1.89900
   A23        1.89208   0.00010  -0.00248   0.00335   0.00085   1.89293
   A24        1.83249  -0.00011  -0.00139  -0.00013  -0.00158   1.83091
   A25        1.95997   0.00017   0.00122  -0.00556  -0.00436   1.95562
   A26        1.91129  -0.00006  -0.00111   0.00386   0.00273   1.91402
   A27        1.89186  -0.00012  -0.00282   0.00190  -0.00093   1.89092
   A28        1.92568   0.00006   0.00191   0.00117   0.00310   1.92878
   A29        1.90960  -0.00007   0.00078  -0.00127  -0.00049   1.90911
   A30        1.86257   0.00001  -0.00005   0.00019   0.00009   1.86266
   A31        1.94255  -0.00009  -0.00039  -0.00022  -0.00063   1.94192
   A32        1.91197   0.00005  -0.00015  -0.00148  -0.00163   1.91034
   A33        1.92139   0.00005   0.00108   0.00138   0.00247   1.92386
   A34        1.92207   0.00003   0.00008  -0.00136  -0.00127   1.92080
   A35        1.91516   0.00004   0.00053   0.00165   0.00217   1.91733
   A36        1.84844  -0.00007  -0.00118   0.00004  -0.00114   1.84730
   A37        1.96721   0.00001  -0.00085  -0.00114  -0.00200   1.96521
   A38        1.90579  -0.00015  -0.00198   0.00176  -0.00021   1.90559
   A39        1.89288  -0.00000  -0.00024  -0.00104  -0.00127   1.89160
   A40        1.92928   0.00012   0.00164  -0.00030   0.00132   1.93061
   A41        1.89842  -0.00003   0.00024  -0.00016   0.00007   1.89849
   A42        1.86722   0.00007   0.00132   0.00095   0.00226   1.86947
    D1       -1.05307   0.00001   0.00129   0.00384   0.00511  -1.04797
    D2        1.12747   0.00012   0.00275   0.00301   0.00575   1.13321
    D3       -3.12158  -0.00003   0.00118   0.00319   0.00437  -3.11721
[...]
     2  C   -0.003191   0.003564  -0.055022  -0.072338
     3  C    0.003333   0.001366   0.005930  -0.002393
     4  C   -0.031921   0.002309  -0.000191   0.000440
     5  N    0.000511  -0.000048   0.000012   0.000084
     6  C   -0.044944  -0.040886   0.004454  -0.010347
     7  C    0.072358   0.209711  -0.074025  -0.053176
     8  C   -0.053112  -0.056790   0.291555   0.295502
     9  H    0.088369   0.003431   0.018229   0.003888
    10  H    0.006193   0.000171   0.005585   0.001288
    11  H    0.002158   0.000369   0.014260   0.014016
    12  H    0.000993   0.000362   0.000993   0.010960
    13  H    0.001164   0.000117   0.000382   0.001742
    14  H    0.036598   0.002357   0.000988   0.001433
    15  H    0.000083   0.000011   0.000000   0.000006
    16  H   -0.000038  -0.000024  -0.000002  -0.000054
    17  H    0.014814   0.009461   0.000136   0.000960
    18  H    0.010070   0.001412   0.000512   0.009392
    19  H    0.872024   0.029653   0.018649   0.014693
    20  H    0.029653   0.759795   0.013069   0.010902
    21  H    0.018649   0.013069   0.694854   0.000034
    22  H    0.014693   0.010902   0.000034   0.685390
 Mulliken charges:
               1
     1  N   -0.106776
     2  C   -0.005729
     3  C   -0.149027
     4  C    0.099383
     5  N   -0.641999
     6  C   -0.164215
     7  C   -0.128204
     8  C   -0.159769
     9  H    0.047431
    10  H    0.068003
    11  H    0.113523
    12  H    0.121624
    13  H    0.060047
    14  H   -0.002686
    15  H    0.250630
    16  H    0.242931
    17  H    0.063484
    18  H    0.076417
    19  H   -0.002859
    20  H    0.050694
    21  H    0.080303
    22  H    0.086795
 Sum of Mulliken charges =  -0.00000
 Mulliken charges with hydrogens summed into heavy atoms:
               1
     1  N    0.008657
     2  C    0.107794
     3  C    0.032644
     4  C    0.096696
     5  N   -0.148439
     6  C   -0.024314
     7  C   -0.080368
     8  C    0.007329
 Electronic spatial extent (au):  <R**2>=           1046.1250
 Charge=             -0.0000 electrons
 Dipole moment (field-independent basis, Debye):
    X=             -1.1385    Y=              0.2062    Z=              1.8954  Tot=              2.2206
 Quadrupole moment (field-independent basis, Debye-Ang):
   XX=            -50.0520   YY=            -58.0973   ZZ=            -52.7523
   XY=              6.3280   XZ=              0.8345   YZ=             -0.1656
 Traceless Quadrupole moment (field-independent basis, Debye-Ang):
   XX=              3.5818   YY=             -4.4634   ZZ=              0.8816
   XY=              6.3280   XZ=              0.8345   YZ=             -0.1656
 Octapole moment (field-independent basis, Debye-Ang**2):
  XXX=              9.4050  YYY=              1.2631  ZZZ=              9.6162  XYY=             -6.4300
  XXY=              9.2692  XXZ=              1.9946  XZZ=              5.4790  YZZ=             -2.8844
  YYZ=              2.3196  XYZ=             -3.2096
 Hexadecapole moment (field-independent basis, Debye-Ang**3):
 XXXX=           -703.5662 YYYY=           -505.4558 ZZZZ=           -208.5374 XXXY=             38.8899
 XXXZ=              2.9722 YYYX=             10.2747 YYYZ=             -0.2266 ZZZX=              0.6178
 ZZZY=             -0.2355 XXYY=           -228.2571 XXZZ=           -145.7113 YYZZ=           -115.4422
 XXYZ=             -3.1271 YYXZ=              1.7435 ZZXY=              3.0703
 N-N= 4.145228794407D+02 E-N=-1.631259554611D+03  KE= 3.434065742444D+02
 Evaluate density.
 Using the total density.
 Monte-Carlo method of calculating molar volume:
 based on  0.001 e/bohr**3 density envelope.
 Number of points per bohr**3 =   20 CutOff= 1.00D-04
 Using the CI density.
 There are       347 points.  Will hold       347 in memory.
 LenV=   805202760 MDV=   805306368.
 Box volume = 5266.810 fraction occupied=0.233
 Integrated density= 1.1602126174009873D+03 error= 1.0962126174009873D+03
 Molar volume = 1229.428 bohr**3/mol (109.713 cm**3/mol)
 Recommended a0 for SCRF calculation =  4.37 angstrom (  8.26 bohr)
 ******************************Gaussian NBO Version 3.1******************************
             N A T U R A L   A T O M I C   O R B I T A L   A N D
          N A T U R A L   B O N D   O R B I T A L   A N A L Y S I S
 ******************************Gaussian NBO Version 3.1******************************
       /RESON  / : Allow strongly delocalized NBO set

 Analyzing the CI density

 Job title: GEQHKFFSPGPGLN-OLQVQODUSA-N_conf_1                              

 Storage needed:    109964 in NPA ( 805303728 available)
 GSVD:  LWork=       19546 too small for GESVD, short by       12761 words or       12761 for optimal perf.


 NATURAL POPULATIONS:  Natural atomic orbital occupancies 
                                                          
   NAO  Atom  No  lang   Type(AO)    Occupancy
 --------------------------------------------
     1    N    1  S      Cor( 1S)     1.99931
     2    N    1  S      Val( 2S)     1.48035
     3    N    1  S      Ryd( 3S)     0.01133
     4    N    1  S      Ryd( 4S)     0.00003
     5    N    1  px     Val( 2p)     1.12258
     6    N    1  px     Ryd( 3p)     0.00010
     7    N    1  py     Val( 2p)     1.40027
     8    N    1  py     Ryd( 3p)     0.00184
     9    N    1  pz     Val( 2p)     1.35044
    10    N    1  pz     Ryd( 3p)     0.00304
    11    N    1  dxy    Ryd( 3d)     0.00030
    12    N    1  dxz    Ryd( 3d)     0.00093
    13    N    1  dyz    Ryd( 3d)     0.00030
    14    N    1  dx2y2  Ryd( 3d)     0.00016
    15    N    1  dz2    Ryd( 3d)     0.00038

    16    C    2  S      Cor( 1S)     1.99917
    17    C    2  S      Val( 2S)     0.98056
    18    C    2  S      Ryd( 3S)     0.00120
    19    C    2  S      Ryd( 4S)     0.00004
    20    C    2  px     Val( 2p)     1.04731
    21    C    2  px     Ryd( 3p)     0.00315
    22    C    2  py     Val( 2p)     1.09021
    23    C    2  py     Ryd( 3p)     0.00362
    24    C    2  pz     Val( 2p)     0.99785
    25    C    2  pz     Ryd( 3p)     0.00462
    26    C    2  dxy    Ryd( 3d)     0.00087
    27    C    2  dxz    Ryd( 3d)     0.00113
    28    C    2  dyz    Ryd( 3d)     0.00108
    29    C    2  dx2y2  Ryd( 3d)     0.00075
    30    C    2  dz2    Ryd( 3d)     0.00106

    31    C    3  S      Cor( 1S)     1.99917
    32    C    3  S      Val( 2S)     1.04752
    33    C    3  S      Ryd( 3S)     0.00098
    34    C    3  S      Ryd( 4S)     0.00003
    35    C    3  px     Val( 2p)     0.97092
    36    C    3  px     Ryd( 3p)     0.00394
    37    C    3  py     Val( 2p)     1.22825
    38    C    3  py     Ryd( 3p)     0.00396
    39    C    3  pz     Val( 2p)     1.20404
    40    C    3  pz     Ryd( 3p)     0.00240
    41    C    3  dxy    Ryd( 3d)     0.00043
    42    C    3  dxz    Ryd( 3d)     0.00043
    43    C    3  dyz    Ryd( 3d)     0.00032
    44    C    3  dx2y2  Ryd( 3d)     0.00097
    45    C    3  dz2    Ryd( 3d)     0.00099

    46    C    4  S      Cor( 1S)     1.99918
    47    C    4  S      Val( 2S)     0.95375
    48    C    4  S      Ryd( 3S)     0.00195
    49    C    4  S      Ryd( 4S)     0.00005
    50    C    4  px     Val( 2p)     0.88617
    51    C    4  px     Ryd( 3p)     0.00501
    52    C    4  py     Val( 2p)     1.03081
    53    C    4  py     Ryd( 3p)     0.00415
    54    C    4  pz     Val( 2p)     1.17765
    55    C    4  pz     Ryd( 3p)     0.00249
    56    C    4  dxy    Ryd( 3d)     0.00140
    57    C    4  dxz    Ryd( 3d)     0.00081
    58    C    4  dyz    Ryd( 3d)     0.00058
    59    C    4  dx2y2  Ryd( 3d)     0.00117
    60    C    4  dz2    Ryd( 3d)     0.00110

    61    N    5  S      Cor( 1S)     1.99966
    62    N    5  S      Val( 2S)     1.43911
    63    N    5  S      Ryd( 3S)     0.00055
    64    N    5  S      Ryd( 4S)     0.00001
    65    N    5  px     Val( 2p)     1.28008
    66    N    5  px     Ryd( 3p)     0.00295
    67    N    5  py     Val( 2p)     1.80485
    68    N    5  py     Ryd( 3p)     0.00569
    69    N    5  pz     Val( 2p)     1.38713
    70    N    5  pz     Ryd( 3p)     0.00235
    71    N    5  dxy    Ryd( 3d)     0.00127
    72    N    5  dxz    Ryd( 3d)     0.00033
    73    N    5  dyz    Ryd( 3d)     0.00119
    74    N    5  dx2y2  Ryd( 3d)     0.00107
    75    N    5  dz2    Ryd( 3d)     0.00070

    76    C    6  S      Cor( 1S)     1.99928
    77    C    6  S      Val( 2S)     1.04506
    78    C    6  S      Ryd( 3S)     0.00084
    79    C    6  S      Ryd( 4S)     0.00002
    80    C    6  px     Val( 2p)     1.10652
    81    C    6  px     Ryd( 3p)     0.00348
    82    C    6  py     Val( 2p)     1.08925
    83    C    6  py     Ryd( 3p)     0.00201
    84    C    6  pz     Val( 2p)     1.23402
    85    C    6  pz     Ryd( 3p)     0.00394
    86    C    6  dxy    Ryd( 3d)     0.00055
    87    C    6  dxz    Ryd( 3d)     0.00064
    88    C    6  dyz    Ryd( 3d)     0.00053
    89    C    6  dx2y2  Ryd( 3d)     0.00069
    90    C    6  dz2    Ryd( 3d)     0.00073

    91    C    7  S      Cor( 1S)     1.99932
    92    C    7  S      Val( 2S)     1.04794
    93    C    7  S      Ryd( 3S)     0.00066
    94    C    7  S      Ryd( 4S)     0.00005
    95    C    7  px     Val( 2p)     1.03423
    96    C    7  px     Ryd( 3p)     0.00207
    97    C    7  py     Val( 2p)     1.19595
    98    C    7  py     Ryd( 3p)     0.00435
    99    C    7  pz     Val( 2p)     1.18652
   100    C    7  pz     Ryd( 3p)     0.00249
   101    C    7  dxy    Ryd( 3d)     0.00044
   102    C    7  dxz    Ryd( 3d)     0.00053
   103    C    7  dyz    Ryd( 3d)     0.00031
   104    C    7  dx2y2  Ryd( 3d)     0.00090
   105    C    7  dz2    Ryd( 3d)     0.00090

   106    C    8  S      Cor( 1S)     1.99928
   107    C    8  S      Val( 2S)     1.03959
   108    C    8  S      Ryd( 3S)     0.00104
   109    C    8  S      Ryd( 4S)     0.00002
   110    C    8  px     Val( 2p)     1.20664
   111    C    8  px     Ryd( 3p)     0.00394
   112    C    8  py     Val( 2p)     1.01701
   113    C    8  py     Ryd( 3p)     0.00181
   114    C    8  pz     Val( 2p)     1.20259
   115    C    8  pz     Ryd( 3p)     0.00321
   116    C    8  dxy    Ryd( 3d)     0.00039
   117    C    8  dxz    Ryd( 3d)     0.00037
   118    C    8  dyz    Ryd( 3d)     0.00043
   119    C    8  dx2y2  Ryd( 3d)     0.00095
   120    C    8  dz2    Ryd( 3d)     0.00099

   121    H    9  S      Val( 1S)     0.71367
   122    H    9  S      Ryd( 2S)     0.07116
   123    H    9  px     Ryd( 2p)     0.00037
   124    H    9  py     Ryd( 2p)     0.00033
   125    H    9  pz     Ryd( 2p)     0.00050

   126    H   10  S      Val( 1S)     0.69229
   127    H   10  S      Ryd( 2S)     0.06859
   128    H   10  px     Ryd( 2p)     0.00020
   129    H   10  py     Ryd( 2p)     0.00075
   130    H   10  pz     Ryd( 2p)     0.00025

   131    H   11  S      Val( 1S)     0.72724
   132    H   11  S      Ryd( 2S)     0.01570
   133    H   11  px     Ryd( 2p)     0.00017
   134    H   11  py     Ryd( 2p)     0.00013
   135    H   11  pz     Ryd( 2p)     0.00027

   136    H   12  S      Val( 1S)     0.73749
   137    H   12  S      Ryd( 2S)     0.00525
   138    H   12  px     Ryd( 2p)     0.00011
   139    H   12  py     Ryd( 2p)     0.00010
   140    H   12  pz     Ryd( 2p)     0.00034

   141    H   13  S      Val( 1S)     0.76317
   142    H   13  S      Ryd( 2S)     0.02282
   143    H   13  px     Ryd( 2p)     0.00010
   144    H   13  py     Ryd( 2p)     0.00034
   145    H   13  pz     Ryd( 2p)     0.00008

   146    H   14  S      Val( 1S)     0.79748
   147    H   14  S      Ryd( 2S)     0.03577
   148    H   14  px     Ryd( 2p)     0.00011
   149    H   14  py     Ryd( 2p)     0.00012
   150    H   14  pz     Ryd( 2p)     0.00037

   151    H   15  S      Val( 1S)     0.60616
   152    H   15  S      Ryd( 2S)     0.00170
   153    H   15  px     Ryd( 2p)     0.00038
   154    H   15  py     Ryd( 2p)     0.00063
   155    H   15  pz     Ryd( 2p)     0.00041

   156    H   16  S      Val( 1S)     0.61744
   157    H   16  S      Ryd( 2S)     0.00177
   158    H   16  px     Ryd( 2p)     0.00031
   159    H   16  py     Ryd( 2p)     0.00059
   160    H   16  pz     Ryd( 2p)     0.00054

   161    H   17  S      Val( 1S)     0.77184
   162    H   17  S      Ryd( 2S)     0.00672
   163    H   17  px     Ryd( 2p)     0.00019
   164    H   17  py     Ryd( 2p)     0.00016
   165    H   17  pz     Ryd( 2p)     0.00019

   166    H   18  S      Val( 1S)     0.77152
   167    H   18  S      Ryd( 2S)     0.00448
   168    H   18  px     Ryd( 2p)     0.00012
   169    H   18  py     Ryd( 2p)     0.00012
   170    H   18  pz     Ryd( 2p)     0.00032

   171    H   19  S      Val( 1S)     0.80087
   172    H   19  S      Ryd( 2S)     0.03346
   173    H   19  px     Ryd( 2p)     0.00010
   174    H   19  py     Ryd( 2p)     0.00015
   175    H   19  pz     Ryd( 2p)     0.00033

   176    H   20  S      Val( 1S)     0.77339
   177    H   20  S      Ryd( 2S)     0.01017
   178    H   20  px     Ryd( 2p)     0.00010
   179    H   20  py     Ryd( 2p)     0.00034
   180    H   20  pz     Ryd( 2p)     0.00009

   181    H   21  S      Val( 1S)     0.75567
   182    H   21  S      Ryd( 2S)     0.00990
   183    H   21  px     Ryd( 2p)     0.00033
   184    H   21  py     Ryd( 2p)     0.00011
   185    H   21  pz     Ryd( 2p)     0.00009

   186    H   22  S      Val( 1S)     0.76005
   187    H   22  S      Ryd( 2S)     0.00941
   188    H   22  px     Ryd( 2p)     0.00009
   189    H   22  py     Ryd( 2p)     0.00012
   190    H   22  pz     Ryd( 2p)     0.00033


 Summary of Natural Population Analysis:                  
                                                          
                                       Natural Population 
                Natural  -----------------------------------------------
    Atom  No    Charge         Core      Valence    Rydberg      Total
 -----------------------------------------------------------------------
      N    1   -0.37136      1.99931     5.35365    0.01840     7.37136
      C    2   -0.13265      1.99917     4.11594    0.01753     6.13265
      C    3   -0.46436      1.99917     4.45073    0.01446     6.46436
      C    4   -0.06626      1.99918     4.04837    0.01871     6.06626
      N    5   -0.92691      1.99966     5.91117    0.01609     7.92691
      C    6   -0.48757      1.99928     4.47485    0.01344     6.48757
      C    7   -0.47667      1.99932     4.46464    0.01270     6.47667
      C    8   -0.47827      1.99928     4.46583    0.01315     6.47827
      H    9    0.21397      0.00000     0.71367    0.07236     0.78603
      H   10    0.23793      0.00000     0.69229    0.06978     0.76207
      H   11    0.25649      0.00000     0.72724    0.01627     0.74351
      H   12    0.25671      0.00000     0.73749    0.00580     0.74329
      H   13    0.21348      0.00000     0.76317    0.02335     0.78652
      H   14    0.16614      0.00000     0.79748    0.03638     0.83386
      H   15    0.39073      0.00000     0.60616    0.00312     0.60927
      H   16    0.37936      0.00000     0.61744    0.00320     0.62064
      H   17    0.22091      0.00000     0.77184    0.00725     0.77909
      H   18    0.22345      0.00000     0.77152    0.00504     0.77655
      H   19    0.16508      0.00000     0.80087    0.03405     0.83492
      H   20    0.21590      0.00000     0.77339    0.01070     0.78410
      H   21    0.23389      0.00000     0.75567    0.01043     0.76611
      H   22    0.22999      0.00000     0.76005    0.00996     0.77001
 =======================================================================
   * Total *    0.00000     15.99437    47.57344    0.43218    64.00000

                                 Natural Population      
 --------------------------------------------------------
   Core                      15.99437 ( 99.9648% of  16)
   Valence                   47.57344 ( 99.1113% of  48)
   Natural Minimal Basis     63.56782 ( 99.3247% of  64)
   Natural Rydberg Basis      0.43218 (  0.6753% of  64)
 --------------------------------------------------------

    Atom  No          Natural Electron Configuration
 ----------------------------------------------------------------------------
      N    1      [core]2S( 1.48)2p( 3.87)3S( 0.01)
      C    2      [core]2S( 0.98)2p( 3.14)3p( 0.01)
      C    3      [core]2S( 1.05)2p( 3.40)3p( 0.01)
      C    4      [core]2S( 0.95)2p( 3.09)3p( 0.01)3d( 0.01)
      N    5      [core]2S( 1.44)2p( 4.47)3p( 0.01)
      C    6      [core]2S( 1.05)2p( 3.43)3p( 0.01)
      C    7      [core]2S( 1.05)2p( 3.42)3p( 0.01)
      C    8      [core]2S( 1.04)2p( 3.43)3p( 0.01)
      H    9            1S( 0.71)2S( 0.07)
      H   10            1S( 0.69)2S( 0.07)
      H   11            1S( 0.73)2S( 0.02)
      H   12            1S( 0.74)2S( 0.01)
      H   13            1S( 0.76)2S( 0.02)
      H   14            1S( 0.80)2S( 0.04)
      H   15            1S( 0.61)
      H   16            1S( 0.62)
      H   17            1S( 0.77)2S( 0.01)
      H   18            1S( 0.77)
      H   19            1S( 0.80)2S( 0.03)
      H   20            1S( 0.77)2S( 0.01)
      H   21            1S( 0.76)2S( 0.01)
      H   22            1S( 0.76)2S( 0.01)


 NBO analysis skipped by request.
 1\1\GINC-DRG2-W008\SP\RB3LYP TD-FC\6-31G(d,p)\C6H14N2\QDUEZ\17-Jul-202
 4\0\\# TD(NStates=10, Root=1) B3LYP/6-31G** SCRF=(Solvent=water) volum
 e pop=NPA density=current Geom=AllCheck Guess=Read\\GEQHKFFSPGPGLN-OLQ
 VQODUSA-N_conf_1\\0,1\N,0,2.1824111456,-0.3886279667,0.8821522822\C,0,
 1.4494400236,-0.3373664431,-0.3994328261\C,0,0.1675357342,-1.201273421
 5,-0.4461915839\C,0,-0.9723881433,-0.6421543495,0.4182192965\N,0,-2.13
 26750096,-1.5459988498,0.3438520441\C,0,-1.2715248837,0.8176576912,0.0
 26447485\C,0,-0.0164912473,1.7021583639,0.0955033795\C,0,1.1215618869,
 1.1232007421,-0.7606607937\H,0,1.5825849952,-0.0597676951,1.6367349233
 \H,0,2.3788440799,-1.3627249677,1.1088149479\H,0,2.1421300288,-0.72728
 70945,-1.1562720828\H,0,-0.1823961691,-1.2589961672,-1.4881076701\H,0,
 0.3953771352,-2.2278896808,-0.1343389134\H,0,-0.6440144515,-0.64996419
 14,1.4683246739\H,0,-2.8857564974,-1.161661174,0.9139438913\H,0,-2.492
 7575776,-1.5319694084,-0.6110693853\H,0,-2.0612209876,1.2195459651,0.6
 741633228\H,0,-1.6687473208,0.8264374834,-0.9998238662\H,0,0.308600791
 8,1.7954396726,1.1411190241\H,0,-0.2515770715,2.7199684432,-0.23675377
 71\H,0,2.0275516749,1.7309458593,-0.6599459135\H,0,0.8235118633,1.1603
 271887,-1.8166784584\\Version=ES64L-G16RevA.03\State=1-A\HF=-346.59996
 46\RMSD=1.673e-09\Dipole=0.3831542,0.1156568,-0.7765882\Quadrupole=4.9
 910129,-5.3955336,0.4045207,-1.6227731,0.7252129,1.2446052\PG=C01 [X(C
 6H14N2)]\\@


          EVOLUTION
 IN THE BEGINNING GOD MADE MAN.
 HE WORKED THE DIRT WITH HIS HANDS.
 THEN GOD DECIDED TO GIVE MAN SCIENCE,
 MAN SHOULD BE USEFUL (LIKE AN APPLIANCE.)
 BUT SOON MAN'S KNOWLEDGE GREW TOO GREAT,
 TO THE HEADING SCIENCE HE COULDN'T RELATE
 SO GOD SAID "LETS HAVE DIFFERENT FIELDS,
 WE'LL DIVIDE THEM UP, SEE WHAT IT YIELDS."
 ENTER PHYSICS, CHEMISTRY, BIO
 THEY SPRANG UP AROUND THE NILE.
 BUT CHEMISTRY SURPASSED THE REST
 FAR AND AWAY IT WAS THE BEST.
 EXPERIMENT WAS GOD'S DECREE
 EXPERIMENT DID CHEMISTS WITH LOTS OF GLEE
 BUT SOON THEIR TESTS BEGAN TO BOG,
 THEY FOUND THEMSELVES DEEP IN A FOG.
 "GIVE US SOME HELP" THEY CRIED TO GOD.
 GOD LOOKED AROUND, THEN GAVE THE NOD.
 ENTER EINSTEIN, HEISENBERG, BOHR,
 REACTION PATHS WERE CLEAR ONCE MORE.
 WITH THEORISTS GOD SEND DIRECTION
 AND THEN HE STOPPED, HE'D MADE PERFECTION.
          -- THOMAS A. HOLME, 1981
 Job cpu time:       0 days  0 hours 20 minutes 40.0 seconds.
 Elapsed time:       0 days  0 hours  6 minutes 57.9 seconds.
 File lengths (MBytes):  RWF=    341 Int=      0 D2E=      0 Chk=     22 Scr=      1
 Normal termination of Gaussian 16 at Wed Jul 17 18:36:54 2024.
