 Entering Gaussian System, Link 0=g16
 Initial command:
 /opt/sw/arch/manual/gaussian/G16_A03/g16/l1.exe "/scratch/1380827/Gau-34050.inp" -scrdir="/scratch/1380827/"
 Entering Link 1 = /opt/sw/arch/manual/gaussian/G16_A03/g16/l1.exe PID=     34051.
  
 Copyright (c) 1988,1990,1992,1993,1995,1998,2003,2009,2016,
            Gaussian, Inc.  All Rights Reserved.
  
 This is part of the Gaussian(R) 16 program.  It is based on
 the Gaussian(R) 09 system (copyright 2009, Gaussian, Inc.),
 the Gaussian(R) 03 system (copyright 2003, Gaussian, Inc.),
 the Gaussian(R) 98 system (copyright 1998, Gaussian, Inc.),
 the Gaussian(R) 94 system (copyright 1995, Gaussian, Inc.),
 the Gaussian 92(TM) system (copyright 1992, Gaussian, Inc.),
 the Gaussian 90(TM) system (copyright 1990, Gaussian, Inc.),
 the Gaussian 88(TM) system (copyright 1988, Gaussian, Inc.),
 the Gaussian 86(TM) system (copyright 1986, Carnegie Mellon
 University), and the Gaussian 82(TM) system (copyright 1983,
 Carnegie Mellon University). Gaussian is a federally registered
 trademark of Gaussian, Inc.
  
 This software contains proprietary and confidential information,
 including trade secrets, belonging to Gaussian, Inc.
  
 This software is provided under written license and may be
 used, copied, transmitted, or stored only in accord with that
 written license.
  
 The following legend is applicable only to US Government
 contracts under FAR:
  
                    RESTRICTED RIGHTS LEGEND
  
 Use, reproduction and disclosure by the US Government is
 subject to restrictions as set forth in subparagraphs (a)
 and (c) of the Commercial Computer Software - Restricted
 Rights clause in FAR 52.227-19.
  
 Gaussian, Inc.
 340 Quinnipiac St., Bldg. 40, Wallingford CT 06492
  
  
 ---------------------------------------------------------------
 Warning -- This program may not be used in any manner that
 competes with the business of Gaussian, Inc. or will provide
 assistance to any competitor of Gaussian, Inc.  The licensee
 of this program is prohibited from giving any competitor of
 Gaussian, Inc. access to this program.  By using this program,
 the user acknowledges that Gaussian, Inc. is engaged in the
 business of creating and licensing software in the field of
 computational chemistry and represents and warrants to the
 licensee that it is not a competitor of Gaussian, Inc. and that
 it will not use this program in any manner prohibited above.
 ---------------------------------------------------------------
  

 Cite this work as:
 Gaussian 16, Revision A.03,
 M. J. Frisch, G. W. Trucks, H. B. Schlegel, G. E. Scuseria, 
 M. A. Robb, J. R. Cheeseman, G. Scalmani, V. Barone, 
 G. A. Petersson, H. Nakatsuji, X. Li, M. Caricato, A. V. Marenich, 
 J. Bloino, B. G. Janesko, R. Gomperts, B. Mennucci, H. P. Hratchian, 
 J. V. Ortiz, A. F. Izmaylov, J. L. Sonnenberg, D. Williams-Young, 
 F. Ding, F. Lipparini, F. Egidi, J. Goings, B. Peng, A. Petrone, 
 T. Henderson, D. Ranasinghe, V. G. Zakrzewski, J. Gao, N. Rega, 
 G. Zheng, W. Liang, M. Hada, M. Ehara, K. Toyota, R. Fukuda, 
 J. Hasegawa, M. Ishida, T. Nakajima, Y. Honda, O. Kitao, H. Nakai, 
 T. Vreven, K. Throssell, J. A. Montgomery, Jr., J. E. Peralta, 
 F. Ogliaro, M. J. Bearpark, J. J. Heyd, E. N. Brothers, K. N. Kudin, 
 V. N. Staroverov, T. A. Keith, R. Kobayashi, J. Normand, 
 K. Raghavachari, A. P. Rendell, J. C. Burant, S. S. Iyengar, 
 J. Tomasi, M. Cossi, J. M. Millam, M. Klene, C. Adamo, R. Cammi, 
 J. W. Ochterski, R. L. Martin, K. Morokuma, O. Farkas, 
 J. B. Foresman, and D. J. Fox, Gaussian, Inc., Wallingford CT, 2016.
 
 ******************************************
 Gaussian 16:  ES64L-G16RevA.03 25-Dec-2016
                17-Jul-2024 
 ******************************************
 %nprocshared=3
 Will use up to    3 processors via shared memory.
 %mem=6GB
 %Chk=GEQHKFFSPGPGLN-OLQVQODUSA-N_conf_0_0.chk
 -------------------------------------------------------
 # opt=CalcFc B3LYP/6-31G** SCRF=(Solvent=water) scf=xqc
 -------------------------------------------------------
 1/10=4,18=20,19=15,26=3,38=1/1,3;
 2/9=110,12=2,17=6,18=5,40=1/2;
 3/5=1,6=6,7=101,11=2,25=1,30=1,70=2201,71=2,72=1,74=-5,140=1/1,2,3;
 4//1;
 5/5=2,8=3,13=1,38=5,53=1/2,8;
 8/6=4,10=90,11=11/1;
 11/6=1,8=1,9=11,15=111,16=1/1,2,10;
 10/6=1,13=1/2;
 6/7=2,8=2,9=2,10=2,28=1/1;
 7/10=1,18=20,25=1/1,2,3,16;
 1/10=4,18=20,19=15,26=3/3(2);
 2/9=110/2;
 99//99;
 2/9=110/2;
 3/5=1,6=6,7=101,11=2,25=1,30=1,70=2205,71=1,72=1,74=-5/1,2,3;
 4/5=5,16=3,69=1/1;
 5/5=2,8=3,13=1,38=5,53=1/2,8;
 7//1,2,3,16;
 1/18=20,19=15,26=3/3(-5);
 2/9=110/2;
 6/7=2,8=2,9=2,10=2,19=2,28=1/1;
 99/9=1/99;
 ----------------------------------
 GEQHKFFSPGPGLN-OLQVQODUSA-N_conf_0
 ----------------------------------
 Symbolic Z-matrix:
 Charge =  0 Multiplicity = 1
 N                     1.67937   1.04173  -0.81522 
 C                     1.24773   0.61101   0.5176 
 C                    -0.15023   1.17034   0.83436 
 C                    -1.29061   0.49576   0.04994 
 N                    -1.24818   0.8543   -1.37327 
 C                    -1.22486  -1.02888   0.20528 
 C                     0.14752  -1.60248  -0.14895 
 C                     1.25952  -0.91968   0.64693 
 H                     0.89479   0.88422  -1.46178 
 H                     2.43623   0.448    -1.14804 
 H                     1.96364   1.02459   1.23722 
 H                    -0.34116   1.02501   1.9065 
 H                    -0.16987   2.25646   0.67329 
 H                    -2.24656   0.85108   0.45292 
 H                    -2.08252   0.49547  -1.83756 
 H                    -1.28944   1.87104  -1.46169 
 H                    -1.45808  -1.2878    1.24639 
 H                    -1.9941   -1.51156  -0.41024 
 H                     0.15687  -2.67773   0.06422 
 H                     0.33491  -1.4964   -1.22381 
 H                     1.14301  -1.18126   1.70698 
 H                     2.23198  -1.32322   0.33893 
 

 GradGradGradGradGradGradGradGradGradGradGradGradGradGradGradGradGradGrad
 Berny optimization.
 Initialization pass.
                           ----------------------------
                           !    Initial Parameters    !
                           ! (Angstroms and Degrees)  !
 --------------------------                            --------------------------
 ! Name  Definition              Value          Derivative Info.                !
 --------------------------------------------------------------------------------
 ! R1    R(1,2)                  1.4657         calculate D2E/DX2 analytically  !
 ! R2    R(1,9)                  1.0288         calculate D2E/DX2 analytically  !
 ! R3    R(1,10)                 1.0179         calculate D2E/DX2 analytically  !
 ! R4    R(2,3)                  1.5387         calculate D2E/DX2 analytically  !
 ! R5    R(2,8)                  1.5362         calculate D2E/DX2 analytically  !
 ! R6    R(2,11)                 1.0961         calculate D2E/DX2 analytically  !
 ! R7    R(3,4)                  1.5398         calculate D2E/DX2 analytically  !
 ! R8    R(3,12)                 1.0987         calculate D2E/DX2 analytically  !
 ! R9    R(3,13)                 1.0982         calculate D2E/DX2 analytically  !
 ! R10   R(4,5)                  1.4683         calculate D2E/DX2 analytically  !
 ! R11   R(4,6)                  1.5339         calculate D2E/DX2 analytically  !
 ! R12   R(4,14)                 1.0966         calculate D2E/DX2 analytically  !
 ! R13   R(5,15)                 1.02           calculate D2E/DX2 analytically  !
 ! R14   R(5,16)                 1.0214         calculate D2E/DX2 analytically  !
 ! R15   R(6,7)                  1.529          calculate D2E/DX2 analytically  !
 ! R16   R(6,17)                 1.0979         calculate D2E/DX2 analytically  !
 ! R17   R(6,18)                 1.0971         calculate D2E/DX2 analytically  !
 ! R18   R(7,8)                  1.5285         calculate D2E/DX2 analytically  !
 ! R19   R(7,19)                 1.0962         calculate D2E/DX2 analytically  !
 ! R20   R(7,20)                 1.0962         calculate D2E/DX2 analytically  !
 ! R21   R(8,21)                 1.098          calculate D2E/DX2 analytically  !
 ! R22   R(8,22)                 1.097          calculate D2E/DX2 analytically  !
 ! A1    A(2,1,9)              107.5723         calculate D2E/DX2 analytically  !
 ! A2    A(2,1,10)             110.1755         calculate D2E/DX2 analytically  !
 ! A3    A(9,1,10)             105.7984         calculate D2E/DX2 analytically  !
 ! A4    A(1,2,3)              110.362          calculate D2E/DX2 analytically  !
 ! A5    A(1,2,8)              111.5378         calculate D2E/DX2 analytically  !
 ! A6    A(1,2,11)             107.084          calculate D2E/DX2 analytically  !
 ! A7    A(3,2,8)              110.6012         calculate D2E/DX2 analytically  !
 ! A8    A(3,2,11)             108.7293         calculate D2E/DX2 analytically  !
 ! A9    A(8,2,11)             108.4019         calculate D2E/DX2 analytically  !
 ! A10   A(2,3,4)              114.1268         calculate D2E/DX2 analytically  !
 ! A11   A(2,3,12)             108.1019         calculate D2E/DX2 analytically  !
 ! A12   A(2,3,13)             110.2172         calculate D2E/DX2 analytically  !
 ! A13   A(4,3,12)             108.0883         calculate D2E/DX2 analytically  !
 ! A14   A(4,3,13)             110.2022         calculate D2E/DX2 analytically  !
 ! A15   A(12,3,13)            105.715          calculate D2E/DX2 analytically  !
 ! A16   A(3,4,5)              111.4337         calculate D2E/DX2 analytically  !
 ! A17   A(3,4,6)              110.6169         calculate D2E/DX2 analytically  !
 ! A18   A(3,4,14)             108.4494         calculate D2E/DX2 analytically  !
 ! A19   A(5,4,6)              109.8542         calculate D2E/DX2 analytically  !
 ! A20   A(5,4,14)             107.594          calculate D2E/DX2 analytically  !
 ! A21   A(6,4,14)             108.7969         calculate D2E/DX2 analytically  !
 ! A22   A(4,5,15)             109.3699         calculate D2E/DX2 analytically  !
 ! A23   A(4,5,16)             109.0145         calculate D2E/DX2 analytically  !
 ! A24   A(15,5,16)            106.126          calculate D2E/DX2 analytically  !
 ! A25   A(4,6,7)              112.8226         calculate D2E/DX2 analytically  !
 ! A26   A(4,6,17)             108.7434         calculate D2E/DX2 analytically  !
 ! A27   A(4,6,18)             110.5134         calculate D2E/DX2 analytically  !
 ! A28   A(7,6,17)             108.7765         calculate D2E/DX2 analytically  !
 ! A29   A(7,6,18)             109.5311         calculate D2E/DX2 analytically  !
 ! A30   A(17,6,18)            106.2204         calculate D2E/DX2 analytically  !
 ! A31   A(6,7,8)              111.3941         calculate D2E/DX2 analytically  !
 ! A32   A(6,7,19)             109.3036         calculate D2E/DX2 analytically  !
 ! A33   A(6,7,20)             110.1375         calculate D2E/DX2 analytically  !
 ! A34   A(8,7,19)             109.3128         calculate D2E/DX2 analytically  !
 ! A35   A(8,7,20)             110.058          calculate D2E/DX2 analytically  !
 ! A36   A(19,7,20)            106.5067         calculate D2E/DX2 analytically  !
 ! A37   A(2,8,7)              113.3097         calculate D2E/DX2 analytically  !
 ! A38   A(2,8,21)             108.5322         calculate D2E/DX2 analytically  !
 ! A39   A(2,8,22)             110.4699         calculate D2E/DX2 analytically  !
 ! A40   A(7,8,21)             108.6068         calculate D2E/DX2 analytically  !
 ! A41   A(7,8,22)             109.5363         calculate D2E/DX2 analytically  !
 ! A42   A(21,8,22)            106.1101         calculate D2E/DX2 analytically  !
 ! D1    D(9,1,2,3)            -46.7056         calculate D2E/DX2 analytically  !
 ! D2    D(9,1,2,8)             76.6591         calculate D2E/DX2 analytically  !
 ! D3    D(9,1,2,11)          -164.8942         calculate D2E/DX2 analytically  !
 ! D4    D(10,1,2,3)          -161.5788         calculate D2E/DX2 analytically  !
 ! D5    D(10,1,2,8)           -38.2141         calculate D2E/DX2 analytically  !
 ! D6    D(10,1,2,11)           80.2326         calculate D2E/DX2 analytically  !
 ! D7    D(1,2,3,4)             72.4059         calculate D2E/DX2 analytically  !
 ! D8    D(1,2,3,12)          -167.3076         calculate D2E/DX2 analytically  !
 ! D9    D(1,2,3,13)           -52.2171         calculate D2E/DX2 analytically  !
 ! D10   D(8,2,3,4)            -51.5012         calculate D2E/DX2 analytically  !
 ! D11   D(8,2,3,12)            68.7853         calculate D2E/DX2 analytically  !
 ! D12   D(8,2,3,13)          -176.1242         calculate D2E/DX2 analytically  !
 ! D13   D(11,2,3,4)          -170.419          calculate D2E/DX2 analytically  !
 ! D14   D(11,2,3,12)          -50.1325         calculate D2E/DX2 analytically  !
 ! D15   D(11,2,3,13)           64.958          calculate D2E/DX2 analytically  !
 ! D16   D(1,2,8,7)            -71.3461         calculate D2E/DX2 analytically  !
 ! D17   D(1,2,8,21)           167.9323         calculate D2E/DX2 analytically  !
 ! D18   D(1,2,8,22)            51.9868         calculate D2E/DX2 analytically  !
 ! D19   D(3,2,8,7)             51.8826         calculate D2E/DX2 analytically  !
 ! D20   D(3,2,8,21)           -68.8389         calculate D2E/DX2 analytically  !
 ! D21   D(3,2,8,22)           175.2155         calculate D2E/DX2 analytically  !
 ! D22   D(11,2,8,7)           170.9986         calculate D2E/DX2 analytically  !
 ! D23   D(11,2,8,21)           50.2771         calculate D2E/DX2 analytically  !
 ! D24   D(11,2,8,22)          -65.6685         calculate D2E/DX2 analytically  !
 ! D25   D(2,3,4,5)            -70.2979         calculate D2E/DX2 analytically  !
 ! D26   D(2,3,4,6)             52.217          calculate D2E/DX2 analytically  !
 ! D27   D(2,3,4,14)           171.4541         calculate D2E/DX2 analytically  !
 ! D28   D(12,3,4,5)           169.408          calculate D2E/DX2 analytically  !
 ! D29   D(12,3,4,6)           -68.0771         calculate D2E/DX2 analytically  !
 ! D30   D(12,3,4,14)           51.16           calculate D2E/DX2 analytically  !
 ! D31   D(13,3,4,5)            54.3331         calculate D2E/DX2 analytically  !
 ! D32   D(13,3,4,6)           176.848          calculate D2E/DX2 analytically  !
 ! D33   D(13,3,4,14)          -63.9149         calculate D2E/DX2 analytically  !
 ! D34   D(3,4,5,15)          -172.4867         calculate D2E/DX2 analytically  !
 ! D35   D(3,4,5,16)           -56.8565         calculate D2E/DX2 analytically  !
 ! D36   D(6,4,5,15)            64.561          calculate D2E/DX2 analytically  !
 ! D37   D(6,4,5,16)          -179.8088         calculate D2E/DX2 analytically  !
 ! D38   D(14,4,5,15)          -53.7262         calculate D2E/DX2 analytically  !
 ! D39   D(14,4,5,16)           61.904          calculate D2E/DX2 analytically  !
 ! D40   D(3,4,6,7)            -53.0183         calculate D2E/DX2 analytically  !
 ! D41   D(3,4,6,17)            67.7503         calculate D2E/DX2 analytically  !
 ! D42   D(3,4,6,18)          -176.0242         calculate D2E/DX2 analytically  !
 ! D43   D(5,4,6,7)             70.4139         calculate D2E/DX2 analytically  !
 ! D44   D(5,4,6,17)          -168.8175         calculate D2E/DX2 analytically  !
 ! D45   D(5,4,6,18)           -52.592          calculate D2E/DX2 analytically  !
 ! D46   D(14,4,6,7)          -172.0452         calculate D2E/DX2 analytically  !
 ! D47   D(14,4,6,17)          -51.2767         calculate D2E/DX2 analytically  !
 ! D48   D(14,4,6,18)           64.9489         calculate D2E/DX2 analytically  !
 ! D49   D(4,6,7,8)             54.2343         calculate D2E/DX2 analytically  !
 ! D50   D(4,6,7,19)           175.1372         calculate D2E/DX2 analytically  !
 ! D51   D(4,6,7,20)           -68.1773         calculate D2E/DX2 analytically  !
 ! D52   D(17,6,7,8)           -66.5154         calculate D2E/DX2 analytically  !
 ! D53   D(17,6,7,19)           54.3875         calculate D2E/DX2 analytically  !
 ! D54   D(17,6,7,20)          171.073          calculate D2E/DX2 analytically  !
 ! D55   D(18,6,7,8)           177.7856         calculate D2E/DX2 analytically  !
 ! D56   D(18,6,7,19)          -61.3115         calculate D2E/DX2 analytically  !
 ! D57   D(18,6,7,20)           55.374          calculate D2E/DX2 analytically  !
 ! D58   D(6,7,8,2)            -53.758          calculate D2E/DX2 analytically  !
 ! D59   D(6,7,8,21)            66.9213         calculate D2E/DX2 analytically  !
 ! D60   D(6,7,8,22)          -177.6027         calculate D2E/DX2 analytically  !
 ! D61   D(19,7,8,2)          -174.6555         calculate D2E/DX2 analytically  !
 ! D62   D(19,7,8,21)          -53.9763         calculate D2E/DX2 analytically  !
 ! D63   D(19,7,8,22)           61.4998         calculate D2E/DX2 analytically  !
 ! D64   D(20,7,8,2)            68.6993         calculate D2E/DX2 analytically  !
 ! D65   D(20,7,8,21)         -170.6214         calculate D2E/DX2 analytically  !
 ! D66   D(20,7,8,22)          -55.1453         calculate D2E/DX2 analytically  !
 --------------------------------------------------------------------------------
 Trust Radius=3.00D-01 FncErr=1.00D-07 GrdErr=1.00D-06 EigMax=2.50D+02 EigMin=1.00D-04
 Number of steps in this run=    132 maximum allowed number of steps=    132.
 GradGradGradGradGradGradGradGradGradGradGradGradGradGradGradGradGradGrad

                          Input orientation:                          
 ---------------------------------------------------------------------
 Center     Atomic      Atomic             Coordinates (Angstroms)
 Number     Number       Type             X           Y           Z
 ---------------------------------------------------------------------
      1          7           0        1.679373    1.041729   -0.815217
      2          6           0        1.247726    0.611011    0.517598
      3          6           0       -0.150227    1.170341    0.834361
      4          6           0       -1.290606    0.495758    0.049940
      5          7           0       -1.248184    0.854301   -1.373273
      6          6           0       -1.224855   -1.028880    0.205276
      7          6           0        0.147525   -1.602481   -0.148946
      8          6           0        1.259523   -0.919679    0.646933
      9          1           0        0.894792    0.884223   -1.461781
     10          1           0        2.436227    0.448001   -1.148041
     11          1           0        1.963641    1.024593    1.237216
     12          1           0       -0.341161    1.025008    1.906503
     13          1           0       -0.169866    2.256461    0.673288
     14          1           0       -2.246556    0.851080    0.452923
     15          1           0       -2.082516    0.495465   -1.837562
     16          1           0       -1.289436    1.871037   -1.461685
     17          1           0       -1.458075   -1.287801    1.246394
     18          1           0       -1.994102   -1.511555   -0.410241
     19          1           0        0.156873   -2.677733    0.064217
     20          1           0        0.334910   -1.496399   -1.223808
     21          1           0        1.143014   -1.181261    1.706979
     22          1           0        2.231979   -1.323220    0.338929
 ---------------------------------------------------------------------
                    Distance matrix (angstroms):
                    1          2          3          4          5
     1  N    0.000000
     2  C    1.465686   0.000000
     3  C    2.466797   1.538656   0.000000
     4  C    3.141235   2.583625   1.539753   0.000000
     5  N    2.986160   3.140725   2.485767   1.468294   0.000000
     6  C    3.709902   2.983362   2.527280   1.533941   2.457383
     7  C    3.127671   2.560131   2.957041   2.551545   3.079409
     8  C    2.482193   1.536189   2.527985   2.977083   3.676525
     9  H    1.028796   2.029076   2.538936   2.685548   2.145012
    10  H    1.017896   2.052671   3.337879   3.914935   3.713582
    11  H    2.072097   1.096100   2.156844   3.504200   4.142400
    12  H    3.389778   2.150584   1.098665   2.151366   3.407163
    13  H    2.666628   2.177456   1.098175   2.178232   2.705039
    14  H    4.130066   3.503116   2.154534   1.096581   2.081286
    15  H    3.936420   4.080520   3.365764   2.046896   1.020018
    16  H    3.149524   3.455781   2.657179   2.043625   1.021406
    17  H    4.418205   3.384966   2.814729   2.154213   3.390474
    18  H    4.491958   3.984422   3.484462   2.176231   2.661034
    19  H    4.114099   3.494475   3.936382   3.488043   4.063967
    20  H    2.901142   2.882170   3.403368   2.869395   2.838014
    21  H    3.404532   2.153561   2.822049   3.388314   4.398783
    22  H    2.688942   2.177596   3.483992   3.975021   4.448007
                    6          7          8          9         10
     6  C    0.000000
     7  C    1.529025   0.000000
     8  C    2.525693   1.528458   0.000000
     9  H    3.306349   2.909577   2.798887   0.000000
    10  H    4.173268   3.231227   2.545017   1.632404   0.000000
    11  H    3.930416   3.481558   2.150444   2.906326   2.499050
    12  H    2.809546   3.371555   2.816116   3.590646   4.168580
    13  H    3.482169   3.958313   3.483061   2.752282   3.657798
    14  H    2.153938   3.480493   3.932660   3.679029   4.965281
    15  H    2.689311   3.496553   4.398247   3.026005   4.571294
    16  H    3.345512   3.981642   4.327997   2.396801   4.000496
    17  H    1.097888   2.150337   2.807171   4.193791   4.889981
    18  H    1.097076   2.159423   3.471889   3.897588   4.900206
    19  H    2.155873   1.096218   2.155494   3.944709   4.054040
    20  H    2.166500   1.096218   2.164992   2.457124   2.863907
    21  H    2.808049   2.147762   1.098041   3.790630   3.532426
    22  H    3.471916   2.158925   1.096987   3.146971   2.321642
                   11         12         13         14         15
    11  H    0.000000
    12  H    2.400012   0.000000
    13  H    2.527324   1.751182   0.000000
    14  H    4.286138   2.402847   2.517200   0.000000
    15  H    5.109367   4.163022   3.614374   2.323724   0.000000
    16  H    4.310806   3.599955   2.441331   2.371100   1.631704
    17  H    4.129818   2.651854   3.814411   2.413734   3.616732
    18  H    4.980953   3.812305   4.324329   2.528010   2.464385
    19  H    4.283406   4.165615   4.982369   4.287200   4.324444
    20  H    3.881341   4.075955   4.235296   3.871182   3.191891
    21  H    2.399979   2.666497   3.822316   4.146353   5.077324
    22  H    2.528073   3.820014   4.323745   4.979743   5.163293
                   16         17         18         19         20
    16  H    0.000000
    17  H    4.164180   0.000000
    18  H    3.611651   1.755514   0.000000
    19  H    5.011137   2.436700   2.492343   0.000000
    20  H    3.746293   3.059445   2.467066   1.756774   0.000000
    21  H    5.027302   2.643701   3.799106   2.431167   3.056444
    22  H    5.083881   3.800164   4.296101   2.493238   2.463941
                   21         22
    21  H    0.000000
    22  H    1.754296   0.000000
 Stoichiometry    C6H14N2
 Framework group  C1[X(C6H14N2)]
 Deg. of freedom    60
 Full point group                 C1      NOp   1
 Largest Abelian subgroup         C1      NOp   1
 Largest concise Abelian subgroup C1      NOp   1
                         Standard orientation:                         
 ---------------------------------------------------------------------
 Center     Atomic      Atomic             Coordinates (Angstroms)
 Number     Number       Type             X           Y           Z
 ---------------------------------------------------------------------
      1          7           0       -1.371814   -1.324497   -0.762227
      2          6           0       -1.264288   -0.505545    0.448554
      3          6           0        0.065040   -0.788396    1.169905
      4          6           0        1.303012   -0.215647    0.455605
      5          7           0        1.589771   -0.943005   -0.787218
      6          6           0        1.110553    1.275932    0.153739
      7          6           0       -0.186690    1.565512   -0.602054
      8          6           0       -1.398951    0.991360    0.130719
      9          1           0       -0.478020   -1.252153   -1.266529
     10          1           0       -2.074980   -0.936164   -1.387421
     11          1           0       -2.090894   -0.795074    1.107592
     12          1           0        0.011739   -0.340717    2.171807
     13          1           0        0.186463   -1.867667    1.332443
     14          1           0        2.170301   -0.333412    1.116235
     15          1           0        2.480349   -0.623571   -1.168359
     16          1           0        1.712326   -1.933961   -0.572142
     17          1           0        1.098055    1.829040    1.102039
     18          1           0        1.962468    1.665682   -0.417148
     19          1           0       -0.308597    2.649509   -0.710603
     20          1           0       -0.131792    1.155070   -1.617050
     21          1           0       -1.529435    1.538064    1.074003
     22          1           0       -2.305737    1.178577   -0.457559
 ---------------------------------------------------------------------
 Rotational constants (GHZ):           2.5115652           2.1125616           1.6090340
 Standard basis: 6-31G(d,p) (6D, 7F)
 There are   190 symmetry adapted cartesian basis functions of A   symmetry.
 There are   190 symmetry adapted basis functions of A   symmetry.
   190 basis functions,   322 primitive gaussians,   190 cartesian basis functions
    32 alpha electrons       32 beta electrons
       nuclear repulsion energy       424.1550028182 Hartrees.
 NAtoms=   22 NActive=   22 NUniq=   22 SFac= 1.00D+00 NAtFMM=   60 NAOKFM=F Big=F
 Integral buffers will be    131072 words long.
 Raffenetti 2 integral format.
 Two-electron integral symmetry is turned on.
 Force inversion solution in PCM.
 ------------------------------------------------------------------------------
 Polarizable Continuum Model (PCM)
 =================================
 Model                : PCM.
 Atomic radii         : UFF (Universal Force Field).
 Polarization charges : Total charges.
 Charge compensation  : None.
 Solution method      : Matrix inversion.
 Cavity type          : Scaled VdW (van der Waals Surface) (Alpha=1.100).
 Cavity algorithm     : GePol (No added spheres)
                        Default sphere list used, NSphG=   22.
                        Lebedev-Laikov grids with approx.  5.0 points / Ang**2.
                        Smoothing algorithm: York/Karplus (Gamma=1.0000).
                        Polarization charges: spherical gaussians, with
                                              point-specific exponents (IZeta= 3).
                        Self-potential: point-specific (ISelfS= 7).
                        Self-field    : sphere-specific E.n sum rule (ISelfD= 2).
 1st derivatives      : Analytical E(r).r(x)/FMM algorithm (CHGder, D1EAlg=3).
                        Cavity 1st derivative terms included.
 2nd derivatives      : Analytical E(r).r(xy)/FMM algorithm (CHGder, D2EAlg=3).
                        Cavity 2nd derivative terms included.
 Solvent              : Water, Eps=  78.355300 Eps(inf)=   1.777849
 ------------------------------------------------------------------------------
 One-electron integrals computed using PRISM.
 NBasis=   190 RedAO= T EigKep=  3.09D-03  NBF=   190
 NBsUse=   190 1.00D-06 EigRej= -1.00D+00 NBFU=   190
 ExpMin= 1.61D-01 ExpMax= 4.17D+03 ExpMxC= 6.27D+02 IAcc=3 IRadAn=         5 AccDes= 0.00D+00
 Harris functional with IExCor=  402 and IRadAn=       5 diagonalized for initial guess.
 HarFok:  IExCor=  402 AccDes= 0.00D+00 IRadAn=         5 IDoV= 1 UseB2=F ITyADJ=14
 ICtDFT=  3500011 ScaDFX=  1.000000  1.000000  1.000000  1.000000
 FoFCou: FMM=F IPFlag=           0 FMFlag=      100000 FMFlg1=           0
         NFxFlg=           0 DoJE=T BraDBF=F KetDBF=T FulRan=T
         wScrn=  0.000000 ICntrl=       500 IOpCl=  0 I1Cent=   200000004 NGrid=           0
         NMat0=    1 NMatS0=      1 NMatT0=    0 NMatD0=    1 NMtDS0=    0 NMtDT0=    0
 Petite list used in FoFCou.
 Keep R1 ints in memory in canonical form, NReq=168114806.
 Requested convergence on RMS density matrix=1.00D-08 within  32 cycles.
 Requested convergence on MAX density matrix=1.00D-06.
 Requested convergence on             energy=1.00D-06.
 No special actions if energy rises.
 Inv3:  Mode=1 IEnd=     6255408.
 Iteration    1 A*A^-1 deviation from unit magnitude is 3.33D-15 for    737.
 Iteration    1 A*A^-1 deviation from orthogonality  is 1.78D-15 for   1174    429.
 Iteration    1 A^-1*A deviation from unit magnitude is 3.11D-15 for    737.
 Iteration    1 A^-1*A deviation from orthogonality  is 1.73D-15 for    749    189.
 Error on total polarization charges =  0.00864
 SCF Done:  E(RB3LYP) =  -346.597841810     A.U. after   11 cycles
            NFock= 11  Conv=0.30D-08     -V/T= 2.0096
 QCSCF skips out because SCF is already converged.
 DoSCS=F DFT=T ScalE2(SS,OS)=  1.000000  1.000000
 Range of M.O.s used for correlation:     1   190
 NBasis=   190 NAE=    32 NBE=    32 NFC=     0 NFV=     0
 NROrb=    190 NOA=    32 NOB=    32 NVA=   158 NVB=   158
 Symmetrizing basis deriv contribution to polar:
 IMax=3 JMax=2 DiffMx= 0.00D+00
 G2DrvN: will do    23 centers at a time, making    1 passes.
 Calling FoFCou, ICntrl=  3107 FMM=F I1Cent=   0 AccDes= 0.00D+00.
 NEqPCM:  Using equilibrium solvation (IEInf=0, Eps=  78.3553, EpsInf=   1.7778)
 G2PCM: DoFxE=T DoFxN=T DoGrad=T DoDP/DQ/DG/TGxP=FFFF NFrqRd=   0 IEInf=0 SqF1=F DoCFld=F IF1Alg=4.
 End of G2Drv F.D. properties file   721 does not exist.
 End of G2Drv F.D. properties file   722 does not exist.
 End of G2Drv F.D. properties file   788 does not exist.
          IDoAtm=1111111111111111111111
 NEqPCM:  Using equilibrium solvation (IEInf=0, Eps=  78.3553, EpsInf=   1.7778)
          Differentiating once with respect to nuclear coordinates.
 Keep R1 ints in memory in canonical form, NReq=170797956.
          There are    69 degrees of freedom in the 1st order CPHF.  IDoFFX=6 NUNeed=     0.
     63 vectors produced by pass  0 Test12= 7.33D-15 1.45D-09 XBig12= 7.80D-02 5.28D-02.
 AX will form    63 AO Fock derivatives at one time.
     63 vectors produced by pass  1 Test12= 7.33D-15 1.45D-09 XBig12= 5.21D-03 1.29D-02.
     63 vectors produced by pass  2 Test12= 7.33D-15 1.45D-09 XBig12= 7.03D-05 1.02D-03.
     63 vectors produced by pass  3 Test12= 7.33D-15 1.45D-09 XBig12= 1.50D-07 4.50D-05.
     63 vectors produced by pass  4 Test12= 7.33D-15 1.45D-09 XBig12= 1.72D-10 1.33D-06.
     28 vectors produced by pass  5 Test12= 7.33D-15 1.45D-09 XBig12= 1.28D-13 5.26D-08.
 InvSVY:  IOpt=1 It=  1 EMax= 5.00D-16
 Solved reduced A of dimension   343 with    69 vectors.
 End of Minotr F.D. properties file   721 does not exist.
 End of Minotr F.D. properties file   722 does not exist.
 End of Minotr F.D. properties file   788 does not exist.

 **********************************************************************

            Population analysis using the SCF density.

 **********************************************************************

 Orbital symmetries:
       Occupied  (A) (A) (A) (A) (A) (A) (A) (A) (A) (A) (A) (A)
                 (A) (A) (A) (A) (A) (A) (A) (A) (A) (A) (A) (A)
                 (A) (A) (A) (A) (A) (A) (A) (A)
       Virtual   (A) (A) (A) (A) (A) (A) (A) (A) (A) (A) (A) (A)
                 (A) (A) (A) (A) (A) (A) (A) (A) (A) (A) (A) (A)
                 (A) (A) (A) (A) (A) (A) (A) (A) (A) (A) (A) (A)
                 (A) (A) (A) (A) (A) (A) (A) (A) (A) (A) (A) (A)
                 (A) (A) (A) (A) (A) (A) (A) (A) (A) (A) (A) (A)
                 (A) (A) (A) (A) (A) (A) (A) (A) (A) (A) (A) (A)
                 (A) (A) (A) (A) (A) (A) (A) (A) (A) (A) (A) (A)
                 (A) (A) (A) (A) (A) (A) (A) (A) (A) (A) (A) (A)
                 (A) (A) (A) (A) (A) (A) (A) (A) (A) (A) (A) (A)
                 (A) (A) (A) (A) (A) (A) (A) (A) (A) (A) (A) (A)
                 (A) (A) (A) (A) (A) (A) (A) (A) (A) (A) (A) (A)
                 (A) (A) (A) (A) (A) (A) (A) (A) (A) (A) (A) (A)
                 (A) (A) (A) (A) (A) (A) (A) (A) (A) (A) (A) (A)
                 (A) (A)
 The electronic state is 1-A.
 Alpha  occ. eigenvalues --  -14.31178 -14.29081 -10.20687 -10.20012 -10.17550
 Alpha  occ. eigenvalues --  -10.17295 -10.17041 -10.16778  -0.89280  -0.86329
 Alpha  occ. eigenvalues --   -0.78606  -0.72620  -0.70638  -0.60340  -0.59268
 Alpha  occ. eigenvalues --   -0.52614  -0.49468  -0.47655  -0.45443  -0.44282
 Alpha  occ. eigenvalues --   -0.43369  -0.41509  -0.38294  -0.37419  -0.36209
 Alpha  occ. eigenvalues --   -0.35337  -0.34593  -0.31751  -0.30382  -0.29785
 Alpha  occ. eigenvalues --   -0.23681  -0.21842
 Alpha virt. eigenvalues --    0.06975   0.11161   0.11610   0.13782   0.13946
 Alpha virt. eigenvalues --    0.14576   0.16281   0.17047   0.17231   0.18651
 Alpha virt. eigenvalues --    0.19192   0.19429   0.21343   0.21468   0.23389
 Alpha virt. eigenvalues --    0.24726   0.25405   0.26321   0.27510   0.29082
 Alpha virt. eigenvalues --    0.29959   0.31996   0.51211   0.53567   0.54561
 Alpha virt. eigenvalues --    0.55147   0.56767   0.57569   0.58077   0.63696
 Alpha virt. eigenvalues --    0.64169   0.66052   0.68127   0.70900   0.71543
 Alpha virt. eigenvalues --    0.72846   0.73906   0.74890   0.76309   0.79391
 Alpha virt. eigenvalues --    0.81881   0.83560   0.84922   0.85682   0.85703
 Alpha virt. eigenvalues --    0.87007   0.88001   0.88520   0.90437   0.92978
 Alpha virt. eigenvalues --    0.93305   0.94235   0.95466   0.97035   1.00010
 Alpha virt. eigenvalues --    1.00637   1.03101   1.05321   1.10953   1.13948
 Alpha virt. eigenvalues --    1.17068   1.22087   1.27670   1.29148   1.36985
 Alpha virt. eigenvalues --    1.40819   1.44484   1.49283   1.51488   1.52654
 Alpha virt. eigenvalues --    1.54692   1.59321   1.63486   1.70873   1.72225
 Alpha virt. eigenvalues --    1.74710   1.79067   1.80354   1.85103   1.87047
 Alpha virt. eigenvalues --    1.88342   1.89743   1.90800   1.92298   1.93815
 Alpha virt. eigenvalues --    1.97383   1.98115   2.01413   2.05875   2.09122
 Alpha virt. eigenvalues --    2.10828   2.13865   2.15757   2.16237   2.16913
 Alpha virt. eigenvalues --    2.17628   2.19027   2.22911   2.26138   2.28313
 Alpha virt. eigenvalues --    2.29511   2.30742   2.32852   2.33211   2.35252
 Alpha virt. eigenvalues --    2.36499   2.37597   2.39900   2.41280   2.42508
 Alpha virt. eigenvalues --    2.45484   2.47602   2.49690   2.52903   2.53821
 Alpha virt. eigenvalues --    2.58055   2.60651   2.62579   2.65726   2.67775
 Alpha virt. eigenvalues --    2.71679   2.75482   2.77082   2.77485   2.82448
 Alpha virt. eigenvalues --    2.85261   2.85684   2.88174   2.88982   2.91136
 Alpha virt. eigenvalues --    2.92568   2.93819   2.96878   2.97803   3.00507
 Alpha virt. eigenvalues --    3.05411   3.24514   3.28718   3.31231   3.33578
 Alpha virt. eigenvalues --    3.34522   3.35645   3.40386   3.43714   3.47858
 Alpha virt. eigenvalues --    3.49521   3.49957   3.51941   3.55856   3.58595
 Alpha virt. eigenvalues --    4.01889   4.11396   4.35528   4.48721   4.58316
 Alpha virt. eigenvalues --    4.73497   4.78472   4.83638
          Condensed to atoms (all electrons):
               1          2          3          4          5          6
     1  N    6.863650   0.324901  -0.050298  -0.001755  -0.022729  -0.000525
     2  C    0.324901   4.762768   0.371715  -0.027127  -0.000639  -0.018460
     3  C   -0.050298   0.371715   5.002447   0.370256  -0.052901  -0.035998
     4  C   -0.001755  -0.027127   0.370256   4.812331   0.271722   0.373028
     5  N   -0.022729  -0.000639  -0.052901   0.271722   6.843844  -0.062247
     6  C   -0.000525  -0.018460  -0.035998   0.373028  -0.062247   4.967397
     7  C   -0.003492  -0.035560  -0.023972  -0.036080  -0.004296   0.370731
     8  C   -0.076127   0.374228  -0.038477  -0.020170   0.000012  -0.043545
     9  H    0.323810  -0.038112  -0.013737  -0.001094   0.040623  -0.001511
    10  H    0.335880  -0.043265   0.006018   0.000355   0.000621  -0.000099
    11  H   -0.052167   0.387832  -0.040709   0.004910  -0.000219   0.000234
    12  H    0.004217  -0.033190   0.372157  -0.032436   0.004429  -0.003474
    13  H    0.001209  -0.035443   0.368311  -0.036625  -0.004743   0.005212
    14  H   -0.000268   0.005057  -0.050535   0.394741  -0.055017  -0.051760
    15  H    0.000369  -0.000005   0.006173  -0.028543   0.331262  -0.004314
    16  H    0.001455  -0.000536  -0.004885  -0.032246   0.330519   0.006744
    17  H    0.000030  -0.000843  -0.003648  -0.033626   0.004668   0.372769
    18  H   -0.000005   0.000227   0.005035  -0.032232  -0.005465   0.373545
    19  H    0.000070   0.004638   0.000266   0.004841   0.000030  -0.033193
    20  H    0.006989  -0.005976  -0.000731  -0.006353   0.007365  -0.039940
    21  H    0.006672  -0.031327  -0.003578  -0.000540   0.000035  -0.004797
    22  H   -0.006697  -0.032002   0.005047   0.000291  -0.000013   0.005003
               7          8          9         10         11         12
     1  N   -0.003492  -0.076127   0.323810   0.335880  -0.052167   0.004217
     2  C   -0.035560   0.374228  -0.038112  -0.043265   0.387832  -0.033190
     3  C   -0.023972  -0.038477  -0.013737   0.006018  -0.040709   0.372157
     4  C   -0.036080  -0.020170  -0.001094   0.000355   0.004910  -0.032436
     5  N   -0.004296   0.000012   0.040623   0.000621  -0.000219   0.004429
     6  C    0.370731  -0.043545  -0.001511  -0.000099   0.000234  -0.003474
     7  C    4.913508   0.368488   0.002367  -0.001091   0.005593  -0.000539
     8  C    0.368488   5.026935  -0.001130  -0.004719  -0.055897  -0.001712
     9  H    0.002367  -0.001130   0.455534  -0.028803   0.006255   0.000104
    10  H   -0.001091  -0.004719  -0.028803   0.495423  -0.001324  -0.000250
    11  H    0.005593  -0.055897   0.006255  -0.001324   0.683486  -0.005307
    12  H   -0.000539  -0.001712   0.000104  -0.000250  -0.005307   0.625924
    13  H    0.000007   0.006174  -0.000702  -0.000127  -0.004464  -0.031948
    14  H    0.005815   0.000081   0.000651   0.000017  -0.000183  -0.003703
    15  H   -0.000337  -0.000038  -0.000281  -0.000017   0.000010  -0.000239
    16  H    0.000009   0.000053  -0.003413  -0.000040  -0.000024  -0.000154
    17  H   -0.039110  -0.003887   0.000021   0.000001  -0.000074   0.003248
    18  H   -0.035095   0.004900  -0.000008  -0.000004   0.000013  -0.000036
    19  H    0.378065  -0.032080  -0.000055  -0.000038  -0.000169  -0.000037
    20  H    0.380345  -0.040821   0.001987   0.001436   0.000079   0.000076
    21  H   -0.037662   0.348793  -0.000190   0.000150  -0.001721   0.002580
    22  H   -0.035917   0.373245  -0.000193   0.006168  -0.003069  -0.000046
              13         14         15         16         17         18
     1  N    0.001209  -0.000268   0.000369   0.001455   0.000030  -0.000005
     2  C   -0.035443   0.005057  -0.000005  -0.000536  -0.000843   0.000227
     3  C    0.368311  -0.050535   0.006173  -0.004885  -0.003648   0.005035
     4  C   -0.036625   0.394741  -0.028543  -0.032246  -0.033626  -0.032232
     5  N   -0.004743  -0.055017   0.331262   0.330519   0.004668  -0.005465
     6  C    0.005212  -0.051760  -0.004314   0.006744   0.372769   0.373545
     7  C    0.000007   0.005815  -0.000337   0.000009  -0.039110  -0.035095
     8  C    0.006174   0.000081  -0.000038   0.000053  -0.003887   0.004900
     9  H   -0.000702   0.000651  -0.000281  -0.003413   0.000021  -0.000008
    10  H   -0.000127   0.000017  -0.000017  -0.000040   0.000001  -0.000004
    11  H   -0.004464  -0.000183   0.000010  -0.000024  -0.000074   0.000013
    12  H   -0.031948  -0.003703  -0.000239  -0.000154   0.003248  -0.000036
    13  H    0.639977  -0.004105  -0.000032   0.005613  -0.000046  -0.000178
    14  H   -0.004105   0.698361  -0.006174  -0.004271  -0.002058  -0.003681
    15  H   -0.000032  -0.006174   0.472052  -0.028589  -0.000198   0.004843
    16  H    0.005613  -0.004271  -0.028589   0.476056  -0.000268  -0.000031
    17  H   -0.000046  -0.002058  -0.000198  -0.000268   0.640432  -0.034997
    18  H   -0.000178  -0.003681   0.004843  -0.000031  -0.034997   0.642843
    19  H    0.000012  -0.000154  -0.000024   0.000006  -0.005834  -0.002727
    20  H   -0.000063   0.000148  -0.000049  -0.000257   0.006110  -0.004695
    21  H   -0.000204  -0.000050   0.000000  -0.000002   0.004694  -0.000032
    22  H   -0.000178   0.000013  -0.000001  -0.000001  -0.000038  -0.000195
              19         20         21         22
     1  N    0.000070   0.006989   0.006672  -0.006697
     2  C    0.004638  -0.005976  -0.031327  -0.032002
     3  C    0.000266  -0.000731  -0.003578   0.005047
     4  C    0.004841  -0.006353  -0.000540   0.000291
     5  N    0.000030   0.007365   0.000035  -0.000013
     6  C   -0.033193  -0.039940  -0.004797   0.005003
     7  C    0.378065   0.380345  -0.037662  -0.035917
     8  C   -0.032080  -0.040821   0.348793   0.373245
     9  H   -0.000055   0.001987  -0.000190  -0.000193
    10  H   -0.000038   0.001436   0.000150   0.006168
    11  H   -0.000169   0.000079  -0.001721  -0.003069
    12  H   -0.000037   0.000076   0.002580  -0.000046
    13  H    0.000012  -0.000063  -0.000204  -0.000178
    14  H   -0.000154   0.000148  -0.000050   0.000013
    15  H   -0.000024  -0.000049   0.000000  -0.000001
    16  H    0.000006  -0.000257  -0.000002  -0.000001
    17  H   -0.005834   0.006110   0.004694  -0.000038
    18  H   -0.002727  -0.004695  -0.000032  -0.000195
    19  H    0.645549  -0.038471  -0.006127  -0.002569
    20  H   -0.038471   0.637704   0.006952  -0.004970
    21  H   -0.006127   0.006952   0.671389  -0.035808
    22  H   -0.002569  -0.004970  -0.035808   0.647677
 Mulliken charges:
               1
     1  N   -0.655189
     2  C    0.071121
     3  C   -0.187957
     4  C    0.056353
     5  N   -0.626863
     6  C   -0.174803
     7  C   -0.171780
     8  C   -0.184305
     9  H    0.257875
    10  H    0.233707
    11  H    0.076913
    12  H    0.100336
    13  H    0.092343
    14  H    0.077074
    15  H    0.254131
    16  H    0.254260
    17  H    0.092653
    18  H    0.087974
    19  H    0.088000
    20  H    0.093134
    21  H    0.080772
    22  H    0.084250
 Sum of Mulliken charges =  -0.00000
 Mulliken charges with hydrogens summed into heavy atoms:
               1
     1  N   -0.163607
     2  C    0.148034
     3  C    0.004723
     4  C    0.133427
     5  N   -0.118472
     6  C    0.005823
     7  C    0.009354
     8  C   -0.019283
 APT charges:
               1
     1  N   -0.842372
     2  C   -0.471085
     3  C   -0.743576
     4  C   -0.423854
     5  N   -1.288545
     6  C   -0.780248
     7  C   -0.766601
     8  C   -0.768274
     9  H    0.244313
    10  H    0.536358
    11  H    0.456939
    12  H    0.391074
    13  H    0.401280
    14  H    0.441351
    15  H    0.651528
    16  H    0.569610
    17  H    0.380869
    18  H    0.439376
    19  H    0.494701
    20  H    0.284541
    21  H    0.355267
    22  H    0.437345
 Sum of APT charges =  -0.00000
 APT charges with hydrogens summed into heavy atoms:
               1
     1  N   -0.061700
     2  C   -0.014146
     3  C    0.048778
     4  C    0.017497
     5  N   -0.067407
     6  C    0.039998
     7  C    0.012641
     8  C    0.024338
 Electronic spatial extent (au):  <R**2>=            936.3656
 Charge=             -0.0000 electrons
 Dipole moment (field-independent basis, Debye):
    X=              2.2112    Y=              1.2779    Z=              0.4505  Tot=              2.5933
 Quadrupole moment (field-independent basis, Debye-Ang):
   XX=            -46.7027   YY=            -54.2246   ZZ=            -50.4562
   XY=             -5.0803   XZ=             -0.3676   YZ=             -0.9864
 Traceless Quadrupole moment (field-independent basis, Debye-Ang):
   XX=              3.7584   YY=             -3.7634   ZZ=              0.0050
   XY=             -5.0803   XZ=             -0.3676   YZ=             -0.9864
 Octapole moment (field-independent basis, Debye-Ang**2):
  XXX=             14.3772  YYY=              1.3117  ZZZ=             -3.8394  XYY=             14.3649
  XXY=             -1.9946  XXZ=             -8.9327  XZZ=             -1.4714  YZZ=             -1.2869
  YYZ=              1.5740  XYZ=              2.0725
 Hexadecapole moment (field-independent basis, Debye-Ang**3):
 XXXX=           -498.5039 YYYY=           -461.2956 ZZZZ=           -242.1156 XXXY=            -18.1121
 XXXZ=            -10.6772 YYYX=            -33.2845 YYYZ=             -1.8434 ZZZX=              3.6224
 ZZZY=              6.8090 XXYY=           -172.0309 XXZZ=           -120.2308 YYZZ=           -117.7686
 XXYZ=              1.9465 YYXZ=             -7.3739 ZZXY=              0.7275
 N-N= 4.241550028182D+02 E-N=-1.652207884331D+03  KE= 3.433188624148D+02
  Exact polarizability:   0.000   0.000   0.000   0.000   0.000   0.000
 Approx polarizability: 104.551  -0.377 102.160  -1.157   2.946 104.810
 D2PCM: PCM CHGder 2nd derivatives, FixD1E=F FixD2E=F DoIter=F DoCFld=F I1PDM=0
 Calling FoFJK, ICntrl=    100147 FMM=F ISym2X=0 I1Cent= 0 IOpClX= 0 NMat=1 NMatS=1 NMatT=0.
 ***** Axes restored to original set *****
 -------------------------------------------------------------------
 Center     Atomic                   Forces (Hartrees/Bohr)
 Number     Number              X              Y              Z
 -------------------------------------------------------------------
      1        7          -0.005419913    0.008979996   -0.013087325
      2        6           0.002595187   -0.005106657   -0.006044777
      3        6           0.000582891    0.001598131    0.003000224
      4        6          -0.005905253    0.000921798    0.001186109
      5        7           0.005686353    0.003801272   -0.009169428
      6        6          -0.001577132   -0.003289747    0.000388067
      7        6           0.000721553   -0.002582944   -0.001673457
      8        6          -0.000648355   -0.004730161    0.008809953
      9        1           0.004790942    0.000460678    0.003394847
     10        1           0.001576486   -0.000266945    0.001964967
     11        1           0.000059433    0.000294024    0.003168053
     12        1          -0.000743718   -0.000760111   -0.001281323
     13        1           0.000822517   -0.000523152   -0.001644689
     14        1          -0.001669759   -0.001137073    0.008701831
     15        1           0.001379018    0.000654009    0.000726200
     16        1          -0.001224604   -0.002524272   -0.000383682
     17        1          -0.000604694    0.001246323    0.000542946
     18        1          -0.001713357    0.001579033   -0.000120470
     19        1           0.000196447   -0.000476350   -0.000926191
     20        1          -0.000451947    0.000935575    0.000117031
     21        1          -0.000080861   -0.001269370    0.001885351
     22        1           0.001628769    0.002195941    0.000445762
 -------------------------------------------------------------------
 Cartesian Forces:  Max     0.013087325 RMS     0.003536512
 FormGI is forming the generalized inverse of G from B-inverse, IUseBI=4.

 GradGradGradGradGradGradGradGradGradGradGradGradGradGradGradGradGradGrad
 Berny optimization.
 Internal  Forces:  Max     0.009994925 RMS     0.002111276
 Search for a local minimum.
 Step number   1 out of a maximum of  132
 All quantities printed in internal units (Hartrees-Bohrs-Radians)
 Mixed Optimization -- RFO/linear search
 Second derivative matrix not updated -- analytic derivatives used.
 ITU=  0
     Eigenvalues ---    0.00284   0.00410   0.00482   0.00626   0.00710
     Eigenvalues ---    0.01722   0.01852   0.03376   0.03706   0.03836
     Eigenvalues ---    0.03881   0.03903   0.03943   0.04354   0.04432
     Eigenvalues ---    0.04657   0.04811   0.05064   0.05257   0.05789
     Eigenvalues ---    0.06331   0.07099   0.07138   0.07404   0.07462
     Eigenvalues ---    0.07980   0.08370   0.08674   0.10581   0.13382
     Eigenvalues ---    0.14687   0.14857   0.15655   0.16857   0.18500
     Eigenvalues ---    0.19779   0.20841   0.23442   0.24083   0.24457
     Eigenvalues ---    0.25903   0.27767   0.27890   0.30416   0.31347
     Eigenvalues ---    0.32123   0.32543   0.32631   0.32731   0.33019
     Eigenvalues ---    0.33242   0.33326   0.33399   0.33930   0.35941
     Eigenvalues ---    0.37348   0.40969   0.43467   0.43892   0.44331
 RFO step:  Lambda=-3.75969245D-03 EMin= 2.83781626D-03
 Linear search not attempted -- first point.
 Iteration  1 RMS(Cart)=  0.02936344 RMS(Int)=  0.00087697
 Iteration  2 RMS(Cart)=  0.00095433 RMS(Int)=  0.00009651
 Iteration  3 RMS(Cart)=  0.00000130 RMS(Int)=  0.00009650
 Iteration  4 RMS(Cart)=  0.00000000 RMS(Int)=  0.00009650
 Variable       Old X    -DE/DX   Delta X   Delta X   Delta X     New X
                                 (Linear)    (Quad)   (Total)
    R1        2.76974   0.00999   0.00000   0.01892   0.01892   2.78866
    R2        1.94414  -0.00586   0.00000  -0.01442  -0.01442   1.92972
    R3        1.92354   0.00068   0.00000   0.00297   0.00297   1.92651
    R4        2.90764   0.00140   0.00000   0.00526   0.00530   2.91294
    R5        2.90298   0.00597   0.00000   0.01730   0.01731   2.92029
    R6        2.07133   0.00223   0.00000   0.00634   0.00634   2.07767
    R7        2.90971  -0.00070   0.00000   0.00338   0.00345   2.91316
    R8        2.07618  -0.00102   0.00000  -0.00321  -0.00321   2.07297
    R9        2.07525  -0.00029   0.00000  -0.00131  -0.00131   2.07394
   R10        2.77467   0.00920   0.00000   0.01851   0.01851   2.79318
   R11        2.89873   0.00122   0.00000   0.00974   0.00973   2.90846
   R12        2.07224   0.00428   0.00000   0.01235   0.01235   2.08459
   R13        1.92755  -0.00169   0.00000  -0.00236  -0.00236   1.92519
   R14        1.93018  -0.00243   0.00000  -0.00512  -0.00512   1.92506
   R15        2.88944   0.00402   0.00000   0.01216   0.01213   2.90157
   R16        2.07471   0.00035   0.00000   0.00085   0.00085   2.07556
   R17        2.07317   0.00058   0.00000   0.00150   0.00150   2.07467
   R18        2.88837   0.00523   0.00000   0.01301   0.01295   2.90132
   R19        2.07155   0.00029   0.00000   0.00041   0.00041   2.07197
   R20        2.07155  -0.00010   0.00000  -0.00032  -0.00032   2.07123
   R21        2.07500   0.00213   0.00000   0.00337   0.00337   2.07837
   R22        2.07301   0.00051   0.00000   0.00181   0.00181   2.07482
    A1        1.87749   0.00092   0.00000  -0.00136  -0.00136   1.87613
    A2        1.92293  -0.00293   0.00000  -0.01994  -0.01994   1.90298
    A3        1.84653   0.00097   0.00000   0.01576   0.01576   1.86229
    A4        1.92618  -0.00228   0.00000  -0.00635  -0.00658   1.91960
    A5        1.94670   0.00609   0.00000   0.04920   0.04926   1.99596
    A6        1.86897  -0.00063   0.00000  -0.00207  -0.00214   1.86683
    A7        1.93036  -0.00183   0.00000  -0.00876  -0.00908   1.92127
    A8        1.89769  -0.00021   0.00000  -0.02006  -0.02031   1.87738
    A9        1.89197  -0.00123   0.00000  -0.01362  -0.01401   1.87796
   A10        1.99189   0.00206   0.00000   0.00568   0.00576   1.99765
   A11        1.88673   0.00035   0.00000   0.00464   0.00462   1.89136
   A12        1.92365  -0.00162   0.00000  -0.01136  -0.01137   1.91229
   A13        1.88650  -0.00183   0.00000  -0.00871  -0.00872   1.87778
   A14        1.92339  -0.00005   0.00000  -0.00451  -0.00458   1.91881
   A15        1.84508   0.00103   0.00000   0.01542   0.01545   1.86053
   A16        1.94488  -0.00292   0.00000  -0.01936  -0.01934   1.92554
   A17        1.93063   0.00058   0.00000   0.00074   0.00061   1.93124
   A18        1.89280  -0.00059   0.00000  -0.01554  -0.01555   1.87725
   A19        1.91732   0.00093   0.00000  -0.00346  -0.00363   1.91369
   A20        1.87787   0.00403   0.00000   0.05734   0.05749   1.93536
   A21        1.89886  -0.00196   0.00000  -0.01849  -0.01875   1.88011
   A22        1.90886  -0.00018   0.00000  -0.00358  -0.00358   1.90528
   A23        1.90266   0.00074   0.00000   0.00044   0.00043   1.90310
   A24        1.85225  -0.00066   0.00000  -0.00738  -0.00740   1.84485
   A25        1.96913  -0.00040   0.00000   0.00016   0.00013   1.96926
   A26        1.89793  -0.00058   0.00000  -0.01137  -0.01138   1.88655
   A27        1.92882  -0.00144   0.00000  -0.01701  -0.01700   1.91182
   A28        1.89851   0.00030   0.00000   0.00827   0.00826   1.90677
   A29        1.91168   0.00210   0.00000   0.01764   0.01763   1.92931
   A30        1.85390   0.00003   0.00000   0.00258   0.00230   1.85619
   A31        1.94419   0.00014   0.00000  -0.00482  -0.00501   1.93918
   A32        1.90771   0.00014   0.00000   0.00718   0.00722   1.91493
   A33        1.92226  -0.00043   0.00000  -0.00848  -0.00851   1.91375
   A34        1.90787   0.00025   0.00000   0.01046   0.01050   1.91837
   A35        1.92087  -0.00010   0.00000  -0.00574  -0.00579   1.91509
   A36        1.85889   0.00000   0.00000   0.00199   0.00201   1.86090
   A37        1.97763  -0.00171   0.00000  -0.01234  -0.01237   1.96525
   A38        1.89424   0.00185   0.00000   0.00544   0.00552   1.89976
   A39        1.92806  -0.00205   0.00000  -0.02073  -0.02065   1.90741
   A40        1.89555   0.00012   0.00000   0.00884   0.00879   1.90434
   A41        1.91177   0.00227   0.00000   0.01579   0.01559   1.92736
   A42        1.85197  -0.00036   0.00000   0.00449   0.00436   1.85633
    D1       -0.81517  -0.00135   0.00000  -0.09510  -0.09521  -0.91038
    D2        1.33795  -0.00104   0.00000  -0.07626  -0.07624   1.26172
    D3       -2.87795   0.00052   0.00000  -0.06635  -0.06625  -2.94420
    D4       -2.82008  -0.00148   0.00000  -0.10268  -0.10279  -2.92288
    D5       -0.66696  -0.00117   0.00000  -0.08384  -0.08382  -0.75078
    D6        1.40032   0.00039   0.00000  -0.07393  -0.07384   1.32648
    D7        1.26372   0.00305   0.00000   0.03887   0.03872   1.30244
    D8       -2.92007   0.00230   0.00000   0.03474   0.03464  -2.88543
    D9       -0.91136   0.00285   0.00000   0.04966   0.04952  -0.86184
   D10       -0.89887  -0.00185   0.00000  -0.01337  -0.01331  -0.91217
   D11        1.20053  -0.00261   0.00000  -0.01750  -0.01739   1.18314
   D12       -3.07395  -0.00205   0.00000  -0.00258  -0.00251  -3.07645
   D13       -2.97437   0.00087   0.00000   0.02087   0.02083  -2.95354
   D14       -0.87498   0.00011   0.00000   0.01674   0.01675  -0.85823
   D15        1.13373   0.00067   0.00000   0.03166   0.03163   1.16536
   D16       -1.24523   0.00098   0.00000   0.00738   0.00719  -1.23804
   D17        2.93097   0.00064   0.00000   0.00035   0.00025   2.93122
   D18        0.90734   0.00114   0.00000   0.00330   0.00328   0.91062
   D19        0.90552   0.00105   0.00000   0.02775   0.02764   0.93317
   D20       -1.20147   0.00071   0.00000   0.02071   0.02070  -1.18076
   D21        3.05809   0.00121   0.00000   0.02366   0.02374   3.08183
   D22        2.98449  -0.00104   0.00000  -0.01030  -0.01032   2.97417
   D23        0.87750  -0.00138   0.00000  -0.01733  -0.01726   0.86024
   D24       -1.14613  -0.00088   0.00000  -0.01438  -0.01422  -1.16035
   D25       -1.22693   0.00151   0.00000   0.01059   0.01057  -1.21636
   D26        0.91136   0.00108   0.00000  -0.00680  -0.00682   0.90453
   D27        2.99244  -0.00133   0.00000  -0.03856  -0.03858   2.95386
   D28        2.95673   0.00105   0.00000   0.00725   0.00724   2.96396
   D29       -1.18817   0.00062   0.00000  -0.01014  -0.01016  -1.19833
   D30        0.89291  -0.00179   0.00000  -0.04190  -0.04191   0.85100
   D31        0.94829   0.00088   0.00000  -0.00385  -0.00385   0.94444
   D32        3.08658   0.00045   0.00000  -0.02124  -0.02125   3.06533
   D33       -1.11553  -0.00197   0.00000  -0.05299  -0.05300  -1.16853
   D34       -3.01046  -0.00039   0.00000  -0.04313  -0.04299  -3.05345
   D35       -0.99233  -0.00087   0.00000  -0.05368  -0.05353  -1.04586
   D36        1.12680   0.00021   0.00000  -0.02839  -0.02834   1.09846
   D37       -3.13826  -0.00027   0.00000  -0.03894  -0.03888   3.10605
   D38       -0.93770  -0.00029   0.00000  -0.03760  -0.03780  -0.97550
   D39        1.08043  -0.00077   0.00000  -0.04815  -0.04834   1.03209
   D40       -0.92534   0.00126   0.00000   0.01225   0.01230  -0.91305
   D41        1.18247   0.00098   0.00000   0.01493   0.01494   1.19741
   D42       -3.07220  -0.00013   0.00000   0.00184   0.00195  -3.07025
   D43        1.22895  -0.00141   0.00000  -0.01417  -0.01413   1.21482
   D44       -2.94642  -0.00168   0.00000  -0.01148  -0.01148  -2.95791
   D45       -0.91790  -0.00279   0.00000  -0.02458  -0.02448  -0.94238
   D46       -3.00276   0.00284   0.00000   0.04228   0.04215  -2.96061
   D47       -0.89495   0.00256   0.00000   0.04496   0.04479  -0.85015
   D48        1.13357   0.00145   0.00000   0.03187   0.03180   1.16537
   D49        0.94657  -0.00025   0.00000   0.00837   0.00838   0.95495
   D50        3.05672   0.00024   0.00000   0.02315   0.02314   3.07986
   D51       -1.18992   0.00008   0.00000   0.02489   0.02487  -1.16505
   D52       -1.16091   0.00053   0.00000   0.01690   0.01696  -1.14395
   D53        0.94924   0.00102   0.00000   0.03168   0.03172   0.98097
   D54        2.98579   0.00086   0.00000   0.03341   0.03345   3.01924
   D55        3.10294  -0.00083   0.00000  -0.00046  -0.00050   3.10244
   D56       -1.07009  -0.00034   0.00000   0.01432   0.01427  -1.05582
   D57        0.96646  -0.00050   0.00000   0.01605   0.01599   0.98245
   D58       -0.93825  -0.00112   0.00000  -0.02783  -0.02786  -0.96612
   D59        1.16800   0.00020   0.00000  -0.02273  -0.02280   1.14520
   D60       -3.09975   0.00106   0.00000  -0.00393  -0.00384  -3.10359
   D61       -3.04831  -0.00155   0.00000  -0.04069  -0.04071  -3.08903
   D62       -0.94206  -0.00024   0.00000  -0.03559  -0.03565  -0.97771
   D63        1.07337   0.00063   0.00000  -0.01679  -0.01669   1.05668
   D64        1.19903  -0.00164   0.00000  -0.04591  -0.04593   1.15310
   D65       -2.97790  -0.00033   0.00000  -0.04081  -0.04087  -3.01877
   D66       -0.96247   0.00054   0.00000  -0.02201  -0.02191  -0.98438
         Item               Value     Threshold  Converged?
 Maximum Force            0.009995     0.000450     NO 
 RMS     Force            0.002111     0.000300     NO 
 Maximum Displacement     0.169877     0.001800     NO 
 RMS     Displacement     0.029516     0.001200     NO 
 Predicted change in Energy=-2.070374D-03
 GradGradGradGradGradGradGradGradGradGradGradGradGradGradGradGradGradGrad

                          Input orientation:                          
 ---------------------------------------------------------------------
 Center     Atomic      Atomic             Coordinates (Angstroms)
 Number     Number       Type             X           Y           Z
 ---------------------------------------------------------------------
      1          7           0        1.686757    1.075301   -0.831585
      2          6           0        1.250749    0.601186    0.496118
      3          6           0       -0.145112    1.166377    0.825102
      4          6           0       -1.302279    0.494998    0.059154
      5          7           0       -1.245929    0.853635   -1.373658
      6          6           0       -1.239124   -1.035136    0.212452
      7          6           0        0.135811   -1.614029   -0.150895
      8          6           0        1.252037   -0.935855    0.656134
      9          1           0        0.939854    0.861643   -1.494355
     10          1           0        2.501741    0.537896   -1.125373
     11          1           0        1.957051    1.012558    1.231451
     12          1           0       -0.331241    1.025501    1.896946
     13          1           0       -0.155180    2.248888    0.644736
     14          1           0       -2.246445    0.839357    0.513947
     15          1           0       -2.063062    0.470882   -1.846611
     16          1           0       -1.322430    1.865225   -1.466280
     17          1           0       -1.471966   -1.283189    1.256772
     18          1           0       -2.025533   -1.498079   -0.397925
     19          1           0        0.143421   -2.694399    0.035961
     20          1           0        0.320566   -1.479944   -1.222905
     21          1           0        1.127385   -1.182364    1.720703
     22          1           0        2.232929   -1.330453    0.360113
 ---------------------------------------------------------------------
                    Distance matrix (angstroms):
                    1          2          3          4          5
     1  N    0.000000
     2  C    1.475698   0.000000
     3  C    2.471568   1.541459   0.000000
     4  C    3.172460   2.592327   1.541578   0.000000
     5  N    2.990590   3.129408   2.478740   1.478089   0.000000
     6  C    3.755628   2.992905   2.533547   1.539090   2.466424
     7  C    3.178249   2.562984   2.960092   2.561291   3.081188
     8  C    2.539102   1.545349   2.529814   2.988019   3.682685
     9  H    1.021165   2.031373   2.578739   2.752267   2.189127
    10  H    1.019467   2.048956   3.347412   3.984408   3.769133
    11  H    2.081613   1.099456   2.146594   3.502196   4.131698
    12  H    3.394065   2.155239   1.096969   2.145187   3.400447
    13  H    2.636202   2.171092   1.097480   2.175976   2.685214
    14  H    4.163677   3.505339   2.149270   1.103118   2.136419
    15  H    3.931506   4.060381   3.361591   2.052148   1.018769
    16  H    3.175221   3.474198   2.669251   2.050580   1.018698
    17  H    4.461081   3.397446   2.819088   2.150588   3.396509
    18  H    4.537780   3.992524   3.482973   2.168956   2.662780
    19  H    4.164753   3.506965   3.951150   3.501833   4.062741
    20  H    2.923849   2.855064   3.378492   2.859667   2.814645
    21  H    3.453133   2.166998   2.817434   3.387854   4.399202
    22  H    2.739727   2.171269   3.479289   3.990055   4.458549
                    6          7          8          9         10
     6  C    0.000000
     7  C    1.535443   0.000000
     8  C    2.532310   1.535310   0.000000
     9  H    3.355429   2.929218   2.820118   0.000000
    10  H    4.272970   3.343353   2.628207   1.637208   0.000000
    11  H    3.930260   3.482348   2.150429   2.913328   2.465078
    12  H    2.812116   3.373264   2.809502   3.625390   4.171086
    13  H    3.485199   3.954722   3.481807   2.774753   3.622155
    14  H    2.149260   3.483714   3.925681   3.766467   5.032247
    15  H    2.680802   3.472368   4.385490   3.048652   4.621915
    16  H    3.352189   3.995236   4.356441   2.475054   4.062303
    17  H    1.098339   2.162390   2.810979   4.240976   4.978083
    18  H    1.097868   2.178503   3.488496   3.945119   5.017029
    19  H    2.166964   1.096437   2.169360   3.952418   4.166306
    20  H    2.165811   1.096047   2.166671   2.437260   2.972998
    21  H    2.810136   2.161581   1.099823   3.814411   3.598375
    22  H    3.487717   2.177027   1.097945   3.149029   2.402012
                   11         12         13         14         15
    11  H    0.000000
    12  H    2.383135   0.000000
    13  H    2.516797   1.759461   0.000000
    14  H    4.267808   2.369671   2.525326   0.000000
    15  H    5.092070   4.161853   3.606678   2.396171   0.000000
    16  H    4.331257   3.605396   2.442552   2.414023   1.624001
    17  H    4.126651   2.653512   3.818910   2.378405   3.613466
    18  H    4.981880   3.808610   4.315683   2.518714   2.444771
    19  H    4.296508   4.186434   4.989574   4.292710   4.293209
    20  H    3.861931   4.054082   4.197452   3.871093   3.142676
    21  H    2.396955   2.652041   3.817874   4.114164   5.063388
    22  H    2.514963   3.806224   4.312280   4.979612   5.154607
                   16         17         18         19         20
    16  H    0.000000
    17  H    4.165319   0.000000
    18  H    3.598270   1.758020   0.000000
    19  H    5.019524   2.468069   2.514716   0.000000
    20  H    3.734813   3.066053   2.486986   1.758132   0.000000
    21  H    5.044428   2.642352   3.811712   2.468358   3.066650
    22  H    5.117485   3.812148   4.328651   2.516241   2.487052
                   21         22
    21  H    0.000000
    22  H    1.759364   0.000000
 Stoichiometry    C6H14N2
 Framework group  C1[X(C6H14N2)]
 Deg. of freedom    60
 Full point group                 C1      NOp   1
 Largest Abelian subgroup         C1      NOp   1
 Largest concise Abelian subgroup C1      NOp   1
                         Standard orientation:                         
 ---------------------------------------------------------------------
 Center     Atomic      Atomic             Coordinates (Angstroms)
 Number     Number       Type             X           Y           Z
 ---------------------------------------------------------------------
      1          7           0       -1.442290   -1.309610   -0.736336
      2          6           0       -1.284134   -0.437063    0.443211
      3          6           0        0.031740   -0.771355    1.173157
      4          6           0        1.302328   -0.263887    0.462844
      5          7           0        1.534605   -1.027310   -0.781334
      6          6           0        1.179056    1.234814    0.134977
      7          6           0       -0.109863    1.573801   -0.627493
      8          6           0       -1.348204    1.075006    0.130725
      9          1           0       -0.584748   -1.240551   -1.286455
     10          1           0       -2.194938   -0.946265   -1.320130
     11          1           0       -2.112002   -0.670357    1.128054
     12          1           0        0.001759   -0.310519    2.168180
     13          1           0        0.099078   -1.855260    1.331516
     14          1           0        2.146196   -0.386221    1.162695
     15          1           0        2.420422   -0.736286   -1.191852
     16          1           0        1.648467   -2.012869   -0.550135
     17          1           0        1.198060    1.793476    1.080432
     18          1           0        2.059976    1.559902   -0.433892
     19          1           0       -0.176015    2.657746   -0.778686
     20          1           0       -0.078641    1.119500   -1.624466
     21          1           0       -1.439205    1.629651    1.076081
     22          1           0       -2.260156    1.288594   -0.442169
 ---------------------------------------------------------------------
 Rotational constants (GHZ):           2.4832780           2.1050471           1.5917948
 Standard basis: 6-31G(d,p) (6D, 7F)
 There are   190 symmetry adapted cartesian basis functions of A   symmetry.
 There are   190 symmetry adapted basis functions of A   symmetry.
   190 basis functions,   322 primitive gaussians,   190 cartesian basis functions
    32 alpha electrons       32 beta electrons
       nuclear repulsion energy       422.6074621190 Hartrees.
 NAtoms=   22 NActive=   22 NUniq=   22 SFac= 1.00D+00 NAtFMM=   60 NAOKFM=F Big=F
 Integral buffers will be    131072 words long.
 Raffenetti 2 integral format.
 Two-electron integral symmetry is turned on.
 ------------------------------------------------------------------------------
 Polarizable Continuum Model (PCM)
 =================================
 Model                : PCM.
 Atomic radii         : UFF (Universal Force Field).
 Polarization charges : Total charges.
 Charge compensation  : None.
 Solution method      : Matrix inversion.
 Cavity type          : Scaled VdW (van der Waals Surface) (Alpha=1.100).
 Cavity algorithm     : GePol (No added spheres)
                        Default sphere list used, NSphG=   22.
                        Lebedev-Laikov grids with approx.  5.0 points / Ang**2.
                        Smoothing algorithm: York/Karplus (Gamma=1.0000).
                        Polarization charges: spherical gaussians, with
                                              point-specific exponents (IZeta= 3).
                        Self-potential: point-specific (ISelfS= 7).
                        Self-field    : sphere-specific E.n sum rule (ISelfD= 2).
 1st derivatives      : Analytical E(r).r(x)/FMM algorithm (CHGder, D1EAlg=3).
                        Cavity 1st derivative terms included.
 Solvent              : Water, Eps=  78.355300 Eps(inf)=   1.777849
 ------------------------------------------------------------------------------
 One-electron integrals computed using PRISM.
 NBasis=   190 RedAO= T EigKep=  3.17D-03  NBF=   190
 NBsUse=   190 1.00D-06 EigRej= -1.00D+00 NBFU=   190
 Initial guess from the checkpoint file:  "GEQHKFFSPGPGLN-OLQVQODUSA-N_conf_0_0.chk"
 B after Tr=     0.000000    0.000000   -0.000000
         Rot=    0.999703    0.007941   -0.002542    0.022889 Ang=   2.79 deg.
 ExpMin= 1.61D-01 ExpMax= 4.17D+03 ExpMxC= 6.27D+02 IAcc=2 IRadAn=         4 AccDes= 0.00D+00
 Harris functional with IExCor=  402 and IRadAn=       4 diagonalized for initial guess.
 HarFok:  IExCor=  402 AccDes= 0.00D+00 IRadAn=         4 IDoV= 1 UseB2=F ITyADJ=14
 ICtDFT=  3500011 ScaDFX=  1.000000  1.000000  1.000000  1.000000
 FoFCou: FMM=F IPFlag=           0 FMFlag=      100000 FMFlg1=           0
         NFxFlg=           0 DoJE=T BraDBF=F KetDBF=T FulRan=T
         wScrn=  0.000000 ICntrl=       500 IOpCl=  0 I1Cent=   200000004 NGrid=           0
         NMat0=    1 NMatS0=      1 NMatT0=    0 NMatD0=    1 NMtDS0=    0 NMtDT0=    0
 Petite list used in FoFCou.
 Keep R1 ints in memory in canonical form, NReq=168114806.
 Requested convergence on RMS density matrix=1.00D-08 within  32 cycles.
 Requested convergence on MAX density matrix=1.00D-06.
 Requested convergence on             energy=1.00D-06.
 No special actions if energy rises.
 Inv3:  Mode=1 IEnd=     6290112.
 Iteration    1 A*A^-1 deviation from unit magnitude is 3.89D-15 for    542.
 Iteration    1 A*A^-1 deviation from orthogonality  is 1.38D-15 for   1007     43.
 Iteration    1 A^-1*A deviation from unit magnitude is 3.89D-15 for    542.
 Iteration    1 A^-1*A deviation from orthogonality  is 1.43D-14 for   1424   1418.
 Error on total polarization charges =  0.00864
 SCF Done:  E(RB3LYP) =  -346.599937447     A.U. after    9 cycles
            NFock=  9  Conv=0.53D-08     -V/T= 2.0098
 QCSCF skips out because SCF is already converged.
 D1PCM: PCM CHGder 1st derivatives, ID1Alg=3 FixD1E=F DoIter=F DoCFld=F I1PDM=0.
 Calling FoFJK, ICntrl=      2127 FMM=F ISym2X=0 I1Cent= 0 IOpClX= 0 NMat=1 NMatS=1 NMatT=0.
 ***** Axes restored to original set *****
 -------------------------------------------------------------------
 Center     Atomic                   Forces (Hartrees/Bohr)
 Number     Number              X              Y              Z
 -------------------------------------------------------------------
      1        7          -0.000376777    0.000678551   -0.000543865
      2        6           0.000119876   -0.000410184   -0.000492622
      3        6           0.000201475    0.000181975    0.000515739
      4        6          -0.000684287    0.000091406   -0.000064792
      5        7           0.000546115    0.000316426   -0.000464659
      6        6          -0.000082909   -0.000317871   -0.000003721
      7        6           0.000026814   -0.000265396    0.000118223
      8        6          -0.000161453   -0.000475327    0.000456436
      9        1           0.000296747   -0.000305856   -0.000228866
     10        1           0.000234143    0.000359675    0.000218049
     11        1           0.000043156   -0.000249782    0.000156503
     12        1          -0.000040815    0.000102761    0.000029433
     13        1           0.000076118   -0.000072734   -0.000308894
     14        1           0.000168097   -0.000051881    0.000714488
     15        1           0.000114178   -0.000147741   -0.000054321
     16        1          -0.000333457   -0.000008484   -0.000068738
     17        1          -0.000026283    0.000162400    0.000042451
     18        1          -0.000060959    0.000008010    0.000033263
     19        1           0.000068800   -0.000049747   -0.000294469
     20        1          -0.000067197    0.000285197    0.000042402
     21        1          -0.000117431    0.000142845    0.000083228
     22        1           0.000056048    0.000025755    0.000114731
 -------------------------------------------------------------------
 Cartesian Forces:  Max     0.000714488 RMS     0.000276733

 GradGradGradGradGradGradGradGradGradGradGradGradGradGradGradGradGradGrad
 Berny optimization.
 Using GEDIIS/GDIIS optimizer.
 FormGI is forming the generalized inverse of G from B-inverse, IUseBI=4.
 Internal  Forces:  Max     0.000776463 RMS     0.000164493
 Search for a local minimum.
 Step number   2 out of a maximum of  132
 All quantities printed in internal units (Hartrees-Bohrs-Radians)
 Mixed Optimization -- En-DIIS/RFO-DIIS
 Update second derivatives using D2CorX and points    1    2
 DE= -2.10D-03 DEPred=-2.07D-03 R= 1.01D+00
 TightC=F SS=  1.41D+00  RLast= 3.18D-01 DXNew= 5.0454D-01 9.5508D-01
 Trust test= 1.01D+00 RLast= 3.18D-01 DXMaxT set to 5.05D-01
 ITU=  1  0
 Use linear search instead of GDIIS.
     Eigenvalues ---    0.00284   0.00410   0.00482   0.00629   0.00711
     Eigenvalues ---    0.01721   0.01855   0.03376   0.03705   0.03837
     Eigenvalues ---    0.03878   0.03903   0.03941   0.04348   0.04422
     Eigenvalues ---    0.04661   0.04811   0.05066   0.05265   0.05765
     Eigenvalues ---    0.06312   0.07097   0.07134   0.07403   0.07461
     Eigenvalues ---    0.07978   0.08368   0.08678   0.10581   0.13370
     Eigenvalues ---    0.14682   0.14853   0.15662   0.16834   0.18496
     Eigenvalues ---    0.19772   0.20806   0.23439   0.24071   0.24418
     Eigenvalues ---    0.25830   0.27763   0.27880   0.30415   0.31352
     Eigenvalues ---    0.32094   0.32539   0.32632   0.32731   0.33018
     Eigenvalues ---    0.33235   0.33322   0.33397   0.33931   0.35808
     Eigenvalues ---    0.36765   0.41031   0.43480   0.43892   0.44335
 RFO step:  Lambda=-1.21688917D-04 EMin= 2.84039126D-03
 Quartic linear search produced a step of  0.14475.
 Iteration  1 RMS(Cart)=  0.01726116 RMS(Int)=  0.00031727
 Iteration  2 RMS(Cart)=  0.00032071 RMS(Int)=  0.00001708
 Iteration  3 RMS(Cart)=  0.00000011 RMS(Int)=  0.00001707
 Variable       Old X    -DE/DX   Delta X   Delta X   Delta X     New X
                                 (Linear)    (Quad)   (Total)
    R1        2.78866   0.00078   0.00274  -0.00308  -0.00034   2.78832
    R2        1.92972  -0.00001  -0.00209   0.00182  -0.00026   1.92946
    R3        1.92651  -0.00006   0.00043  -0.00042   0.00001   1.92652
    R4        2.91294   0.00013   0.00077  -0.00023   0.00055   2.91348
    R5        2.92029   0.00041   0.00251  -0.00024   0.00228   2.92256
    R6        2.07767   0.00004   0.00092  -0.00105  -0.00013   2.07754
    R7        2.91316   0.00002   0.00050   0.00102   0.00154   2.91470
    R8        2.07297   0.00002  -0.00046   0.00046  -0.00000   2.07297
    R9        2.07394  -0.00002  -0.00019  -0.00008  -0.00028   2.07366
   R10        2.79318   0.00063   0.00268  -0.00206   0.00062   2.79380
   R11        2.90846   0.00014   0.00141  -0.00058   0.00082   2.90928
   R12        2.08459   0.00013   0.00179  -0.00124   0.00054   2.08514
   R13        1.92519  -0.00001  -0.00034   0.00050   0.00016   1.92536
   R14        1.92506   0.00002  -0.00074   0.00060  -0.00014   1.92492
   R15        2.90157   0.00016   0.00176  -0.00200  -0.00026   2.90131
   R16        2.07556   0.00001   0.00012  -0.00014  -0.00001   2.07555
   R17        2.07467   0.00002   0.00022  -0.00009   0.00012   2.07479
   R18        2.90132   0.00022   0.00187  -0.00257  -0.00071   2.90060
   R19        2.07197  -0.00000   0.00006  -0.00016  -0.00010   2.07187
   R20        2.07123  -0.00002  -0.00005   0.00013   0.00008   2.07131
   R21        2.07837   0.00006   0.00049  -0.00029   0.00020   2.07856
   R22        2.07482   0.00001   0.00026  -0.00033  -0.00007   2.07474
    A1        1.87613   0.00036  -0.00020   0.00288   0.00268   1.87882
    A2        1.90298  -0.00002  -0.00289   0.00298   0.00009   1.90307
    A3        1.86229  -0.00009   0.00228   0.00359   0.00586   1.86815
    A4        1.91960  -0.00006  -0.00095  -0.00236  -0.00336   1.91623
    A5        1.99596   0.00046   0.00713   0.00144   0.00858   2.00455
    A6        1.86683  -0.00013  -0.00031  -0.00259  -0.00290   1.86392
    A7        1.92127  -0.00016  -0.00131   0.00203   0.00067   1.92194
    A8        1.87738  -0.00006  -0.00294   0.00321   0.00023   1.87761
    A9        1.87796  -0.00008  -0.00203  -0.00169  -0.00377   1.87419
   A10        1.99765   0.00011   0.00083  -0.00087  -0.00004   1.99761
   A11        1.89136   0.00003   0.00067   0.00270   0.00337   1.89472
   A12        1.91229  -0.00011  -0.00165  -0.00210  -0.00374   1.90854
   A13        1.87778  -0.00010  -0.00126   0.00215   0.00089   1.87867
   A14        1.91881   0.00000  -0.00066  -0.00172  -0.00240   1.91641
   A15        1.86053   0.00007   0.00224   0.00007   0.00232   1.86285
   A16        1.92554  -0.00010  -0.00280   0.00077  -0.00203   1.92351
   A17        1.93124  -0.00000   0.00009   0.00088   0.00094   1.93218
   A18        1.87725  -0.00009  -0.00225  -0.00044  -0.00269   1.87455
   A19        1.91369   0.00001  -0.00053  -0.00211  -0.00267   1.91102
   A20        1.93536   0.00029   0.00832  -0.00166   0.00669   1.94204
   A21        1.88011  -0.00010  -0.00271   0.00264  -0.00010   1.88001
   A22        1.90528   0.00002  -0.00052  -0.00017  -0.00069   1.90459
   A23        1.90310   0.00006   0.00006   0.00133   0.00140   1.90449
   A24        1.84485  -0.00007  -0.00107   0.00119   0.00011   1.84497
   A25        1.96926   0.00003   0.00002  -0.00400  -0.00401   1.96525
   A26        1.88655  -0.00006  -0.00165   0.00166   0.00002   1.88657
   A27        1.91182  -0.00008  -0.00246   0.00256   0.00011   1.91193
   A28        1.90677   0.00000   0.00120   0.00050   0.00170   1.90847
   A29        1.92931   0.00009   0.00255  -0.00072   0.00183   1.93114
   A30        1.85619   0.00001   0.00033   0.00030   0.00058   1.85677
   A31        1.93918  -0.00004  -0.00073  -0.00297  -0.00376   1.93542
   A32        1.91493   0.00002   0.00105   0.00294   0.00400   1.91893
   A33        1.91375  -0.00002  -0.00123  -0.00130  -0.00254   1.91121
   A34        1.91837   0.00005   0.00152   0.00197   0.00352   1.92189
   A35        1.91509  -0.00001  -0.00084  -0.00045  -0.00131   1.91378
   A36        1.86090  -0.00001   0.00029  -0.00006   0.00024   1.86114
   A37        1.96525  -0.00005  -0.00179   0.00145  -0.00036   1.96489
   A38        1.89976   0.00003   0.00080  -0.00396  -0.00314   1.89662
   A39        1.90741  -0.00011  -0.00299   0.00326   0.00028   1.90769
   A40        1.90434   0.00002   0.00127  -0.00167  -0.00040   1.90393
   A41        1.92736   0.00011   0.00226   0.00031   0.00255   1.92990
   A42        1.85633   0.00001   0.00063   0.00045   0.00106   1.85740
    D1       -0.91038  -0.00033  -0.01378  -0.04001  -0.05380  -0.96418
    D2        1.26172  -0.00024  -0.01104  -0.03811  -0.04914   1.21257
    D3       -2.94420  -0.00016  -0.00959  -0.04114  -0.05072  -2.99492
[...]
    14  H    0.023305   0.844799   0.040989   0.043073   0.027793   0.022577
    15  H    0.005300   0.040989   0.774949   0.128780   0.004634   0.043278
    16  H    0.048711   0.043073   0.128780   0.819500   0.001191   0.005193
    17  H    0.002281   0.027793   0.004634   0.001191   0.781559   0.023083
    18  H    0.000541   0.022577   0.043278   0.005193   0.023083   0.784746
    19  H    0.000109   0.000463   0.000862   0.000129   0.015028   0.015965
    20  H    0.000744   0.001742   0.009118   0.002638   0.012786   0.012361
    21  H    0.002332   0.001185   0.000123   0.000128   0.023817   0.002010
    22  H    0.000588   0.000141   0.000102   0.000108   0.002249   0.000470
              19         20         21         22
     1  N   -0.000897  -0.014066  -0.000895  -0.033886
     2  C    0.004367  -0.004502  -0.064992  -0.057641
     3  C    0.001432   0.002933  -0.008239   0.006172
     4  C    0.002613  -0.009745  -0.006689  -0.000378
     5  N   -0.000372  -0.000207   0.000044  -0.000087
     6  C   -0.069414  -0.056289  -0.014636   0.004000
     7  C    0.273476   0.280038  -0.051171  -0.068687
     8  C   -0.073739  -0.059988   0.204852   0.169398
     9  H    0.000845   0.016940   0.001442   0.006252
    10  H    0.000969   0.010891   0.004411   0.045251
    11  H    0.000477   0.001492   0.022582   0.024632
    12  H    0.000869   0.001270   0.026369   0.002880
    13  H    0.000109   0.000744   0.002332   0.000588
    14  H    0.000463   0.001742   0.001185   0.000141
    15  H    0.000862   0.009118   0.000123   0.000102
    16  H    0.000129   0.002638   0.000128   0.000108
    17  H    0.015028   0.012786   0.023817   0.002249
    18  H    0.015965   0.012361   0.002010   0.000470
    19  H    0.733423  -0.000488   0.015195   0.017306
    20  H   -0.000488   0.700952   0.012154   0.014263
    21  H    0.015195   0.012154   0.721737   0.029244
    22  H    0.017306   0.014263   0.029244   0.789028
 Mulliken charges:
               1
     1  N   -0.340638
     2  C    0.031874
     3  C   -0.133428
     4  C    0.073836
     5  N   -0.439961
     6  C   -0.131824
     7  C   -0.150712
     8  C   -0.142955
     9  H    0.273680
    10  H    0.198351
    11  H    0.092373
    12  H    0.027627
    13  H    0.038826
    14  H    0.030415
    15  H    0.130043
    16  H    0.114537
    17  H    0.039332
    18  H    0.034681
    19  H    0.061380
    20  H    0.064965
    21  H    0.078997
    22  H    0.048599
 Sum of Mulliken charges =  -0.00000
 Mulliken charges with hydrogens summed into heavy atoms:
               1
     1  N    0.131393
     2  C    0.124247
     3  C   -0.066974
     4  C    0.104252
     5  N   -0.195380
     6  C   -0.057811
     7  C   -0.024367
     8  C   -0.015360
 Electronic spatial extent (au):  <R**2>=            951.8839
 Charge=             -0.0000 electrons
 Dipole moment (field-independent basis, Debye):
    X=             -2.1007    Y=             -0.9136    Z=             -1.0646  Tot=              2.5261
 Quadrupole moment (field-independent basis, Debye-Ang):
   XX=            -51.8373   YY=            -55.7514   ZZ=            -53.9958
   XY=              0.5351   XZ=              1.2971   YZ=              1.3049
 Traceless Quadrupole moment (field-independent basis, Debye-Ang):
   XX=              2.0242   YY=             -1.8899   ZZ=             -0.1343
   XY=              0.5351   XZ=              1.2971   YZ=              1.3049
 Octapole moment (field-independent basis, Debye-Ang**2):
  XXX=             -8.8173  YYY=             -4.9041  ZZZ=             -9.0984  XYY=             -1.2505
  XXY=             -6.0967  XXZ=             -5.4415  XZZ=             -5.4556  YZZ=             -3.9713
  YYZ=             -2.8290  XYZ=             -1.6967
 Hexadecapole moment (field-independent basis, Debye-Ang**3):
 XXXX=           -585.2147 YYYY=           -495.8946 ZZZZ=           -272.5822 XXXY=              5.7196
 XXXZ=              1.0553 YYYX=             -2.3019 YYYZ=              6.5167 ZZZX=              4.9289
 ZZZY=              8.5287 XXYY=           -181.4687 XXZZ=           -137.0617 YYZZ=           -126.1208
 XXYZ=              6.9385 YYXZ=             -0.6264 ZZXY=              4.6158
 N-N= 4.224320901470D+02 E-N=-1.647044095581D+03  KE= 3.433816250752D+02
 Evaluate density.
 Using the total density.
 Monte-Carlo method of calculating molar volume:
 based on  0.001 e/bohr**3 density envelope.
 Number of points per bohr**3 =   20 CutOff= 1.00D-04
 Using the CI density.
 There are       345 points.  Will hold       345 in memory.
 LenV=   805203148 MDV=   805306368.
 Box volume = 5155.053 fraction occupied=0.243
 Integrated density= 5.2716847571850479D+01 error=-1.1283152428149521D+01
 Molar volume = 1255.143 bohr**3/mol (112.008 cm**3/mol)
 Recommended a0 for SCRF calculation =  4.40 angstrom (  8.31 bohr)
 ******************************Gaussian NBO Version 3.1******************************
             N A T U R A L   A T O M I C   O R B I T A L   A N D
          N A T U R A L   B O N D   O R B I T A L   A N A L Y S I S
 ******************************Gaussian NBO Version 3.1******************************
       /RESON  / : Allow strongly delocalized NBO set

 Analyzing the CI density

 Job title: GEQHKFFSPGPGLN-OLQVQODUSA-N_conf_0                              

 Storage needed:    109964 in NPA ( 805303728 available)
 GSVD:  LWork=       19180 too small for GESVD, short by       13850 words or       13850 for optimal perf.


 NATURAL POPULATIONS:  Natural atomic orbital occupancies 
                                                          
   NAO  Atom  No  lang   Type(AO)    Occupancy
 --------------------------------------------
     1    N    1  S      Cor( 1S)     1.99944
     2    N    1  S      Val( 2S)     1.44863
     3    N    1  S      Ryd( 3S)     0.00198
     4    N    1  S      Ryd( 4S)     0.00005
     5    N    1  px     Val( 2p)     1.40904
     6    N    1  px     Ryd( 3p)     0.00101
     7    N    1  py     Val( 2p)     1.30883
     8    N    1  py     Ryd( 3p)     0.00154
     9    N    1  pz     Val( 2p)     1.32962
    10    N    1  pz     Ryd( 3p)     0.00220
    11    N    1  dxy    Ryd( 3d)     0.00064
    12    N    1  dxz    Ryd( 3d)     0.00092
    13    N    1  dyz    Ryd( 3d)     0.00086
    14    N    1  dx2y2  Ryd( 3d)     0.00053
    15    N    1  dz2    Ryd( 3d)     0.00028

    16    C    2  S      Cor( 1S)     1.99917
    17    C    2  S      Val( 2S)     0.97699
    18    C    2  S      Ryd( 3S)     0.00141
    19    C    2  S      Ryd( 4S)     0.00004
    20    C    2  px     Val( 2p)     1.15532
    21    C    2  px     Ryd( 3p)     0.00443
    22    C    2  py     Val( 2p)     0.97448
    23    C    2  py     Ryd( 3p)     0.00355
    24    C    2  pz     Val( 2p)     0.98130
    25    C    2  pz     Ryd( 3p)     0.00350
    26    C    2  dxy    Ryd( 3d)     0.00066
    27    C    2  dxz    Ryd( 3d)     0.00108
    28    C    2  dyz    Ryd( 3d)     0.00132
    29    C    2  dx2y2  Ryd( 3d)     0.00102
    30    C    2  dz2    Ryd( 3d)     0.00080

    31    C    3  S      Cor( 1S)     1.99924
    32    C    3  S      Val( 2S)     1.04015
    33    C    3  S      Ryd( 3S)     0.00130
    34    C    3  S      Ryd( 4S)     0.00003
    35    C    3  px     Val( 2p)     1.01467
    36    C    3  px     Ryd( 3p)     0.00216
    37    C    3  py     Val( 2p)     1.23551
    38    C    3  py     Ryd( 3p)     0.00464
    39    C    3  pz     Val( 2p)     1.18646
    40    C    3  pz     Ryd( 3p)     0.00368
    41    C    3  dxy    Ryd( 3d)     0.00030
    42    C    3  dxz    Ryd( 3d)     0.00061
    43    C    3  dyz    Ryd( 3d)     0.00048
    44    C    3  dx2y2  Ryd( 3d)     0.00098
    45    C    3  dz2    Ryd( 3d)     0.00065

    46    C    4  S      Cor( 1S)     1.99922
    47    C    4  S      Val( 2S)     0.96539
    48    C    4  S      Ryd( 3S)     0.00191
    49    C    4  S      Ryd( 4S)     0.00005
    50    C    4  px     Val( 2p)     1.11969
    51    C    4  px     Ryd( 3p)     0.00436
    52    C    4  py     Val( 2p)     0.99722
    53    C    4  py     Ryd( 3p)     0.00229
    54    C    4  pz     Val( 2p)     0.97625
    55    C    4  pz     Ryd( 3p)     0.00478
    56    C    4  dxy    Ryd( 3d)     0.00062
    57    C    4  dxz    Ryd( 3d)     0.00123
    58    C    4  dyz    Ryd( 3d)     0.00116
    59    C    4  dx2y2  Ryd( 3d)     0.00095
    60    C    4  dz2    Ryd( 3d)     0.00103

    61    N    5  S      Cor( 1S)     1.99951
    62    N    5  S      Val( 2S)     1.47433
    63    N    5  S      Ryd( 3S)     0.00419
    64    N    5  S      Ryd( 4S)     0.00018
    65    N    5  px     Val( 2p)     1.52021
    66    N    5  px     Ryd( 3p)     0.00385
    67    N    5  py     Val( 2p)     1.37326
    68    N    5  py     Ryd( 3p)     0.00207
    69    N    5  pz     Val( 2p)     1.41741
    70    N    5  pz     Ryd( 3p)     0.00254
    71    N    5  dxy    Ryd( 3d)     0.00039
    72    N    5  dxz    Ryd( 3d)     0.00077
    73    N    5  dyz    Ryd( 3d)     0.00062
    74    N    5  dx2y2  Ryd( 3d)     0.00091
    75    N    5  dz2    Ryd( 3d)     0.00085

    76    C    6  S      Cor( 1S)     1.99928
    77    C    6  S      Val( 2S)     1.04235
    78    C    6  S      Ryd( 3S)     0.00094
    79    C    6  S      Ryd( 4S)     0.00003
    80    C    6  px     Val( 2p)     1.14425
    81    C    6  px     Ryd( 3p)     0.00320
    82    C    6  py     Val( 2p)     1.07983
    83    C    6  py     Ryd( 3p)     0.00241
    84    C    6  pz     Val( 2p)     1.19911
    85    C    6  pz     Ryd( 3p)     0.00385
    86    C    6  dxy    Ryd( 3d)     0.00040
    87    C    6  dxz    Ryd( 3d)     0.00069
    88    C    6  dyz    Ryd( 3d)     0.00068
    89    C    6  dx2y2  Ryd( 3d)     0.00077
    90    C    6  dz2    Ryd( 3d)     0.00057

    91    C    7  S      Cor( 1S)     1.99932
    92    C    7  S      Val( 2S)     1.03923
    93    C    7  S      Ryd( 3S)     0.00068
    94    C    7  S      Ryd( 4S)     0.00003
    95    C    7  px     Val( 2p)     1.01923
    96    C    7  px     Ryd( 3p)     0.00186
    97    C    7  py     Val( 2p)     1.22896
    98    C    7  py     Ryd( 3p)     0.00494
    99    C    7  pz     Val( 2p)     1.17149
   100    C    7  pz     Ryd( 3p)     0.00191
   101    C    7  dxy    Ryd( 3d)     0.00033
   102    C    7  dxz    Ryd( 3d)     0.00059
   103    C    7  dyz    Ryd( 3d)     0.00053
   104    C    7  dx2y2  Ryd( 3d)     0.00096
   105    C    7  dz2    Ryd( 3d)     0.00071

   106    C    8  S      Cor( 1S)     1.99924
   107    C    8  S      Val( 2S)     1.05363
   108    C    8  S      Ryd( 3S)     0.00076
   109    C    8  S      Ryd( 4S)     0.00004
   110    C    8  px     Val( 2p)     1.16441
   111    C    8  px     Ryd( 3p)     0.00314
   112    C    8  py     Val( 2p)     1.01789
   113    C    8  py     Ryd( 3p)     0.00204
   114    C    8  pz     Val( 2p)     1.21766
   115    C    8  pz     Ryd( 3p)     0.00284
   116    C    8  dxy    Ryd( 3d)     0.00037
   117    C    8  dxz    Ryd( 3d)     0.00072
   118    C    8  dyz    Ryd( 3d)     0.00056
   119    C    8  dx2y2  Ryd( 3d)     0.00089
   120    C    8  dz2    Ryd( 3d)     0.00060

   121    H    9  S      Val( 1S)     0.59642
   122    H    9  S      Ryd( 2S)     0.01417
   123    H    9  px     Ryd( 2p)     0.00062
   124    H    9  py     Ryd( 2p)     0.00034
   125    H    9  pz     Ryd( 2p)     0.00035

   126    H   10  S      Val( 1S)     0.63347
   127    H   10  S      Ryd( 2S)     0.04075
   128    H   10  px     Ryd( 2p)     0.00045
   129    H   10  py     Ryd( 2p)     0.00036
   130    H   10  pz     Ryd( 2p)     0.00036

   131    H   11  S      Val( 1S)     0.73673
   132    H   11  S      Ryd( 2S)     0.02138
   133    H   11  px     Ryd( 2p)     0.00025
   134    H   11  py     Ryd( 2p)     0.00011
   135    H   11  pz     Ryd( 2p)     0.00023

   136    H   12  S      Val( 1S)     0.78766
   137    H   12  S      Ryd( 2S)     0.02466
   138    H   12  px     Ryd( 2p)     0.00009
   139    H   12  py     Ryd( 2p)     0.00012
   140    H   12  pz     Ryd( 2p)     0.00032

   141    H   13  S      Val( 1S)     0.77209
   142    H   13  S      Ryd( 2S)     0.02265
   143    H   13  px     Ryd( 2p)     0.00009
   144    H   13  py     Ryd( 2p)     0.00034
   145    H   13  pz     Ryd( 2p)     0.00009

   146    H   14  S      Val( 1S)     0.77939
   147    H   14  S      Ryd( 2S)     0.02508
   148    H   14  px     Ryd( 2p)     0.00028
   149    H   14  py     Ryd( 2p)     0.00011
   150    H   14  pz     Ryd( 2p)     0.00022

   151    H   15  S      Val( 1S)     0.65718
   152    H   15  S      Ryd( 2S)     0.04221
   153    H   15  px     Ryd( 2p)     0.00067
   154    H   15  py     Ryd( 2p)     0.00029
   155    H   15  pz     Ryd( 2p)     0.00032

   156    H   16  S      Val( 1S)     0.66540
   157    H   16  S      Ryd( 2S)     0.04711
   158    H   16  px     Ryd( 2p)     0.00034
   159    H   16  py     Ryd( 2p)     0.00057
   160    H   16  pz     Ryd( 2p)     0.00035

   161    H   17  S      Val( 1S)     0.78213
   162    H   17  S      Ryd( 2S)     0.01758
   163    H   17  px     Ryd( 2p)     0.00010
   164    H   17  py     Ryd( 2p)     0.00017
   165    H   17  pz     Ryd( 2p)     0.00028

   166    H   18  S      Val( 1S)     0.77973
   167    H   18  S      Ryd( 2S)     0.01774
   168    H   18  px     Ryd( 2p)     0.00027
   169    H   18  py     Ryd( 2p)     0.00012
   170    H   18  pz     Ryd( 2p)     0.00015

   171    H   19  S      Val( 1S)     0.76989
   172    H   19  S      Ryd( 2S)     0.01042
   173    H   19  px     Ryd( 2p)     0.00009
   174    H   19  py     Ryd( 2p)     0.00035
   175    H   19  pz     Ryd( 2p)     0.00009

   176    H   20  S      Val( 1S)     0.77319
   177    H   20  S      Ryd( 2S)     0.01259
   178    H   20  px     Ryd( 2p)     0.00010
   179    H   20  py     Ryd( 2p)     0.00015
   180    H   20  pz     Ryd( 2p)     0.00031

   181    H   21  S      Val( 1S)     0.75341
   182    H   21  S      Ryd( 2S)     0.01793
   183    H   21  px     Ryd( 2p)     0.00010
   184    H   21  py     Ryd( 2p)     0.00017
   185    H   21  pz     Ryd( 2p)     0.00027

   186    H   22  S      Val( 1S)     0.77519
   187    H   22  S      Ryd( 2S)     0.02064
   188    H   22  px     Ryd( 2p)     0.00027
   189    H   22  py     Ryd( 2p)     0.00011
   190    H   22  pz     Ryd( 2p)     0.00015


 Summary of Natural Population Analysis:                  
                                                          
                                       Natural Population 
                Natural  -----------------------------------------------
    Atom  No    Charge         Core      Valence    Rydberg      Total
 -----------------------------------------------------------------------
      N    1   -0.50558      1.99944     5.49613    0.01001     7.50558
      C    2   -0.10508      1.99917     4.08809    0.01781     6.10508
      C    3   -0.49087      1.99924     4.47680    0.01483     6.49087
      C    4   -0.07615      1.99922     4.05856    0.01837     6.07615
      N    5   -0.80108      1.99951     5.78520    0.01637     7.80108
      C    6   -0.47835      1.99928     4.46553    0.01354     6.47835
      C    7   -0.47076      1.99932     4.45891    0.01253     6.47076
      C    8   -0.46480      1.99924     4.45359    0.01197     6.46480
      H    9    0.38809      0.00000     0.59642    0.01549     0.61191
      H   10    0.32460      0.00000     0.63347    0.04193     0.67540
      H   11    0.24130      0.00000     0.73673    0.02197     0.75870
      H   12    0.18716      0.00000     0.78766    0.02518     0.81284
      H   13    0.20474      0.00000     0.77209    0.02317     0.79526
      H   14    0.19492      0.00000     0.77939    0.02569     0.80508
      H   15    0.29933      0.00000     0.65718    0.04349     0.70067
      H   16    0.28623      0.00000     0.66540    0.04838     0.71377
      H   17    0.19974      0.00000     0.78213    0.01812     0.80026
      H   18    0.20199      0.00000     0.77973    0.01828     0.79801
      H   19    0.21916      0.00000     0.76989    0.01095     0.78084
      H   20    0.21365      0.00000     0.77319    0.01316     0.78635
      H   21    0.22811      0.00000     0.75341    0.01848     0.77189
      H   22    0.20364      0.00000     0.77519    0.02118     0.79636
 =======================================================================
   * Total *    0.00000     15.99442    47.54470    0.46088    64.00000

                                 Natural Population      
 --------------------------------------------------------
   Core                      15.99442 ( 99.9651% of  16)
   Valence                   47.54470 ( 99.0515% of  48)
   Natural Minimal Basis     63.53912 ( 99.2799% of  64)
   Natural Rydberg Basis      0.46088 (  0.7201% of  64)
 --------------------------------------------------------

    Atom  No          Natural Electron Configuration
 ----------------------------------------------------------------------------
      N    1      [core]2S( 1.45)2p( 4.05)
      C    2      [core]2S( 0.98)2p( 3.11)3p( 0.01)
      C    3      [core]2S( 1.04)2p( 3.44)3p( 0.01)
      C    4      [core]2S( 0.97)2p( 3.09)3p( 0.01)
      N    5      [core]2S( 1.47)2p( 4.31)3p( 0.01)
      C    6      [core]2S( 1.04)2p( 3.42)3p( 0.01)
      C    7      [core]2S( 1.04)2p( 3.42)3p( 0.01)
      C    8      [core]2S( 1.05)2p( 3.40)3p( 0.01)
      H    9            1S( 0.60)2S( 0.01)
      H   10            1S( 0.63)2S( 0.04)
      H   11            1S( 0.74)2S( 0.02)
      H   12            1S( 0.79)2S( 0.02)
      H   13            1S( 0.77)2S( 0.02)
      H   14            1S( 0.78)2S( 0.03)
      H   15            1S( 0.66)2S( 0.04)
      H   16            1S( 0.67)2S( 0.05)
      H   17            1S( 0.78)2S( 0.02)
      H   18            1S( 0.78)2S( 0.02)
      H   19            1S( 0.77)2S( 0.01)
      H   20            1S( 0.77)2S( 0.01)
      H   21            1S( 0.75)2S( 0.02)
      H   22            1S( 0.78)2S( 0.02)


 NBO analysis skipped by request.
 1\1\GINC-DRG2-W002\SP\RB3LYP TD-FC\6-31G(d,p)\C6H14N2\QDUEZ\17-Jul-202
 4\0\\# TD(NStates=10, Root=1) B3LYP/6-31G** SCRF=(Solvent=water) volum
 e pop=NPA density=current Geom=AllCheck Guess=Read\\GEQHKFFSPGPGLN-OLQ
 VQODUSA-N_conf_0\\0,1\N,0,1.6925851943,1.0828952437,-0.8280224682\C,0,
 1.2511634077,0.5975762287,0.4939351404\C,0,-0.1428504549,1.1680321644,
 0.8235196093\C,0,-1.3044918315,0.4958291414,0.0635005005\N,0,-1.248423
 5384,0.8493322157,-1.3711430446\C,0,-1.2434616437,-1.0345777922,0.2191
 085897\C,0,0.1283333289,-1.6121942682,-0.1576181429\C,0,1.246351577,-0
 .9408431526,0.652061044\H,0,0.9683016743,0.8413271251,-1.5055541908\H,
 0,2.5357716482,0.5799129501,-1.1022794516\H,0,1.9578735997,1.001711306
 3,1.2328055229\H,0,-0.3280826676,1.0378474724,1.8969019017\H,0,-0.1486
 324013,2.2482641723,0.6308013265\H,0,-2.2449373384,0.8426173311,0.5248
 305857\H,0,-2.0519830001,0.4415765568,-1.8466510987\H,0,-1.3525707444,
 1.8577860738,-1.470324188\H,0,-1.4662676814,-1.2797473404,1.2662953477
 \H,0,-2.0369235231,-1.4967745202,-0.3827561399\H,0,0.1376453773,-2.695
 2514281,0.0125486622\H,0,0.3073333331,-1.4614251347,-1.2284053394\H,0,
 1.1162942875,-1.1850568024,1.7165946572\H,0,2.2269713968,-1.3388375432
 ,0.3598511761\\Version=ES64L-G16RevA.03\State=1-A\HF=-346.6000242\RMSD
 =4.213e-09\Dipole=0.906598,0.217743,-0.3440776\Quadrupole=1.8454951,-1
 .8427903,-0.0027048,0.1695781,-0.7523907,-0.3980423\PG=C01 [X(C6H14N2)
 ]\\@


 THE REASON MAN'S BEST FRIEND IS A DOG IS BECAUSE
 HE WAGS HIS TAIL INSTEAD OF HIS TONGUE.
 Job cpu time:       0 days  0 hours 21 minutes 28.6 seconds.
 Elapsed time:       0 days  0 hours  7 minutes 14.3 seconds.
 File lengths (MBytes):  RWF=    341 Int=      0 D2E=      0 Chk=     22 Scr=      1
 Normal termination of Gaussian 16 at Wed Jul 17 18:30:32 2024.
