 Entering Gaussian System, Link 0=g16
 Initial command:
 /opt/sw/arch/manual/gaussian/G16_A03/g16/l1.exe "/scratch/1380926/Gau-135564.inp" -scrdir="/scratch/1380926/"
 Entering Link 1 = /opt/sw/arch/manual/gaussian/G16_A03/g16/l1.exe PID=    135565.
  
 Copyright (c) 1988,1990,1992,1993,1995,1998,2003,2009,2016,
            Gaussian, Inc.  All Rights Reserved.
  
 This is part of the Gaussian(R) 16 program.  It is based on
 the Gaussian(R) 09 system (copyright 2009, Gaussian, Inc.),
 the Gaussian(R) 03 system (copyright 2003, Gaussian, Inc.),
 the Gaussian(R) 98 system (copyright 1998, Gaussian, Inc.),
 the Gaussian(R) 94 system (copyright 1995, Gaussian, Inc.),
 the Gaussian 92(TM) system (copyright 1992, Gaussian, Inc.),
 the Gaussian 90(TM) system (copyright 1990, Gaussian, Inc.),
 the Gaussian 88(TM) system (copyright 1988, Gaussian, Inc.),
 the Gaussian 86(TM) system (copyright 1986, Carnegie Mellon
 University), and the Gaussian 82(TM) system (copyright 1983,
 Carnegie Mellon University). Gaussian is a federally registered
 trademark of Gaussian, Inc.
  
 This software contains proprietary and confidential information,
 including trade secrets, belonging to Gaussian, Inc.
  
 This software is provided under written license and may be
 used, copied, transmitted, or stored only in accord with that
 written license.
  
 The following legend is applicable only to US Government
 contracts under FAR:
  
                    RESTRICTED RIGHTS LEGEND
  
 Use, reproduction and disclosure by the US Government is
 subject to restrictions as set forth in subparagraphs (a)
 and (c) of the Commercial Computer Software - Restricted
 Rights clause in FAR 52.227-19.
  
 Gaussian, Inc.
 340 Quinnipiac St., Bldg. 40, Wallingford CT 06492
  
  
 ---------------------------------------------------------------
 Warning -- This program may not be used in any manner that
 competes with the business of Gaussian, Inc. or will provide
 assistance to any competitor of Gaussian, Inc.  The licensee
 of this program is prohibited from giving any competitor of
 Gaussian, Inc. access to this program.  By using this program,
 the user acknowledges that Gaussian, Inc. is engaged in the
 business of creating and licensing software in the field of
 computational chemistry and represents and warrants to the
 licensee that it is not a competitor of Gaussian, Inc. and that
 it will not use this program in any manner prohibited above.
 ---------------------------------------------------------------
  

 Cite this work as:
 Gaussian 16, Revision A.03,
 M. J. Frisch, G. W. Trucks, H. B. Schlegel, G. E. Scuseria, 
 M. A. Robb, J. R. Cheeseman, G. Scalmani, V. Barone, 
 G. A. Petersson, H. Nakatsuji, X. Li, M. Caricato, A. V. Marenich, 
 J. Bloino, B. G. Janesko, R. Gomperts, B. Mennucci, H. P. Hratchian, 
 J. V. Ortiz, A. F. Izmaylov, J. L. Sonnenberg, D. Williams-Young, 
 F. Ding, F. Lipparini, F. Egidi, J. Goings, B. Peng, A. Petrone, 
 T. Henderson, D. Ranasinghe, V. G. Zakrzewski, J. Gao, N. Rega, 
 G. Zheng, W. Liang, M. Hada, M. Ehara, K. Toyota, R. Fukuda, 
 J. Hasegawa, M. Ishida, T. Nakajima, Y. Honda, O. Kitao, H. Nakai, 
 T. Vreven, K. Throssell, J. A. Montgomery, Jr., J. E. Peralta, 
 F. Ogliaro, M. J. Bearpark, J. J. Heyd, E. N. Brothers, K. N. Kudin, 
 V. N. Staroverov, T. A. Keith, R. Kobayashi, J. Normand, 
 K. Raghavachari, A. P. Rendell, J. C. Burant, S. S. Iyengar, 
 J. Tomasi, M. Cossi, J. M. Millam, M. Klene, C. Adamo, R. Cammi, 
 J. W. Ochterski, R. L. Martin, K. Morokuma, O. Farkas, 
 J. B. Foresman, and D. J. Fox, Gaussian, Inc., Wallingford CT, 2016.
 
 ******************************************
 Gaussian 16:  ES64L-G16RevA.03 25-Dec-2016
                18-Jul-2024 
 ******************************************
 %nprocshared=8
 Will use up to    8 processors via shared memory.
 %mem=16GB
 %Chk=LALHUWOVOZGIAW-WGKKAQPQSA-N_conf_4_0.chk
 -------------------------------------------------------
 # opt=CalcFc B3LYP/6-31G** SCRF=(Solvent=water) scf=xqc
 -------------------------------------------------------
 1/10=4,18=20,19=15,26=3,38=1/1,3;
 2/9=110,12=2,17=6,18=5,40=1/2;
 3/5=1,6=6,7=101,11=2,25=1,30=1,70=2201,71=2,72=1,74=-5,140=1/1,2,3;
 4//1;
 5/5=2,8=3,13=1,38=5,53=1/2,8;
 8/6=4,10=90,11=11/1;
 11/6=1,8=1,9=11,15=111,16=1/1,2,10;
 10/6=1,13=1/2;
 6/7=2,8=2,9=2,10=2,28=1/1;
 7/10=1,18=20,25=1/1,2,3,16;
 1/10=4,18=20,19=15,26=3/3(2);
 2/9=110/2;
 99//99;
 2/9=110/2;
 3/5=1,6=6,7=101,11=2,25=1,30=1,70=2205,71=1,72=1,74=-5/1,2,3;
 4/5=5,16=3,69=1/1;
 5/5=2,8=3,13=1,38=5,53=1/2,8;
 7//1,2,3,16;
 1/18=20,19=15,26=3/3(-5);
 2/9=110/2;
 6/7=2,8=2,9=2,10=2,19=2,28=1/1;
 99/9=1/99;
 ----------------------------------
 LALHUWOVOZGIAW-WGKKAQPQSA-N_conf_4
 ----------------------------------
 Symbolic Z-matrix:
 Charge =  0 Multiplicity = 1
 N                    -6.0449    2.56268  -0.20818 
 C                    -4.843     1.84795  -0.25306 
 C                    -4.59458   0.9474   -1.28602 
 C                    -3.44796   0.14035  -1.2818 
 C                    -2.5323    0.17765  -0.21937 
 C                    -1.26291  -0.69125  -0.17948 
 C                    -1.28867  -1.61571   1.07203 
 C                     0.00059   0.21685  -0.09848 
 C                     1.31661  -0.6093    0.01649 
 C                     2.52009   0.33816   0.16447 
 C                     2.59936   1.22002   1.25811 
 C                     3.68093   2.09511   1.41906 
 C                     4.69932   2.15111   0.47188 
 N                     5.83315   2.94005   0.6942 
 C                     4.66698   1.24163  -0.5824 
 C                     3.58612   0.36381  -0.74741 
 C                     1.21149  -1.53628   1.26197 
 C                    -0.01009  -2.46475   1.16351 
 C                     0.11264  -3.34285  -0.0847 
 C                     0.17913  -2.45558  -1.33099 
 C                     1.39772  -1.52836  -1.23646 
 C                    -1.09582  -1.60757  -1.4259 
 C                    -2.83122   1.04748   0.84555 
 C                    -3.97775   1.85178   0.83723 
 H                    -6.00362   3.39242   0.37484 
 H                    -6.43909   2.75422  -1.12362 
 H                    -5.29259   0.86178  -2.11463 
 H                    -3.3082   -0.52242  -2.13075 
 H                    -2.16744  -2.27368   1.03501 
 H                    -1.3836   -1.03066   1.99524 
 H                     0.04706   0.86904  -0.98282 
 H                    -0.08618   0.89283   0.76097 
 H                     1.8205    1.2342    2.01704 
 H                     3.71379   2.7349    2.29664 
 H                     6.34811   3.16046  -0.15217 
 H                     5.65207   3.76274   1.26032 
 H                     5.48605   1.20421  -1.29576 
 H                     3.61818  -0.30238  -1.60454 
 H                     1.12889  -0.95084   2.18611 
 H                     2.12554  -2.13729   1.36116 
 H                    -0.05756  -3.10128   2.05452 
 H                    -0.74442  -4.02411  -0.15203 
 H                     1.01131  -3.96833  -0.01864 
 H                     0.26696  -3.08536  -2.22375 
 H                     2.30654  -2.14396  -1.20253 
 H                     1.45536  -0.92443  -2.1519 
 H                    -1.95868  -2.27947  -1.52657 
 H                    -1.05265  -1.0041   -2.34243 
 H                    -2.17829   1.10714   1.71326 
 H                    -4.183     2.48399   1.69673 
 

 GradGradGradGradGradGradGradGradGradGradGradGradGradGradGradGradGradGrad
 Berny optimization.
 Initialization pass.
                           ----------------------------
                           !    Initial Parameters    !
                           ! (Angstroms and Degrees)  !
 --------------------------                            --------------------------
 ! Name  Definition              Value          Derivative Info.                !
 --------------------------------------------------------------------------------
 ! R1    R(1,2)                  1.3991         calculate D2E/DX2 analytically  !
 ! R2    R(1,25)                 1.0149         calculate D2E/DX2 analytically  !
 ! R3    R(1,26)                 1.0149         calculate D2E/DX2 analytically  !
 ! R4    R(2,3)                  1.3927         calculate D2E/DX2 analytically  !
 ! R5    R(2,24)                 1.3919         calculate D2E/DX2 analytically  !
 ! R6    R(3,4)                  1.4022         calculate D2E/DX2 analytically  !
 ! R7    R(3,27)                 1.0868         calculate D2E/DX2 analytically  !
 ! R8    R(4,5)                  1.4031         calculate D2E/DX2 analytically  !
 ! R9    R(4,28)                 1.0861         calculate D2E/DX2 analytically  !
 ! R10   R(5,6)                  1.5388         calculate D2E/DX2 analytically  !
 ! R11   R(5,23)                 1.4071         calculate D2E/DX2 analytically  !
 ! R12   R(6,7)                  1.5561         calculate D2E/DX2 analytically  !
 ! R13   R(6,8)                  1.5581         calculate D2E/DX2 analytically  !
 ! R14   R(6,22)                 1.556          calculate D2E/DX2 analytically  !
 ! R15   R(7,18)                 1.5375         calculate D2E/DX2 analytically  !
 ! R16   R(7,29)                 1.0984         calculate D2E/DX2 analytically  !
 ! R17   R(7,30)                 1.0971         calculate D2E/DX2 analytically  !
 ! R18   R(8,9)                  1.5581         calculate D2E/DX2 analytically  !
 ! R19   R(8,31)                 1.0998         calculate D2E/DX2 analytically  !
 ! R20   R(8,32)                 1.0969         calculate D2E/DX2 analytically  !
 ! R21   R(9,10)                 1.5388         calculate D2E/DX2 analytically  !
 ! R22   R(9,17)                 1.5561         calculate D2E/DX2 analytically  !
 ! R23   R(9,21)                 1.556          calculate D2E/DX2 analytically  !
 ! R24   R(10,11)                1.4071         calculate D2E/DX2 analytically  !
 ! R25   R(10,16)                1.4031         calculate D2E/DX2 analytically  !
 ! R26   R(11,12)                1.4005         calculate D2E/DX2 analytically  !
 ! R27   R(11,33)                1.0876         calculate D2E/DX2 analytically  !
 ! R28   R(12,13)                1.3919         calculate D2E/DX2 analytically  !
 ! R29   R(12,34)                1.0865         calculate D2E/DX2 analytically  !
 ! R30   R(13,14)                1.3991         calculate D2E/DX2 analytically  !
 ! R31   R(13,15)                1.3927         calculate D2E/DX2 analytically  !
 ! R32   R(14,35)                1.0149         calculate D2E/DX2 analytically  !
 ! R33   R(14,36)                1.0149         calculate D2E/DX2 analytically  !
 ! R34   R(15,16)                1.4022         calculate D2E/DX2 analytically  !
 ! R35   R(15,37)                1.0868         calculate D2E/DX2 analytically  !
 ! R36   R(16,38)                1.0861         calculate D2E/DX2 analytically  !
 ! R37   R(17,18)                1.5375         calculate D2E/DX2 analytically  !
 ! R38   R(17,39)                1.0971         calculate D2E/DX2 analytically  !
 ! R39   R(17,40)                1.0984         calculate D2E/DX2 analytically  !
 ! R40   R(18,19)                1.5311         calculate D2E/DX2 analytically  !
 ! R41   R(18,41)                1.0961         calculate D2E/DX2 analytically  !
 ! R42   R(19,20)                1.5313         calculate D2E/DX2 analytically  !
 ! R43   R(19,42)                1.0969         calculate D2E/DX2 analytically  !
 ! R44   R(19,43)                1.0969         calculate D2E/DX2 analytically  !
 ! R45   R(20,21)                1.5342         calculate D2E/DX2 analytically  !
 ! R46   R(20,22)                1.5342         calculate D2E/DX2 analytically  !
 ! R47   R(20,44)                1.0961         calculate D2E/DX2 analytically  !
 ! R48   R(21,45)                1.0982         calculate D2E/DX2 analytically  !
 ! R49   R(21,46)                1.0982         calculate D2E/DX2 analytically  !
 ! R50   R(22,47)                1.0982         calculate D2E/DX2 analytically  !
 ! R51   R(22,48)                1.0982         calculate D2E/DX2 analytically  !
 ! R52   R(23,24)                1.4005         calculate D2E/DX2 analytically  !
 ! R53   R(23,49)                1.0876         calculate D2E/DX2 analytically  !
 ! R54   R(24,50)                1.0865         calculate D2E/DX2 analytically  !
 ! A1    A(2,1,25)             113.6488         calculate D2E/DX2 analytically  !
 ! A2    A(2,1,26)             113.6488         calculate D2E/DX2 analytically  !
 ! A3    A(25,1,26)            112.3112         calculate D2E/DX2 analytically  !
 ! A4    A(1,2,3)              120.4869         calculate D2E/DX2 analytically  !
 ! A5    A(1,2,24)             120.4971         calculate D2E/DX2 analytically  !
 ! A6    A(3,2,24)             118.1551         calculate D2E/DX2 analytically  !
 ! A7    A(2,3,4)              121.051          calculate D2E/DX2 analytically  !
 ! A8    A(2,3,27)             120.123          calculate D2E/DX2 analytically  !
 ! A9    A(4,3,27)             118.8259         calculate D2E/DX2 analytically  !
 ! A10   A(3,4,5)              121.3756         calculate D2E/DX2 analytically  !
 ! A11   A(3,4,28)             117.0093         calculate D2E/DX2 analytically  !
 ! A12   A(5,4,28)             121.6108         calculate D2E/DX2 analytically  !
 ! A13   A(4,5,6)              122.8862         calculate D2E/DX2 analytically  !
 ! A14   A(4,5,23)             116.7992         calculate D2E/DX2 analytically  !
 ! A15   A(6,5,23)             120.3095         calculate D2E/DX2 analytically  !
 ! A16   A(5,6,7)              110.0379         calculate D2E/DX2 analytically  !
 ! A17   A(5,6,8)              109.9503         calculate D2E/DX2 analytically  !
 ! A18   A(5,6,22)             113.5995         calculate D2E/DX2 analytically  !
 ! A19   A(7,6,8)              108.5334         calculate D2E/DX2 analytically  !
 ! A20   A(7,6,22)             107.2269         calculate D2E/DX2 analytically  !
 ! A21   A(8,6,22)             107.3249         calculate D2E/DX2 analytically  !
 ! A22   A(6,7,18)             111.2318         calculate D2E/DX2 analytically  !
 ! A23   A(6,7,29)             109.9988         calculate D2E/DX2 analytically  !
 ! A24   A(6,7,30)             111.1864         calculate D2E/DX2 analytically  !
 ! A25   A(18,7,29)            109.6645         calculate D2E/DX2 analytically  !
 ! A26   A(18,7,30)            108.4433         calculate D2E/DX2 analytically  !
 ! A27   A(29,7,30)            106.1745         calculate D2E/DX2 analytically  !
 ! A28   A(6,8,9)              112.3179         calculate D2E/DX2 analytically  !
 ! A29   A(6,8,31)             109.76           calculate D2E/DX2 analytically  !
 ! A30   A(6,8,32)             109.6191         calculate D2E/DX2 analytically  !
 ! A31   A(9,8,31)             109.76           calculate D2E/DX2 analytically  !
 ! A32   A(9,8,32)             109.6192         calculate D2E/DX2 analytically  !
 ! A33   A(31,8,32)            105.5408         calculate D2E/DX2 analytically  !
 ! A34   A(8,9,10)             109.9503         calculate D2E/DX2 analytically  !
 ! A35   A(8,9,17)             108.5334         calculate D2E/DX2 analytically  !
 ! A36   A(8,9,21)             107.3249         calculate D2E/DX2 analytically  !
 ! A37   A(10,9,17)            110.0379         calculate D2E/DX2 analytically  !
 ! A38   A(10,9,21)            113.5995         calculate D2E/DX2 analytically  !
 ! A39   A(17,9,21)            107.2269         calculate D2E/DX2 analytically  !
 ! A40   A(9,10,11)            120.3094         calculate D2E/DX2 analytically  !
 ! A41   A(9,10,16)            122.8862         calculate D2E/DX2 analytically  !
 ! A42   A(11,10,16)           116.7992         calculate D2E/DX2 analytically  !
 ! A43   A(10,11,12)           121.6285         calculate D2E/DX2 analytically  !
 ! A44   A(10,11,33)           120.6761         calculate D2E/DX2 analytically  !
 ! A45   A(12,11,33)           117.6916         calculate D2E/DX2 analytically  !
 ! A46   A(11,12,13)           120.7945         calculate D2E/DX2 analytically  !
 ! A47   A(11,12,34)           118.9533         calculate D2E/DX2 analytically  !
 ! A48   A(13,12,34)           120.2521         calculate D2E/DX2 analytically  !
 ! A49   A(12,13,14)           120.4971         calculate D2E/DX2 analytically  !
 ! A50   A(12,13,15)           118.1552         calculate D2E/DX2 analytically  !
 ! A51   A(14,13,15)           120.4869         calculate D2E/DX2 analytically  !
 ! A52   A(13,14,35)           113.6491         calculate D2E/DX2 analytically  !
 ! A53   A(13,14,36)           113.6489         calculate D2E/DX2 analytically  !
 ! A54   A(35,14,36)           112.3115         calculate D2E/DX2 analytically  !
 ! A55   A(13,15,16)           121.051          calculate D2E/DX2 analytically  !
 ! A56   A(13,15,37)           120.123          calculate D2E/DX2 analytically  !
 ! A57   A(16,15,37)           118.8259         calculate D2E/DX2 analytically  !
 ! A58   A(10,16,15)           121.3755         calculate D2E/DX2 analytically  !
 ! A59   A(10,16,38)           121.6107         calculate D2E/DX2 analytically  !
 ! A60   A(15,16,38)           117.0094         calculate D2E/DX2 analytically  !
 ! A61   A(9,17,18)            111.2318         calculate D2E/DX2 analytically  !
 ! A62   A(9,17,39)            111.1864         calculate D2E/DX2 analytically  !
 ! A63   A(9,17,40)            109.9988         calculate D2E/DX2 analytically  !
 ! A64   A(18,17,39)           108.4433         calculate D2E/DX2 analytically  !
 ! A65   A(18,17,40)           109.6645         calculate D2E/DX2 analytically  !
 ! A66   A(39,17,40)           106.1745         calculate D2E/DX2 analytically  !
 ! A67   A(7,18,17)            109.332          calculate D2E/DX2 analytically  !
 ! A68   A(7,18,19)            109.5637         calculate D2E/DX2 analytically  !
 ! A69   A(7,18,41)            109.454          calculate D2E/DX2 analytically  !
 ! A70   A(17,18,19)           109.5637         calculate D2E/DX2 analytically  !
 ! A71   A(17,18,41)           109.454          calculate D2E/DX2 analytically  !
 ! A72   A(19,18,41)           109.4598         calculate D2E/DX2 analytically  !
 ! A73   A(18,19,20)           109.5535         calculate D2E/DX2 analytically  !
 ! A74   A(18,19,42)           110.0973         calculate D2E/DX2 analytically  !
 ! A75   A(18,19,43)           110.0972         calculate D2E/DX2 analytically  !
 ! A76   A(20,19,42)           110.1106         calculate D2E/DX2 analytically  !
 ! A77   A(20,19,43)           110.1106         calculate D2E/DX2 analytically  !
 ! A78   A(42,19,43)           106.8388         calculate D2E/DX2 analytically  !
 ! A79   A(19,20,21)           109.5444         calculate D2E/DX2 analytically  !
 ! A80   A(19,20,22)           109.5444         calculate D2E/DX2 analytically  !
 ! A81   A(19,20,44)           109.4793         calculate D2E/DX2 analytically  !
 ! A82   A(21,20,22)           109.259          calculate D2E/DX2 analytically  !
 ! A83   A(21,20,44)           109.5            calculate D2E/DX2 analytically  !
 ! A84   A(22,20,44)           109.5            calculate D2E/DX2 analytically  !
 ! A85   A(9,21,20)            111.4197         calculate D2E/DX2 analytically  !
 ! A86   A(9,21,45)            110.4475         calculate D2E/DX2 analytically  !
 ! A87   A(9,21,46)            110.4351         calculate D2E/DX2 analytically  !
 ! A88   A(20,21,45)           108.6893         calculate D2E/DX2 analytically  !
 ! A89   A(20,21,46)           108.8262         calculate D2E/DX2 analytically  !
 ! A90   A(45,21,46)           106.892          calculate D2E/DX2 analytically  !
 ! A91   A(6,22,20)            111.4197         calculate D2E/DX2 analytically  !
 ! A92   A(6,22,47)            110.4475         calculate D2E/DX2 analytically  !
 ! A93   A(6,22,48)            110.4351         calculate D2E/DX2 analytically  !
 ! A94   A(20,22,47)           108.6893         calculate D2E/DX2 analytically  !
 ! A95   A(20,22,48)           108.8262         calculate D2E/DX2 analytically  !
 ! A96   A(47,22,48)           106.892          calculate D2E/DX2 analytically  !
 ! A97   A(5,23,24)            121.6285         calculate D2E/DX2 analytically  !
 ! A98   A(5,23,49)            120.6761         calculate D2E/DX2 analytically  !
 ! A99   A(24,23,49)           117.6916         calculate D2E/DX2 analytically  !
 ! A100  A(2,24,23)            120.7945         calculate D2E/DX2 analytically  !
 ! A101  A(2,24,50)            120.2521         calculate D2E/DX2 analytically  !
 ! A102  A(23,24,50)           118.9533         calculate D2E/DX2 analytically  !
 ! D1    D(25,1,2,3)          -160.4588         calculate D2E/DX2 analytically  !
 ! D2    D(25,1,2,24)           30.3586         calculate D2E/DX2 analytically  !
 ! D3    D(26,1,2,3)           -30.3533         calculate D2E/DX2 analytically  !
 ! D4    D(26,1,2,24)          160.4641         calculate D2E/DX2 analytically  !
 ! D5    D(1,2,3,4)           -174.4067         calculate D2E/DX2 analytically  !
 ! D6    D(1,2,3,27)             5.7186         calculate D2E/DX2 analytically  !
 ! D7    D(24,2,3,4)            -4.9756         calculate D2E/DX2 analytically  !
 ! D8    D(24,2,3,27)          175.1497         calculate D2E/DX2 analytically  !
 ! D9    D(1,2,24,23)          174.3957         calculate D2E/DX2 analytically  !
 ! D10   D(1,2,24,50)           -5.7435         calculate D2E/DX2 analytically  !
 ! D11   D(3,2,24,23)            4.9657         calculate D2E/DX2 analytically  !
 ! D12   D(3,2,24,50)         -175.1735         calculate D2E/DX2 analytically  !
 ! D13   D(2,3,4,5)              2.0875         calculate D2E/DX2 analytically  !
 ! D14   D(2,3,4,28)          -178.6627         calculate D2E/DX2 analytically  !
 ! D15   D(27,3,4,5)          -178.0362         calculate D2E/DX2 analytically  !
 ! D16   D(27,3,4,28)            1.2136         calculate D2E/DX2 analytically  !
 ! D17   D(3,4,5,6)           -179.939          calculate D2E/DX2 analytically  !
 ! D18   D(3,4,5,23)             0.8853         calculate D2E/DX2 analytically  !
 ! D19   D(28,4,5,6)             0.8459         calculate D2E/DX2 analytically  !
 ! D20   D(28,4,5,23)         -178.3299         calculate D2E/DX2 analytically  !
 ! D21   D(4,5,6,7)           -120.1585         calculate D2E/DX2 analytically  !
 ! D22   D(4,5,6,8)            120.3478         calculate D2E/DX2 analytically  !
 ! D23   D(4,5,6,22)             0.0632         calculate D2E/DX2 analytically  !
 ! D24   D(23,5,6,7)            58.9893         calculate D2E/DX2 analytically  !
 ! D25   D(23,5,6,8)           -60.5043         calculate D2E/DX2 analytically  !
 ! D26   D(23,5,6,22)          179.2111         calculate D2E/DX2 analytically  !
 ! D27   D(4,5,23,24)           -0.8842         calculate D2E/DX2 analytically  !
 ! D28   D(4,5,23,49)          178.3942         calculate D2E/DX2 analytically  !
 ! D29   D(6,5,23,24)          179.9175         calculate D2E/DX2 analytically  !
 ! D30   D(6,5,23,49)           -0.8041         calculate D2E/DX2 analytically  !
 ! D31   D(5,6,7,18)          -178.1708         calculate D2E/DX2 analytically  !
 ! D32   D(5,6,7,29)            60.1218         calculate D2E/DX2 analytically  !
 ! D33   D(5,6,7,30)           -57.2004         calculate D2E/DX2 analytically  !
 ! D34   D(8,6,7,18)           -57.8179         calculate D2E/DX2 analytically  !
 ! D35   D(8,6,7,29)          -179.5252         calculate D2E/DX2 analytically  !
 ! D36   D(8,6,7,30)            63.1525         calculate D2E/DX2 analytically  !
 ! D37   D(22,6,7,18)           57.826          calculate D2E/DX2 analytically  !
 ! D38   D(22,6,7,29)          -63.8813         calculate D2E/DX2 analytically  !
 ! D39   D(22,6,7,30)          178.7964         calculate D2E/DX2 analytically  !
 ! D40   D(5,6,8,9)            177.1456         calculate D2E/DX2 analytically  !
 ! D41   D(5,6,8,31)           -60.4572         calculate D2E/DX2 analytically  !
 ! D42   D(5,6,8,32)            55.0285         calculate D2E/DX2 analytically  !
 ! D43   D(7,6,8,9)             56.7382         calculate D2E/DX2 analytically  !
 ! D44   D(7,6,8,31)           179.1354         calculate D2E/DX2 analytically  !
 ! D45   D(7,6,8,32)           -65.3789         calculate D2E/DX2 analytically  !
 ! D46   D(22,6,8,9)           -58.8421         calculate D2E/DX2 analytically  !
 ! D47   D(22,6,8,31)           63.5551         calculate D2E/DX2 analytically  !
 ! D48   D(22,6,8,32)          179.0408         calculate D2E/DX2 analytically  !
 ! D49   D(5,6,22,20)         -179.6966         calculate D2E/DX2 analytically  !
 ! D50   D(5,6,22,47)          -58.7914         calculate D2E/DX2 analytically  !
 ! D51   D(5,6,22,48)           59.2333         calculate D2E/DX2 analytically  !
 ! D52   D(7,6,22,20)          -57.8978         calculate D2E/DX2 analytically  !
 ! D53   D(7,6,22,47)           63.0074         calculate D2E/DX2 analytically  !
 ! D54   D(7,6,22,48)         -178.9679         calculate D2E/DX2 analytically  !
 ! D55   D(8,6,22,20)           58.5462         calculate D2E/DX2 analytically  !
 ! D56   D(8,6,22,47)          179.4514         calculate D2E/DX2 analytically  !
 ! D57   D(8,6,22,48)          -62.5239         calculate D2E/DX2 analytically  !
 ! D58   D(6,7,18,17)           59.9628         calculate D2E/DX2 analytically  !
 ! D59   D(6,7,18,19)          -60.1218         calculate D2E/DX2 analytically  !
 ! D60   D(6,7,18,41)          179.8462         calculate D2E/DX2 analytically  !
 ! D61   D(29,7,18,17)        -178.1355         calculate D2E/DX2 analytically  !
 ! D62   D(29,7,18,19)          61.78           calculate D2E/DX2 analytically  !
 ! D63   D(29,7,18,41)         -58.2521         calculate D2E/DX2 analytically  !
 ! D64   D(30,7,18,17)         -62.6039         calculate D2E/DX2 analytically  !
 ! D65   D(30,7,18,19)         177.3116         calculate D2E/DX2 analytically  !
 ! D66   D(30,7,18,41)          57.2795         calculate D2E/DX2 analytically  !
 ! D67   D(6,8,9,10)          -177.1456         calculate D2E/DX2 analytically  !
 ! D68   D(6,8,9,17)           -56.7382         calculate D2E/DX2 analytically  !
 ! D69   D(6,8,9,21)            58.8421         calculate D2E/DX2 analytically  !
 ! D70   D(31,8,9,10)           60.4572         calculate D2E/DX2 analytically  !
 ! D71   D(31,8,9,17)         -179.1354         calculate D2E/DX2 analytically  !
 ! D72   D(31,8,9,21)          -63.5551         calculate D2E/DX2 analytically  !
 ! D73   D(32,8,9,10)          -55.0285         calculate D2E/DX2 analytically  !
 ! D74   D(32,8,9,17)           65.3788         calculate D2E/DX2 analytically  !
 ! D75   D(32,8,9,21)         -179.0408         calculate D2E/DX2 analytically  !
 ! D76   D(8,9,10,11)           60.5036         calculate D2E/DX2 analytically  !
 ! D77   D(8,9,10,16)         -120.3482         calculate D2E/DX2 analytically  !
 ! D78   D(17,9,10,11)         -58.99           calculate D2E/DX2 analytically  !
 ! D79   D(17,9,10,16)         120.1582         calculate D2E/DX2 analytically  !
 ! D80   D(21,9,10,11)        -179.2117         calculate D2E/DX2 analytically  !
 ! D81   D(21,9,10,16)          -0.0635         calculate D2E/DX2 analytically  !
 ! D82   D(8,9,17,18)           57.8179         calculate D2E/DX2 analytically  !
 ! D83   D(8,9,17,39)          -63.1526         calculate D2E/DX2 analytically  !
 ! D84   D(8,9,17,40)          179.5252         calculate D2E/DX2 analytically  !
 ! D85   D(10,9,17,18)         178.1709         calculate D2E/DX2 analytically  !
 ! D86   D(10,9,17,39)          57.2004         calculate D2E/DX2 analytically  !
 ! D87   D(10,9,17,40)         -60.1218         calculate D2E/DX2 analytically  !
 ! D88   D(21,9,17,18)         -57.826          calculate D2E/DX2 analytically  !
 ! D89   D(21,9,17,39)        -178.7965         calculate D2E/DX2 analytically  !
 ! D90   D(21,9,17,40)          63.8813         calculate D2E/DX2 analytically  !
 ! D91   D(8,9,21,20)          -58.5461         calculate D2E/DX2 analytically  !
 ! D92   D(8,9,21,45)         -179.4514         calculate D2E/DX2 analytically  !
 ! D93   D(8,9,21,46)           62.5239         calculate D2E/DX2 analytically  !
 ! D94   D(10,9,21,20)         179.6966         calculate D2E/DX2 analytically  !
 ! D95   D(10,9,21,45)          58.7914         calculate D2E/DX2 analytically  !
 ! D96   D(10,9,21,46)         -59.2333         calculate D2E/DX2 analytically  !
 ! D97   D(17,9,21,20)          57.8979         calculate D2E/DX2 analytically  !
 ! D98   D(17,9,21,45)         -63.0073         calculate D2E/DX2 analytically  !
 ! D99   D(17,9,21,46)         178.968          calculate D2E/DX2 analytically  !
 ! D100  D(9,10,11,12)        -179.917          calculate D2E/DX2 analytically  !
 ! D101  D(9,10,11,33)           0.804          calculate D2E/DX2 analytically  !
 ! D102  D(16,10,11,12)          0.8844         calculate D2E/DX2 analytically  !
 ! D103  D(16,10,11,33)       -178.3946         calculate D2E/DX2 analytically  !
 ! D104  D(9,10,16,15)         179.9387         calculate D2E/DX2 analytically  !
 ! D105  D(9,10,16,38)          -0.8458         calculate D2E/DX2 analytically  !
 ! D106  D(11,10,16,15)         -0.8851         calculate D2E/DX2 analytically  !
 ! D107  D(11,10,16,38)        178.3303         calculate D2E/DX2 analytically  !
 ! D108  D(10,11,12,13)          2.0889         calculate D2E/DX2 analytically  !
 ! D109  D(10,11,12,34)       -178.0486         calculate D2E/DX2 analytically  !
 ! D110  D(33,11,12,13)       -178.6114         calculate D2E/DX2 analytically  !
 ! D111  D(33,11,12,34)          1.2511         calculate D2E/DX2 analytically  !
 ! D112  D(11,12,13,14)       -174.3957         calculate D2E/DX2 analytically  !
 ! D113  D(11,12,13,15)         -4.9655         calculate D2E/DX2 analytically  !
 ! D114  D(34,12,13,14)          5.7437         calculate D2E/DX2 analytically  !
 ! D115  D(34,12,13,15)        175.1738         calculate D2E/DX2 analytically  !
 ! D116  D(12,13,14,35)       -160.4644         calculate D2E/DX2 analytically  !
 ! D117  D(12,13,14,36)        -30.358          calculate D2E/DX2 analytically  !
 ! D118  D(15,13,14,35)         30.3528         calculate D2E/DX2 analytically  !
 ! D119  D(15,13,14,36)        160.4591         calculate D2E/DX2 analytically  !
 ! D120  D(12,13,15,16)          4.9757         calculate D2E/DX2 analytically  !
 ! D121  D(12,13,15,37)       -175.1501         calculate D2E/DX2 analytically  !
 ! D122  D(14,13,15,16)        174.4069         calculate D2E/DX2 analytically  !
 ! D123  D(14,13,15,37)         -5.7188         calculate D2E/DX2 analytically  !
 ! D124  D(13,15,16,10)         -2.0877         calculate D2E/DX2 analytically  !
 ! D125  D(13,15,16,38)        178.6622         calculate D2E/DX2 analytically  !
 ! D126  D(37,15,16,10)        178.0364         calculate D2E/DX2 analytically  !
 ! D127  D(37,15,16,38)         -1.2136         calculate D2E/DX2 analytically  !
 ! D128  D(9,17,18,7)          -59.9628         calculate D2E/DX2 analytically  !
 ! D129  D(9,17,18,19)          60.1217         calculate D2E/DX2 analytically  !
 ! D130  D(9,17,18,41)        -179.8462         calculate D2E/DX2 analytically  !
 ! D131  D(39,17,18,7)          62.6039         calculate D2E/DX2 analytically  !
 ! D132  D(39,17,18,19)       -177.3116         calculate D2E/DX2 analytically  !
 ! D133  D(39,17,18,41)        -57.2795         calculate D2E/DX2 analytically  !
 ! D134  D(40,17,18,7)         178.1355         calculate D2E/DX2 analytically  !
 ! D135  D(40,17,18,19)        -61.78           calculate D2E/DX2 analytically  !
 ! D136  D(40,17,18,41)         58.2521         calculate D2E/DX2 analytically  !
 ! D137  D(7,18,19,20)          59.9715         calculate D2E/DX2 analytically  !
 ! D138  D(7,18,19,42)         -61.2595         calculate D2E/DX2 analytically  !
 ! D139  D(7,18,19,43)        -178.7976         calculate D2E/DX2 analytically  !
 ! D140  D(17,18,19,20)        -59.9714         calculate D2E/DX2 analytically  !
 ! D141  D(17,18,19,42)        178.7977         calculate D2E/DX2 analytically  !
 ! D142  D(17,18,19,43)         61.2595         calculate D2E/DX2 analytically  !
 ! D143  D(41,18,19,20)       -180.0            calculate D2E/DX2 analytically  !
 ! D144  D(41,18,19,42)         58.7691         calculate D2E/DX2 analytically  !
 ! D145  D(41,18,19,43)        -58.7691         calculate D2E/DX2 analytically  !
 ! D146  D(18,19,20,21)         59.9148         calculate D2E/DX2 analytically  !
 ! D147  D(18,19,20,22)        -59.9149         calculate D2E/DX2 analytically  !
 ! D148  D(18,19,20,44)        180.0            calculate D2E/DX2 analytically  !
 ! D149  D(42,19,20,21)       -178.8623         calculate D2E/DX2 analytically  !
 ! D150  D(42,19,20,22)         61.308          calculate D2E/DX2 analytically  !
 ! D151  D(42,19,20,44)        -58.7771         calculate D2E/DX2 analytically  !
 ! D152  D(43,19,20,21)        -61.308          calculate D2E/DX2 analytically  !
 ! D153  D(43,19,20,22)        178.8623         calculate D2E/DX2 analytically  !
 ! D154  D(43,19,20,44)         58.7772         calculate D2E/DX2 analytically  !
 ! D155  D(19,20,21,9)         -60.0817         calculate D2E/DX2 analytically  !
 ! D156  D(19,20,21,45)         61.8467         calculate D2E/DX2 analytically  !
 ! D157  D(19,20,21,46)        177.9131         calculate D2E/DX2 analytically  !
 ! D158  D(22,20,21,9)          59.9227         calculate D2E/DX2 analytically  !
 ! D159  D(22,20,21,45)       -178.1488         calculate D2E/DX2 analytically  !
 ! D160  D(22,20,21,46)        -62.0825         calculate D2E/DX2 analytically  !
 ! D161  D(44,20,21,9)         179.8458         calculate D2E/DX2 analytically  !
 ! D162  D(44,20,21,45)        -58.2258         calculate D2E/DX2 analytically  !
 ! D163  D(44,20,21,46)         57.8406         calculate D2E/DX2 analytically  !
 ! D164  D(19,20,22,6)          60.0817         calculate D2E/DX2 analytically  !
 ! D165  D(19,20,22,47)        -61.8468         calculate D2E/DX2 analytically  !
 ! D166  D(19,20,22,48)       -177.9131         calculate D2E/DX2 analytically  !
 ! D167  D(21,20,22,6)         -59.9228         calculate D2E/DX2 analytically  !
 ! D168  D(21,20,22,47)        178.1488         calculate D2E/DX2 analytically  !
 ! D169  D(21,20,22,48)         62.0825         calculate D2E/DX2 analytically  !
 ! D170  D(44,20,22,6)        -179.8459         calculate D2E/DX2 analytically  !
 ! D171  D(44,20,22,47)         58.2257         calculate D2E/DX2 analytically  !
 ! D172  D(44,20,22,48)        -57.8406         calculate D2E/DX2 analytically  !
 ! D173  D(5,23,24,2)           -2.0892         calculate D2E/DX2 analytically  !
 ! D174  D(5,23,24,50)         178.0482         calculate D2E/DX2 analytically  !
 ! D175  D(49,23,24,2)         178.6116         calculate D2E/DX2 analytically  !
 ! D176  D(49,23,24,50)         -1.251          calculate D2E/DX2 analytically  !
 --------------------------------------------------------------------------------
 Trust Radius=3.00D-01 FncErr=1.00D-07 GrdErr=1.00D-06 EigMax=2.50D+02 EigMin=1.00D-04
 Number of steps in this run=    300 maximum allowed number of steps=    300.
 GradGradGradGradGradGradGradGradGradGradGradGradGradGradGradGradGradGrad

                          Input orientation:                          
 ---------------------------------------------------------------------
 Center     Atomic      Atomic             Coordinates (Angstroms)
 Number     Number       Type             X           Y           Z
 ---------------------------------------------------------------------
      1          7           0       -6.044900    2.562677   -0.208183
      2          6           0       -4.842998    1.847950   -0.253055
      3          6           0       -4.594576    0.947400   -1.286015
      4          6           0       -3.447965    0.140346   -1.281800
      5          6           0       -2.532303    0.177648   -0.219366
      6          6           0       -1.262909   -0.691248   -0.179476
      7          6           0       -1.288665   -1.615709    1.072028
      8          6           0        0.000594    0.216849   -0.098478
      9          6           0        1.316612   -0.609298    0.016494
     10          6           0        2.520089    0.338160    0.164472
     11          6           0        2.599364    1.220017    1.258114
     12          6           0        3.680933    2.095112    1.419061
     13          6           0        4.699321    2.151115    0.471882
     14          7           0        5.833148    2.940054    0.694198
     15          6           0        4.666983    1.241633   -0.582400
     16          6           0        3.586117    0.363810   -0.747407
     17          6           0        1.211489   -1.536280    1.261968
     18          6           0       -0.010088   -2.464749    1.163510
     19          6           0        0.112636   -3.342846   -0.084698
     20          6           0        0.179131   -2.455580   -1.330986
     21          6           0        1.397717   -1.528355   -1.236458
     22          6           0       -1.095823   -1.607573   -1.425897
     23          6           0       -2.831224    1.047479    0.845551
     24          6           0       -3.977747    1.851782    0.837232
     25          1           0       -6.003624    3.392421    0.374839
     26          1           0       -6.439087    2.754216   -1.123624
     27          1           0       -5.292588    0.861781   -2.114632
     28          1           0       -3.308196   -0.522419   -2.130750
     29          1           0       -2.167438   -2.273680    1.035014
     30          1           0       -1.383598   -1.030665    1.995236
     31          1           0        0.047059    0.869045   -0.982822
     32          1           0       -0.086176    0.892825    0.760969
     33          1           0        1.820495    1.234201    2.017044
     34          1           0        3.713795    2.734899    2.296640
     35          1           0        6.348105    3.160465   -0.152169
     36          1           0        5.652072    3.762737    1.260323
     37          1           0        5.486051    1.204210   -1.295761
     38          1           0        3.618183   -0.302381   -1.604537
     39          1           0        1.128891   -0.950844    2.186114
     40          1           0        2.125536   -2.137294    1.361157
     41          1           0       -0.057557   -3.101281    2.054521
     42          1           0       -0.744424   -4.024109   -0.152029
     43          1           0        1.011308   -3.968331   -0.018643
     44          1           0        0.266963   -3.085362   -2.223747
     45          1           0        2.306544   -2.143963   -1.202529
     46          1           0        1.455365   -0.924426   -2.151895
     47          1           0       -1.958677   -2.279466   -1.526567
     48          1           0       -1.052651   -1.004104   -2.342434
     49          1           0       -2.178287    1.107141    1.713263
     50          1           0       -4.182997    2.483989    1.696729
 ---------------------------------------------------------------------
                    Distance matrix (angstroms):
                    1          2          3          4          5
     1  N    0.000000
     2  C    1.399077   0.000000
     3  C    2.423692   1.392735   0.000000
     4  C    3.710042   2.433176   1.402167   0.000000
     5  C    4.245801   2.851378   2.446065   1.403066   0.000000
     6  C    5.784141   4.389758   3.874223   2.584789   1.538808
     7  C    6.459073   5.136737   4.801973   3.645107   2.535835
     8  C    6.485595   5.113195   4.802035   3.646733   2.536083
     9  C    8.018963   6.637132   6.249959   4.994870   3.935614
    10  C    8.856997   7.527872   7.286533   6.143981   5.069493
    11  C    8.869953   7.620149   7.635423   6.647333   5.440908
    12  C    9.872100   8.689906   8.781728   7.870003   6.705625
    13  C   10.773586   9.574617   9.534970   8.573030   7.527866
    14  N   11.918252  10.773582  10.799507   9.893533   8.856989
    15  C   10.799520   9.534979   9.292908   8.219147   7.286534
    16  C    9.893547   8.573041   8.219149   7.057890   6.143984
    17  C    8.462741   7.099657   6.809646   5.567076   4.375829
    18  C    7.973426   6.630464   6.217754   4.958332   3.905915
    19  C    8.532626   7.178511   6.481298   5.122847   4.405419
    20  C    8.073547   6.701051   5.862643   4.460614   3.939729
    21  C    8.554907   7.163312   6.483780   5.125159   4.403405
    22  C    6.585376   5.230442   4.334597   2.934034   2.589634
    23  C    3.705927   2.427946   2.768213   2.393508   1.407128
    24  C    2.423094   1.391904   2.388841   2.774883   2.451211
    25  H    1.014935   2.031427   3.274444   4.455540   4.768430
    26  H    1.014940   2.031430   2.587117   3.975443   4.766482
    27  H    2.663375   2.154096   1.086811   2.148654   3.417492
    28  H    4.550124   3.391166   2.128079   1.086053   2.178416
    29  H    6.322231   5.079920   4.653336   3.582583   2.777698
    30  H    6.284497   5.030774   4.998973   4.046213   2.772003
    31  H    6.370276   5.040185   4.652187   3.582678   2.777409
    32  H    6.263709   4.956598   4.951646   4.005091   2.730581
    33  H    8.281360   7.066270   7.221191   6.311542   5.006464
    34  H   10.076504   8.972532   9.222777   8.415922   7.203024
    35  H   12.407541  11.268259  11.221655  10.313107   9.368210
    36  H   11.849717  10.775120  10.927203  10.119030   9.056839
    37  H   11.661522  10.401485  10.083903   8.997147   8.155149
    38  H   10.175143   8.834139   8.313412   7.087356   6.322784
    39  H    8.339111   7.031803   6.958239   5.845060   4.523734
    40  H    9.555552   8.188304   7.853838   6.575468   5.436218
    41  H    8.546843   7.260871   6.937978   5.756218   4.695349
    42  H    8.454818   7.161675   6.389483   5.091974   4.566816
    43  H    9.616655   8.255723   7.562842   6.193698   5.457710
    44  H    8.706460   7.371085   6.385693   5.009305   4.743486
    45  H    9.637832   8.243351   7.562338   6.191827   5.456274
    46  H    8.496580   7.138700   6.391813   5.092489   4.566260
    47  H    6.471608   5.193910   4.173547   2.851908   2.841695
    48  H    6.496114   5.183285   4.179668   2.858713   2.844877
    49  H    4.556450   3.393506   3.854820   3.393696   2.173554
    50  H    2.664876   2.154484   3.380424   3.860643   3.422779
                    6          7          8          9         10
     6  C    0.000000
     7  C    1.556134   0.000000
     8  C    1.558088   2.527952   0.000000
     9  C    2.588252   2.985713   1.558089   0.000000
    10  C    3.935614   4.375828   2.536083   1.538808   0.000000
    11  C    4.542769   4.815884   3.098434   2.556064   1.407129
    12  C    5.895821   6.211887   4.401783   3.856299   2.451211
    13  C    6.637129   7.099656   5.113192   4.389758   2.851378
    14  N    8.018958   8.462739   6.485590   5.784140   4.245800
    15  C    6.249960   6.809646   4.802036   3.874223   2.446065
    16  C    4.994872   5.567076   3.646736   2.584789   1.403066
    17  C    2.985714   2.508617   2.527952   1.556134   2.535835
    18  C    2.553131   1.537530   2.963730   2.553131   3.905915
    19  C    2.988659   2.506922   3.561484   2.988659   4.405420
    20  C    2.553100   2.938415   2.948360   2.553100   3.939729
    21  C    2.982766   3.543076   2.508523   1.555999   2.589634
    22  C    1.555999   2.505370   2.508523   2.982765   4.403405
    23  C    2.556064   3.085993   3.098440   4.542774   5.440915
    24  C    3.856299   4.394291   4.401791   5.895826   6.705635
    25  H    6.281560   6.913630   6.808739   8.350331   9.056846
    26  H    6.289313   7.102393   6.997046   8.530180   9.368211
    27  H    4.732340   5.685434   5.700754   7.098401   8.155147
    28  H    2.831814   3.941012   3.952814   5.099711   6.322780
    29  H    2.190263   1.098425   3.491118   3.993264   5.436218
    30  H    2.204346   1.097088   2.802841   3.374034   4.523732
    31  H    2.189953   3.490067   1.099810   2.189953   2.777409
    32  H    2.185961   2.799193   1.096870   2.185962   2.730583
    33  H    4.247286   4.322259   2.970266   2.766693   2.173556
    34  H    6.529718   6.741816   5.085768   4.704169   3.422782
    35  H    8.530180   9.090146   6.997046   6.289315   4.766484
    36  H    8.350327   8.782765   6.808735   6.281561   4.768431
    37  H    7.098403   7.710717   5.700756   4.732341   3.417492
    38  H    5.099713   5.741601   3.952817   2.831813   2.178416
    39  H    3.374035   2.743686   2.802842   2.204346   2.772003
    40  H    3.993264   3.465893   3.491118   2.190262   2.777697
    41  H    3.500268   2.165143   3.955852   3.500267   4.695348
    42  H    3.373061   2.755885   4.306233   3.992143   5.457711
    43  H    3.992142   3.466160   4.306233   3.373062   4.566817
    44  H    3.500190   3.929629   3.936027   3.500191   4.743487
    45  H    3.987232   4.286979   3.479909   2.195719   2.841694
    46  H    3.366574   4.289668   2.763221   2.195557   2.844876
    47  H    2.195719   2.764449   3.479909   3.987232   5.456274
    48  H    2.195558   3.476825   2.763220   3.366574   4.566259
    49  H    2.766692   2.935392   2.970278   4.247294   5.006479
    50  H    4.704167   5.057166   5.085777   6.529725   7.203039
                   11         12         13         14         15
    11  C    0.000000
    12  C    1.400531   0.000000
    13  C    2.427947   1.391905   0.000000
    14  N    3.705927   2.423094   1.399076   0.000000
    15  C    2.768214   2.388843   1.392735   2.423691   0.000000
    16  C    2.393510   2.774885   2.433176   3.710042   1.402167
    17  C    3.085998   4.394297   5.136739   6.459076   4.801972
    18  C    4.516158   5.872076   6.630466   7.973428   6.217754
    19  C    5.367185   6.675734   7.178514   8.532630   6.481299
    20  C    5.105975   6.366646   6.701051   8.073546   5.862643
    21  C    3.901333   5.039284   5.230441   6.585375   4.334597
    22  C    5.371554   6.679900   7.163309   8.554903   6.483780
    23  C    5.448969   6.620773   7.620154   8.869955   7.635434
    24  C    6.620775   7.684603   8.689913   9.872106   8.781742
    25  H    8.916889   9.826701  10.775124  11.849718  10.927216
    26  H    9.472066  10.455356  11.268252  12.407529  11.221659
    27  H    8.589916   9.722766  10.401475  11.661508  10.083902
    28  H    7.029918   8.264415   8.834127  10.175128   8.313408
    29  H    5.914228   7.310081   8.188303   9.555551   7.853838
    30  H    4.633886   5.979292   7.031801   8.339109   6.958238
    31  H    3.414563   4.525188   5.040179   6.370268   4.652189
    32  H    2.750696   4.008702   4.956596   6.263705   4.951649
    33  H    1.087571   2.135411   3.393508   4.556451   3.854823
    34  H    2.148339   1.086532   2.154486   2.664877   3.380427
    35  H    4.450540   3.273767   2.031432   1.014938   2.587119
    36  H    3.972966   2.586804   2.031428   1.014936   3.274446
    37  H    3.854283   3.379707   2.154097   2.663375   1.086811
    38  H    3.398597   3.859283   3.391167   4.550125   2.128080
    39  H    2.781386   4.047115   5.030776   6.284499   4.998971
    40  H    3.392148   4.509532   5.079924   6.322237   4.653334
    41  H    5.134890   6.432932   7.260873   8.546848   6.937977
    42  H    6.377325   7.713429   8.255726   9.616659   7.562843
    43  H    5.574135   6.779324   7.161680   8.454825   6.389484
    44  H    6.008306   7.194620   7.371085   8.706461   6.385694
    45  H    4.178142   5.170246   5.193912   6.471610   4.173547
    46  H    4.187545   5.179044   5.183281   6.496110   4.179667
    47  H    6.385653   7.721325   8.243347   9.637828   7.562338
    48  H    5.589980   6.794175   7.138694   8.496573   6.391813
    49  H    4.800609   5.949211   7.066286   8.281375   7.221211
    50  H    6.913062   7.878434   8.972549  10.076519   9.222799
                   16         17         18         19         20
    16  C    0.000000
    17  C    3.645104   0.000000
    18  C    4.958330   1.537530   0.000000
    19  C    5.122846   2.506924   1.531058   0.000000
    20  C    4.460613   2.938415   2.501679   1.531306   0.000000
    21  C    2.934034   2.505370   2.935744   2.504069   1.534155
    22  C    5.125160   3.543076   2.935745   2.504069   1.534155
    23  C    6.647344   4.815885   4.516155   5.367181   5.105974
    24  C    7.870018   6.211887   5.872071   6.675729   6.366646
    25  H   10.119044   8.782765   8.417299   9.109536   8.679598
    26  H   10.313113   9.090145   8.590728   9.009918   8.425307
    27  H    8.997149   7.710717   7.051016   7.142547   6.446604
    28  H    7.087354   5.741603   5.049981   4.882953   4.066717
    29  H    6.575467   3.465893   2.169603   2.756013   3.337279
    30  H    5.845059   2.743685   2.152881   3.451235   3.941606
    31  H    3.582683   3.490067   3.965373   4.307082   3.345413
    32  H    4.005095   2.799194   3.382474   4.323840   3.957080
    33  H    3.393699   2.935404   4.214474   5.318220   5.245747
    34  H    3.860647   5.057179   6.495201   7.455073   7.252213
    35  H    3.975446   7.102396   8.590731   9.009921   8.425308
    36  H    4.455542   6.913636   8.417304   9.109541   8.679598
    37  H    2.148655   5.685433   7.051015   7.142548   6.446604
    38  H    1.086053   3.941007   5.049977   4.882950   4.066715
    39  H    4.046210   1.097088   2.152882   3.451236   3.941607
    40  H    3.582577   1.098425   2.169604   2.756015   3.337279
    41  H    5.756214   2.165143   1.096050   2.159531   3.454650
    42  H    6.193698   3.466162   2.168293   1.096907   2.168681
    43  H    5.091972   2.755886   2.168292   1.096907   2.168681
    44  H    5.009306   3.929630   3.454768   2.160011   1.096066
    45  H    2.851905   2.764447   3.326835   2.738631   2.153948
    46  H    2.858713   3.476824   3.938535   3.453257   2.155713
    47  H    6.191828   4.286981   3.326836   2.738631   2.153948
    48  H    5.092491   4.289669   3.938536   3.453257   2.155713
    49  H    6.311560   4.322260   4.214465   5.318212   5.245746
    50  H    8.415943   6.741814   6.495191   7.455062   7.252211
                   21         22         23         24         25
    21  C    0.000000
    22  C    2.501980   0.000000
    23  C    5.371557   3.901333   0.000000
    24  C    6.679905   5.039283   1.400531   0.000000
    25  H    9.032728   7.233886   3.972965   2.586804   0.000000
    26  H    8.931330   6.904133   4.450537   3.273765   1.685919
    27  H    7.158500   4.917815   3.854281   3.379706   3.620383
    28  H    4.894618   2.563000   3.398596   3.859281   5.373015
    29  H    4.292485   2.765527   3.392139   4.509521   6.874363
    30  H    4.292698   3.481348   2.781380   4.047108   6.598032
    31  H    2.763356   2.763355   3.414572   4.525200   6.694881
    32  H    3.471854   3.471853   2.750702   4.008708   6.435315
    33  H    4.289025   5.332395   4.800599   5.949200   8.280797
    34  H    6.001862   7.473070   6.913054   7.878426   9.927432
    35  H    6.904134   8.931329   9.472077  10.455372  12.365143
    36  H    7.233886   9.032724   8.916892   9.826707  11.695147
    37  H    4.917815   7.158501   8.589928   9.722782  11.814898
    38  H    2.562999   4.894619   7.029929   8.264431  10.495174
    39  H    3.481348   4.292699   4.633888   5.979294   8.545025
    40  H    2.765526   4.292485   5.914228   7.310082   9.880983
    41  H    3.927144   3.927145   5.134885   6.432925   8.963549
    42  H    3.463170   2.754245   5.574128   6.779315   9.107233
    43  H    2.754245   3.463169   6.377322   7.713424  10.175695
    44  H    2.162779   2.162778   6.008305   7.194619   9.382675
    45  H    1.098222   3.451625   6.385656   7.721329  10.109330
    46  H    1.098216   2.739037   5.589986   6.794183   8.980873
    47  H    3.451624   1.098222   4.178139   5.170242   7.221305
    48  H    2.739037   1.098216   4.187549   5.179049   7.157174
    49  H    5.332401   4.289024   1.087570   2.135410   4.652643
    50  H    7.473076   6.001859   2.148337   1.086530   2.426381
                   26         27         28         29         30
    26  H    0.000000
    27  H    2.424431   0.000000
    28  H    4.642534   2.419522   0.000000
    29  H    6.941646   5.433043   3.793456   0.000000
    30  H    7.043478   5.979345   4.581064   1.755425   0.000000
    31  H    6.756019   5.458285   3.809415   4.341933   3.811103
    32  H    6.883019   5.947838   4.554819   3.799146   2.628028
    33  H    8.966323   8.234404   6.825935   5.401224   3.923813
    34  H   10.713524  10.202100   8.917414   7.827290   6.344583
    35  H   12.830474  12.026677  10.522479  10.171225   9.052964
    36  H   12.365130  11.814883  10.495158   9.880983   8.545025
    37  H   12.026682  10.815123   9.000958   8.723768   7.938351
    38  H   10.522488   9.000962   6.949823   6.657827   6.205367
    39  H    9.052963   7.938352   6.205369   3.733726   2.520994
    40  H   10.171223   8.723768   6.657828   4.307504   3.733725
    41  H    9.225583   7.777741   5.893528   2.485139   2.459543
    42  H    8.906115   6.957696   4.769706   2.549125   3.738984
    43  H   10.095643   8.213541   5.915523   3.753193   4.291988
    44  H    8.960025   6.819124   4.399896   4.147850   4.974530
    45  H   10.024194   8.222728   5.917458   5.003993   5.008222
    46  H    8.769956   6.980458   4.780540   5.010148   5.026897
    47  H    6.750881   4.618249   2.296400   2.570080   3.780650
    48  H    6.680132   4.637940   2.316098   3.776471   4.350358
    49  H    5.377286   4.940835   4.325344   3.448201   2.298098
    50  H    3.621789   4.288266   4.945034   5.209200   4.503169
                   31         32         33         34         35
    31  H    0.000000
    32  H    1.749036   0.000000
    33  H    3.503943   2.308605   0.000000
    34  H    5.261297   4.493473   2.432047   0.000000
    35  H    6.756018   6.883022   5.377289   3.621790   0.000000
    36  H    6.694873   6.435311   4.652644   2.426380   1.685921
    37  H    5.458288   5.947842   4.940838   4.288269   2.424432
    38  H    3.809422   4.554823   4.325346   4.945038   4.642537
    39  H    3.811104   2.628030   2.298113   4.503182   7.043481
    40  H    4.341932   3.799147   3.448219   5.209219   6.941649
    41  H    4.999988   4.198449   4.724922   6.952892   9.225586
    42  H    5.025895   5.044115   6.239673   8.459072  10.095646
    43  H    5.025895   5.044116   5.644922   7.589286   8.906119
    44  H    4.150371   4.985901   6.249512   8.135723   8.960027
    45  H    3.772501   4.336187   4.691896   6.166671   6.750883
    46  H    2.562537   3.763447   4.708827   6.187135   6.680131
    47  H    3.772500   4.336186   6.259806   8.481610  10.024193
    48  H    2.562536   3.763446   5.680672   7.630214   8.769954
    49  H    3.503959   2.308620   4.012317   6.140567   8.966345
    50  H    5.261313   4.493483   6.140561   7.923520  10.713550
                   36         37         38         39         40
    36  H    0.000000
    37  H    3.620386   0.000000
    38  H    5.373017   2.419523   0.000000
    39  H    6.598037   5.979344   4.581060   0.000000
    40  H    6.874372   5.433040   3.793447   1.755425   0.000000
    41  H    8.963556   7.777739   5.893522   2.459543   2.485139
    42  H   10.175700   8.213542   5.915520   4.291990   3.753195
    43  H    9.107242   6.957696   4.769701   3.738984   2.549127
    44  H    9.382676   6.819125   4.399895   4.974531   4.147850
    45  H    7.221309   4.618248   2.296395   3.780648   2.570077
    46  H    7.157170   4.637940   2.316101   4.350357   3.776469
    47  H   10.109326   8.222728   5.917458   5.008224   5.003994
    48  H    8.980865   6.980459   4.780544   5.026898   5.010148
    49  H    8.280813   8.234424   6.825952   3.923815   5.401225
    50  H    9.927448  10.202124   8.917434   6.344583   7.827289
                   41         42         43         44         45
    41  H    0.000000
    42  H    2.488425   0.000000
    43  H    2.488424   1.761675   0.000000
    44  H    4.290587   2.489210   2.489210   0.000000
    45  H    4.136883   3.734556   2.531312   2.467592   0.000000
    46  H    4.972078   4.294947   3.743435   2.467206   1.764390
    47  H    4.136886   2.531312   3.734555   2.467590   4.279658
    48  H    4.972080   3.743436   4.294947   2.467205   3.725971
    49  H    4.724909   5.644910   6.239666   6.249510   6.259811
    50  H    6.952878   7.589270   8.459062   8.135720   8.481614
                   46         47         48         49         50
    46  H    0.000000
    47  H    3.725970   0.000000
    48  H    2.516505   1.764390   0.000000
    49  H    5.680681   4.691890   4.708831   0.000000
    50  H    7.630224   6.166663   6.187139   2.432045   0.000000
 Stoichiometry    C22H26N2
 Framework group  C1[X(C22H26N2)]
 Deg. of freedom   144
 Full point group                 C1      NOp   1
 Largest Abelian subgroup         C1      NOp   1
 Largest concise Abelian subgroup C1      NOp   1
                         Standard orientation:                         
 ---------------------------------------------------------------------
 Center     Atomic      Atomic             Coordinates (Angstroms)
 Number     Number       Type             X           Y           Z
 ---------------------------------------------------------------------
      1          7           0        5.959129   -2.630529   -0.168501
      2          6           0        4.787309   -1.866378   -0.186627
      3          6           0        4.646450   -0.809959   -1.083204
      4          6           0        3.528941    0.035562   -1.034847
      5          6           0        2.534745   -0.122917   -0.057579
      6          6           0        1.294125    0.783538    0.026880
      7          6           0        1.254309    1.505831    1.404654
      8          6           0       -0.000002   -0.071327   -0.121721
      9          6           0       -1.294127    0.783540    0.026882
     10          6           0       -2.534748   -0.122913   -0.057575
     11          6           0       -2.724482   -1.156010    0.878760
     12          6           0       -3.842297   -1.998195    0.826773
     13          6           0       -4.787308   -1.866380   -0.186627
     14          7           0       -5.959123   -2.630536   -0.168504
     15          6           0       -4.646458   -0.809952   -1.083194
     16          6           0       -3.528949    0.035572   -1.034837
     17          6           0       -1.254308    1.505832    1.404656
     18          6           0        0.000001    2.385258    1.536256
     19          6           0        0.000002    3.446712    0.432874
     20          6           0       -0.000001    2.762108   -0.936875
     21          6           0       -1.250992    1.884378   -1.071948
     22          6           0        1.250988    1.884376   -1.071951
     23          6           0        2.724487   -1.156004    0.878763
     24          6           0        3.842306   -1.998184    0.826780
     25          1           0        5.847577   -3.536458    0.275280
     26          1           0        6.415234   -2.697939   -1.072673
     27          1           0        5.407556   -0.629845   -1.837812
     28          1           0        3.474906    0.824633   -1.779131
     29          1           0        2.153753    2.123524    1.531117
     30          1           0        1.260497    0.784189    2.230969
     31          1           0       -0.000003   -0.579466   -1.097107
     32          1           0       -0.000001   -0.872761    0.627163
     33          1           0       -2.006152   -1.318355    1.679046
     34          1           0       -3.961751   -2.761507    1.590735
     35          1           0       -6.415240   -2.697936   -1.072669
     36          1           0       -5.847570   -3.536469    0.275272
     37          1           0       -5.407566   -0.629835   -1.837799
     38          1           0       -3.474917    0.824645   -1.779118
     39          1           0       -1.260497    0.784190    2.230972
     40          1           0       -2.153752    2.123526    1.531120
     41          1           0        0.000002    2.876875    2.515867
     42          1           0        0.880840    4.092929    0.531529
     43          1           0       -0.880835    4.092931    0.531531
     44          1           0       -0.000000    3.523014   -1.725789
     45          1           0       -2.139830    2.526144   -1.007187
     46          1           0       -1.258256    1.429092   -2.071318
     47          1           0        2.139828    2.526141   -1.007193
     48          1           0        1.258249    1.429090   -2.071322
     49          1           0        2.006165   -1.318339    1.679057
     50          1           0        3.961769   -2.761481    1.590752
 ---------------------------------------------------------------------
 Rotational constants (GHZ):           0.3910810           0.1352953           0.1126235
 Standard basis: 6-31G(d,p) (6D, 7F)
 There are   490 symmetry adapted cartesian basis functions of A   symmetry.
 There are   490 symmetry adapted basis functions of A   symmetry.
   490 basis functions,   854 primitive gaussians,   490 cartesian basis functions
    86 alpha electrons       86 beta electrons
       nuclear repulsion energy      2033.3928356465 Hartrees.
 NAtoms=   50 NActive=   50 NUniq=   50 SFac= 1.00D+00 NAtFMM=   60 NAOKFM=F Big=F
 Integral buffers will be    131072 words long.
 Raffenetti 2 integral format.
 Two-electron integral symmetry is turned on.
 Force inversion solution in PCM.
 ------------------------------------------------------------------------------
 Polarizable Continuum Model (PCM)
 =================================
 Model                : PCM.
 Atomic radii         : UFF (Universal Force Field).
 Polarization charges : Total charges.
 Charge compensation  : None.
 Solution method      : Matrix inversion.
 Cavity type          : Scaled VdW (van der Waals Surface) (Alpha=1.100).
 Cavity algorithm     : GePol (No added spheres)
                        Default sphere list used, NSphG=   50.
                        Lebedev-Laikov grids with approx.  5.0 points / Ang**2.
                        Smoothing algorithm: York/Karplus (Gamma=1.0000).
                        Polarization charges: spherical gaussians, with
                                              point-specific exponents (IZeta= 3).
                        Self-potential: point-specific (ISelfS= 7).
                        Self-field    : sphere-specific E.n sum rule (ISelfD= 2).
 1st derivatives      : Analytical E(r).r(x)/FMM algorithm (CHGder, D1EAlg=3).
                        Cavity 1st derivative terms included.
 2nd derivatives      : Analytical E(r).r(xy)/FMM algorithm (CHGder, D2EAlg=3).
                        Cavity 2nd derivative terms included.
 Solvent              : Water, Eps=  78.355300 Eps(inf)=   1.777849
 ------------------------------------------------------------------------------
 One-electron integrals computed using PRISM.
 NBasis=   490 RedAO= T EigKep=  4.15D-04  NBF=   490
 NBsUse=   490 1.00D-06 EigRej= -1.00D+00 NBFU=   490
 ExpMin= 1.61D-01 ExpMax= 4.17D+03 ExpMxC= 6.27D+02 IAcc=3 IRadAn=         5 AccDes= 0.00D+00
 Harris functional with IExCor=  402 and IRadAn=       5 diagonalized for initial guess.
 HarFok:  IExCor=  402 AccDes= 0.00D+00 IRadAn=         5 IDoV= 1 UseB2=F ITyADJ=14
 ICtDFT=  3500011 ScaDFX=  1.000000  1.000000  1.000000  1.000000
 FoFCou: FMM=F IPFlag=           0 FMFlag=      100000 FMFlg1=           0
         NFxFlg=           0 DoJE=T BraDBF=F KetDBF=T FulRan=T
         wScrn=  0.000000 ICntrl=       500 IOpCl=  0 I1Cent=   200000004 NGrid=           0
         NMat0=    1 NMatS0=      1 NMatT0=    0 NMatD0=    1 NMtDS0=    0 NMtDT0=    0
 Petite list used in FoFCou.
 Requested convergence on RMS density matrix=1.00D-08 within  32 cycles.
 Requested convergence on MAX density matrix=1.00D-06.
 Requested convergence on             energy=1.00D-06.
 No special actions if energy rises.
 Inv3:  Mode=1 IEnd=    27999075.
 Iteration    1 A*A^-1 deviation from unit magnitude is 4.00D-15 for    373.
 Iteration    1 A*A^-1 deviation from orthogonality  is 2.44D-15 for   2754   1267.
 Iteration    1 A^-1*A deviation from unit magnitude is 4.00D-15 for    373.
 Iteration    1 A^-1*A deviation from orthogonality  is 2.91D-15 for   2097   1742.
 Error on total polarization charges =  0.01233
 SCF Done:  E(RB3LYP) =  -963.579591060     A.U. after   12 cycles
            NFock= 12  Conv=0.53D-08     -V/T= 2.0098
 QCSCF skips out because SCF is already converged.
 DoSCS=F DFT=T ScalE2(SS,OS)=  1.000000  1.000000
 Range of M.O.s used for correlation:     1   490
 NBasis=   490 NAE=    86 NBE=    86 NFC=     0 NFV=     0
 NROrb=    490 NOA=    86 NOB=    86 NVA=   404 NVB=   404
 Symmetrizing basis deriv contribution to polar:
 IMax=3 JMax=2 DiffMx= 0.00D+00
 G2DrvN: will do    51 centers at a time, making    1 passes.
 Calling FoFCou, ICntrl=  3107 FMM=F I1Cent=   0 AccDes= 0.00D+00.
 NEqPCM:  Using equilibrium solvation (IEInf=0, Eps=  78.3553, EpsInf=   1.7778)
 G2PCM: DoFxE=T DoFxN=T DoGrad=T DoDP/DQ/DG/TGxP=FFFF NFrqRd=   0 IEInf=0 SqF1=F DoCFld=F IF1Alg=4.
 End of G2Drv F.D. properties file   721 does not exist.
 End of G2Drv F.D. properties file   722 does not exist.
 End of G2Drv F.D. properties file   788 does not exist.
          IDoAtm=11111111111111111111111111111111111111111111111111
 NEqPCM:  Using equilibrium solvation (IEInf=0, Eps=  78.3553, EpsInf=   1.7778)
          Differentiating once with respect to nuclear coordinates.
 CalDSu exits because no D1Ps are significant.
          There are   153 degrees of freedom in the 1st order CPHF.  IDoFFX=6 NUNeed=     0.
    147 vectors produced by pass  0 Test12= 3.47D-14 1.00D-09 XBig12= 1.08D-01 6.77D-02.
 AX will form   147 AO Fock derivatives at one time.
    147 vectors produced by pass  1 Test12= 3.47D-14 1.00D-09 XBig12= 1.38D-02 1.87D-02.
    147 vectors produced by pass  2 Test12= 3.47D-14 1.00D-09 XBig12= 1.01D-04 1.02D-03.
    147 vectors produced by pass  3 Test12= 3.47D-14 1.00D-09 XBig12= 2.22D-07 3.97D-05.
    147 vectors produced by pass  4 Test12= 3.47D-14 1.00D-09 XBig12= 2.74D-10 1.29D-06.
     89 vectors produced by pass  5 Test12= 3.47D-14 1.00D-09 XBig12= 2.81D-13 3.86D-08.
      4 vectors produced by pass  6 Test12= 3.47D-14 1.00D-09 XBig12= 2.39D-16 1.11D-09.
 InvSVY:  IOpt=1 It=  1 EMax= 5.55D-16
 Solved reduced A of dimension   828 with   153 vectors.
 End of Minotr F.D. properties file   721 does not exist.
 End of Minotr F.D. properties file   722 does not exist.
 End of Minotr F.D. properties file   788 does not exist.

 **********************************************************************

            Population analysis using the SCF density.

 **********************************************************************

 Orbital symmetries:
       Occupied  (A) (A) (A) (A) (A) (A) (A) (A) (A) (A) (A) (A)
                 (A) (A) (A) (A) (A) (A) (A) (A) (A) (A) (A) (A)
                 (A) (A) (A) (A) (A) (A) (A) (A) (A) (A) (A) (A)
                 (A) (A) (A) (A) (A) (A) (A) (A) (A) (A) (A) (A)
                 (A) (A) (A) (A) (A) (A) (A) (A) (A) (A) (A) (A)
                 (A) (A) (A) (A) (A) (A) (A) (A) (A) (A) (A) (A)
                 (A) (A) (A) (A) (A) (A) (A) (A) (A) (A) (A) (A)
                 (A) (A)
       Virtual   (A) (A) (A) (A) (A) (A) (A) (A) (A) (A) (A) (A)
                 (A) (A) (A) (A) (A) (A) (A) (A) (A) (A) (A) (A)
                 (A) (A) (A) (A) (A) (A) (A) (A) (A) (A) (A) (A)
                 (A) (A) (A) (A) (A) (A) (A) (A) (A) (A) (A) (A)
                 (A) (A) (A) (A) (A) (A) (A) (A) (A) (A) (A) (A)
                 (A) (A) (A) (A) (A) (A) (A) (A) (A) (A) (A) (A)
                 (A) (A) (A) (A) (A) (A) (A) (A) (A) (A) (A) (A)
                 (A) (A) (A) (A) (A) (A) (A) (A) (A) (A) (A) (A)
                 (A) (A) (A) (A) (A) (A) (A) (A) (A) (A) (A) (A)
                 (A) (A) (A) (A) (A) (A) (A) (A) (A) (A) (A) (A)
                 (A) (A) (A) (A) (A) (A) (A) (A) (A) (A) (A) (A)
                 (A) (A) (A) (A) (A) (A) (A) (A) (A) (A) (A) (A)
                 (A) (A) (A) (A) (A) (A) (A) (A) (A) (A) (A) (A)
                 (A) (A) (A) (A) (A) (A) (A) (A) (A) (A) (A) (A)
                 (A) (A) (A) (A) (A) (A) (A) (A) (A) (A) (A) (A)
                 (A) (A) (A) (A) (A) (A) (A) (A) (A) (A) (A) (A)
                 (A) (A) (A) (A) (A) (A) (A) (A) (A) (A) (A) (A)
                 (A) (A) (A) (A) (A) (A) (A) (A) (A) (A) (A) (A)
                 (A) (A) (A) (A) (A) (A) (A) (A) (A) (A) (A) (A)
                 (A) (A) (A) (A) (A) (A) (A) (A) (A) (A) (A) (A)
                 (A) (A) (A) (A) (A) (A) (A) (A) (A) (A) (A) (A)
                 (A) (A) (A) (A) (A) (A) (A) (A) (A) (A) (A) (A)
                 (A) (A) (A) (A) (A) (A) (A) (A) (A) (A) (A) (A)
                 (A) (A) (A) (A) (A) (A) (A) (A) (A) (A) (A) (A)
                 (A) (A) (A) (A) (A) (A) (A) (A) (A) (A) (A) (A)
                 (A) (A) (A) (A) (A) (A) (A) (A) (A) (A) (A) (A)
                 (A) (A) (A) (A) (A) (A) (A) (A) (A) (A) (A) (A)
                 (A) (A) (A) (A) (A) (A) (A) (A) (A) (A) (A) (A)
                 (A) (A) (A) (A) (A) (A) (A) (A) (A) (A) (A) (A)
                 (A) (A) (A) (A) (A) (A) (A) (A) (A) (A) (A) (A)
                 (A) (A) (A) (A) (A) (A) (A) (A) (A) (A) (A) (A)
                 (A) (A) (A) (A) (A) (A) (A) (A) (A) (A) (A) (A)
                 (A) (A) (A) (A) (A) (A) (A) (A) (A) (A) (A) (A)
                 (A) (A) (A) (A) (A) (A) (A) (A)
 The electronic state is 1-A.
 Alpha  occ. eigenvalues --  -14.33330 -14.33330 -10.22020 -10.22020 -10.19416
 Alpha  occ. eigenvalues --  -10.19416 -10.18357 -10.18357 -10.18269 -10.18269
 Alpha  occ. eigenvalues --  -10.18193 -10.18193 -10.17878 -10.17878 -10.17803
 Alpha  occ. eigenvalues --  -10.17756 -10.17756 -10.17662 -10.17386 -10.17162
 Alpha  occ. eigenvalues --  -10.17161 -10.17148 -10.17146 -10.16814  -0.91131
 Alpha  occ. eigenvalues --   -0.91126  -0.86986  -0.83625  -0.82783  -0.77452
 Alpha  occ. eigenvalues --   -0.77066  -0.76353  -0.73700  -0.73632  -0.70909
 Alpha  occ. eigenvalues --   -0.70469  -0.66306  -0.66255  -0.61130  -0.60797
 Alpha  occ. eigenvalues --   -0.60220  -0.59927  -0.57182  -0.56254  -0.55235
 Alpha  occ. eigenvalues --   -0.52271  -0.50787  -0.50041  -0.49902  -0.49631
 Alpha  occ. eigenvalues --   -0.47156  -0.44604  -0.44561  -0.44460  -0.44411
 Alpha  occ. eigenvalues --   -0.42840  -0.42526  -0.42284  -0.41357  -0.41304
 Alpha  occ. eigenvalues --   -0.41113  -0.41027  -0.40526  -0.39478  -0.38413
 Alpha  occ. eigenvalues --   -0.38161  -0.37635  -0.37476  -0.35167  -0.35062
 Alpha  occ. eigenvalues --   -0.34190  -0.34049  -0.33076  -0.32411  -0.31793
 Alpha  occ. eigenvalues --   -0.31695  -0.31120  -0.30390  -0.29233  -0.27861
 Alpha  occ. eigenvalues --   -0.27756  -0.27180  -0.24404  -0.24380  -0.20108
 Alpha  occ. eigenvalues --   -0.19587
 Alpha virt. eigenvalues --    0.00051   0.00100   0.01563   0.02347   0.07316
 Alpha virt. eigenvalues --    0.09409   0.09556   0.10170   0.11344   0.11929
 Alpha virt. eigenvalues --    0.12942   0.12953   0.13494   0.13668   0.13775
 Alpha virt. eigenvalues --    0.14633   0.15293   0.15938   0.15949   0.16576
 Alpha virt. eigenvalues --    0.16745   0.17243   0.18177   0.18512   0.19003
 Alpha virt. eigenvalues --    0.19315   0.19707   0.20700   0.20841   0.21239
 Alpha virt. eigenvalues --    0.22676   0.22921   0.22970   0.23019   0.24154
 Alpha virt. eigenvalues --    0.24218   0.24315   0.25551   0.25767   0.27148
 Alpha virt. eigenvalues --    0.27452   0.28527   0.29978   0.30328   0.30498
 Alpha virt. eigenvalues --    0.30832   0.31004   0.32159   0.34488   0.34893
 Alpha virt. eigenvalues --    0.35141   0.36153   0.36519   0.36877   0.39310
 Alpha virt. eigenvalues --    0.39507   0.48303   0.49575   0.50766   0.51353
 Alpha virt. eigenvalues --    0.51984   0.52174   0.53424   0.54405   0.54489
 Alpha virt. eigenvalues --    0.54530   0.55172   0.55743   0.56141   0.56482
 Alpha virt. eigenvalues --    0.57527   0.58456   0.58943   0.59414   0.59782
 Alpha virt. eigenvalues --    0.60188   0.60295   0.60659   0.60771   0.60940
 Alpha virt. eigenvalues --    0.61455   0.62414   0.63074   0.63386   0.63784
 Alpha virt. eigenvalues --    0.64151   0.65827   0.66335   0.67908   0.68358
 Alpha virt. eigenvalues --    0.68884   0.68909   0.69967   0.70578   0.70710
 Alpha virt. eigenvalues --    0.70910   0.72073   0.73726   0.74873   0.75503
 Alpha virt. eigenvalues --    0.75727   0.76531   0.76670   0.77627   0.78875
 Alpha virt. eigenvalues --    0.79595   0.79825   0.80807   0.81629   0.82579
 Alpha virt. eigenvalues --    0.82648   0.83014   0.83044   0.83795   0.84615
 Alpha virt. eigenvalues --    0.84837   0.85414   0.86186   0.86217   0.86705
 Alpha virt. eigenvalues --    0.87364   0.88018   0.88259   0.88950   0.89144
 Alpha virt. eigenvalues --    0.89470   0.89548   0.90474   0.91573   0.92429
 Alpha virt. eigenvalues --    0.92578   0.93298   0.94720   0.95038   0.95856
 Alpha virt. eigenvalues --    0.95924   0.97793   0.98209   0.99033   0.99083
 Alpha virt. eigenvalues --    1.00032   1.00181   1.01808   1.01992   1.02972
 Alpha virt. eigenvalues --    1.05280   1.07274   1.08503   1.09481   1.11639
 Alpha virt. eigenvalues --    1.11853   1.14182   1.14404   1.15534   1.16597
 Alpha virt. eigenvalues --    1.17630   1.17778   1.18790   1.18873   1.19404
 Alpha virt. eigenvalues --    1.21102   1.21604   1.22273   1.25353   1.27179
 Alpha virt. eigenvalues --    1.28006   1.29432   1.31759   1.32228   1.35573
 Alpha virt. eigenvalues --    1.38140   1.38916   1.39420   1.41019   1.41374
 Alpha virt. eigenvalues --    1.41559   1.41980   1.42454   1.43418   1.45442
 Alpha virt. eigenvalues --    1.46001   1.47722   1.47990   1.49075   1.49137
 Alpha virt. eigenvalues --    1.49363   1.53155   1.54112   1.58250   1.61657
 Alpha virt. eigenvalues --    1.63223   1.67914   1.68173   1.69225   1.72326
 Alpha virt. eigenvalues --    1.73840   1.74187   1.75735   1.76381   1.76894
 Alpha virt. eigenvalues --    1.77228   1.78188   1.79328   1.79886   1.81024
 Alpha virt. eigenvalues --    1.81068   1.81520   1.81974   1.82337   1.83476
 Alpha virt. eigenvalues --    1.84829   1.85153   1.86260   1.86922   1.89364
 Alpha virt. eigenvalues --    1.89528   1.91038   1.91660   1.92177   1.93210
 Alpha virt. eigenvalues --    1.93492   1.94245   1.94559   1.94621   1.95697
 Alpha virt. eigenvalues --    1.95912   1.96624   1.97257   1.97517   1.98200
 Alpha virt. eigenvalues --    1.98970   1.99227   1.99450   2.00715   2.00793
 Alpha virt. eigenvalues --    2.02996   2.04222   2.05401   2.07683   2.08457
 Alpha virt. eigenvalues --    2.09084   2.09885   2.10582   2.12226   2.13546
 Alpha virt. eigenvalues --    2.13964   2.14710   2.15863   2.16102   2.16623
 Alpha virt. eigenvalues --    2.16994   2.17402   2.19167   2.21468   2.22918
 Alpha virt. eigenvalues --    2.23302   2.23558   2.24822   2.25115   2.27218
 Alpha virt. eigenvalues --    2.27233   2.29994   2.30166   2.30858   2.30981
 Alpha virt. eigenvalues --    2.31745   2.32788   2.34057   2.34607   2.35526
 Alpha virt. eigenvalues --    2.36006   2.36123   2.37134   2.37758   2.38759
 Alpha virt. eigenvalues --    2.38956   2.40280   2.41382   2.41933   2.42393
 Alpha virt. eigenvalues --    2.43106   2.44332   2.45155   2.45833   2.46407
 Alpha virt. eigenvalues --    2.46585   2.47103   2.47543   2.47789   2.48004
 Alpha virt. eigenvalues --    2.49120   2.49212   2.50045   2.50635   2.50733
 Alpha virt. eigenvalues --    2.53139   2.53246   2.55269   2.55505   2.56190
 Alpha virt. eigenvalues --    2.57366   2.57957   2.59256   2.59732   2.60006
 Alpha virt. eigenvalues --    2.61038   2.61921   2.62863   2.65428   2.65621
 Alpha virt. eigenvalues --    2.66707   2.67054   2.69460   2.70302   2.72828
 Alpha virt. eigenvalues --    2.73532   2.74884   2.74975   2.77038   2.77156
 Alpha virt. eigenvalues --    2.77199   2.78930   2.79451   2.81155   2.82108
 Alpha virt. eigenvalues --    2.83470   2.83591   2.85410   2.86357   2.86996
 Alpha virt. eigenvalues --    2.87409   2.87864   2.91254   2.91292   2.91925
 Alpha virt. eigenvalues --    2.92639   2.93390   2.95054   2.96347   2.96365
 Alpha virt. eigenvalues --    2.96991   2.97943   2.98503   2.98920   3.03816
 Alpha virt. eigenvalues --    3.04321   3.05631   3.08126   3.08464   3.09736
 Alpha virt. eigenvalues --    3.19900   3.20261   3.24418   3.26468   3.26576
 Alpha virt. eigenvalues --    3.28768   3.28819   3.30140   3.31155   3.31793
 Alpha virt. eigenvalues --    3.33401   3.35526   3.39245   3.39280   3.40248
 Alpha virt. eigenvalues --    3.40492   3.44252   3.46603   3.48074   3.48623
 Alpha virt. eigenvalues --    3.48715   3.49114   3.49197   3.52533   3.52581
 Alpha virt. eigenvalues --    3.53661   3.54071   3.54967   3.82491   3.82530
 Alpha virt. eigenvalues --    4.04591   4.04672   4.14393   4.14665   4.16427
 Alpha virt. eigenvalues --    4.16530   4.21742   4.25472   4.34261   4.42178
 Alpha virt. eigenvalues --    4.44115   4.46364   4.46426   4.51156   4.53372
 Alpha virt. eigenvalues --    4.54378   4.77840   4.78395   4.79344   4.82582
 Alpha virt. eigenvalues --    4.86497   4.94098   4.95650   4.97293
          Condensed to atoms (all electrons):
               1          2          3          4          5          6
     1  N    6.839812   0.294772  -0.071039   0.004466   0.000588   0.000002
     2  C    0.294772   4.571788   0.542493  -0.023817  -0.029442   0.000471
     3  C   -0.071039   0.542493   4.982395   0.497620  -0.033498   0.006677
     4  C    0.004466  -0.023817   0.497620   4.931574   0.544548  -0.049564
     5  C    0.000588  -0.029442  -0.033498   0.544548   4.795713   0.346627
     6  C    0.000002   0.000471   0.006677  -0.049564   0.346627   5.008252
     7  C    0.000000   0.000020  -0.000183   0.001270  -0.044567   0.370349
     8  C   -0.000000  -0.000017  -0.000116   0.000735  -0.043380   0.346019
     9  C    0.000000   0.000000   0.000001  -0.000052   0.003727  -0.019533
    10  C   -0.000000   0.000000  -0.000000   0.000001  -0.000064   0.003727
    11  C   -0.000000  -0.000000   0.000000  -0.000000  -0.000006   0.000327
    12  C   -0.000000  -0.000000   0.000000  -0.000000  -0.000000  -0.000002
    13  C    0.000000   0.000000  -0.000000   0.000000   0.000000   0.000000
    14  N    0.000000   0.000000   0.000000  -0.000000  -0.000000   0.000000
    15  C    0.000000  -0.000000  -0.000000  -0.000000  -0.000000   0.000001
    16  C   -0.000000   0.000000  -0.000000   0.000000   0.000001  -0.000052
    17  C    0.000000  -0.000000  -0.000000  -0.000001   0.000087  -0.015693
    18  C   -0.000000  -0.000000   0.000002  -0.000072   0.004157  -0.026368
    19  C    0.000000  -0.000000   0.000000  -0.000012   0.000005  -0.018509
    20  C   -0.000000   0.000000  -0.000008   0.000390   0.003624  -0.022208
    21  C    0.000000  -0.000000   0.000000  -0.000014  -0.000055  -0.016279
    22  C   -0.000000  -0.000017   0.000241  -0.008953  -0.037315   0.370021
    23  C    0.004519  -0.024793  -0.046357  -0.049136   0.519170  -0.051594
    24  C   -0.071081   0.539454  -0.050169  -0.044452  -0.031015   0.004956
    25  H    0.343283  -0.025307   0.005541  -0.000171  -0.000004  -0.000000
[...]
   279    C   19  pz     Val( 2p)     1.03364
   280    C   19  pz     Ryd( 3p)     0.00183
   281    C   19  dxy    Ryd( 3d)     0.00112
   282    C   19  dxz    Ryd( 3d)     0.00026
   283    C   19  dyz    Ryd( 3d)     0.00072
   284    C   19  dx2y2  Ryd( 3d)     0.00028
   285    C   19  dz2    Ryd( 3d)     0.00086

   286    C   20  S      Cor( 1S)     1.99921
   287    C   20  S      Val( 2S)     0.95949
   288    C   20  S      Ryd( 3S)     0.00049
   289    C   20  S      Ryd( 4S)     0.00002
   290    C   20  px     Val( 2p)     1.02624
   291    C   20  px     Ryd( 3p)     0.00209
   292    C   20  py     Val( 2p)     1.11427
   293    C   20  py     Ryd( 3p)     0.00424
   294    C   20  pz     Val( 2p)     1.13321
   295    C   20  pz     Ryd( 3p)     0.00469
   296    C   20  dxy    Ryd( 3d)     0.00087
   297    C   20  dxz    Ryd( 3d)     0.00035
   298    C   20  dyz    Ryd( 3d)     0.00102
   299    C   20  dx2y2  Ryd( 3d)     0.00054
   300    C   20  dz2    Ryd( 3d)     0.00073

   301    C   21  S      Cor( 1S)     1.99926
   302    C   21  S      Val( 2S)     1.01528
   303    C   21  S      Ryd( 3S)     0.00087
   304    C   21  S      Ryd( 4S)     0.00002
   305    C   21  px     Val( 2p)     1.15168
   306    C   21  px     Ryd( 3p)     0.00308
   307    C   21  py     Val( 2p)     1.12274
   308    C   21  py     Ryd( 3p)     0.00326
   309    C   21  pz     Val( 2p)     1.16536
   310    C   21  pz     Ryd( 3p)     0.00357
   311    C   21  dxy    Ryd( 3d)     0.00092
   312    C   21  dxz    Ryd( 3d)     0.00020
   313    C   21  dyz    Ryd( 3d)     0.00084
   314    C   21  dx2y2  Ryd( 3d)     0.00043
   315    C   21  dz2    Ryd( 3d)     0.00085

   316    C   22  S      Cor( 1S)     1.99926
   317    C   22  S      Val( 2S)     1.01528
   318    C   22  S      Ryd( 3S)     0.00087
   319    C   22  S      Ryd( 4S)     0.00002
   320    C   22  px     Val( 2p)     1.15168
   321    C   22  px     Ryd( 3p)     0.00308
   322    C   22  py     Val( 2p)     1.12274
   323    C   22  py     Ryd( 3p)     0.00326
   324    C   22  pz     Val( 2p)     1.16536
   325    C   22  pz     Ryd( 3p)     0.00357
   326    C   22  dxy    Ryd( 3d)     0.00092
   327    C   22  dxz    Ryd( 3d)     0.00020
   328    C   22  dyz    Ryd( 3d)     0.00084
   329    C   22  dx2y2  Ryd( 3d)     0.00043
   330    C   22  dz2    Ryd( 3d)     0.00085

   331    C   23  S      Cor( 1S)     1.99907
   332    C   23  S      Val( 2S)     0.94058
   333    C   23  S      Ryd( 3S)     0.00073
   334    C   23  S      Ryd( 4S)     0.00005
   335    C   23  px     Val( 2p)     1.12725
   336    C   23  px     Ryd( 3p)     0.00371
   337    C   23  py     Val( 2p)     1.06728
   338    C   23  py     Ryd( 3p)     0.00397
   339    C   23  pz     Val( 2p)     1.13599
   340    C   23  pz     Ryd( 3p)     0.00451
   341    C   23  dxy    Ryd( 3d)     0.00046
   342    C   23  dxz    Ryd( 3d)     0.00065
   343    C   23  dyz    Ryd( 3d)     0.00046
   344    C   23  dx2y2  Ryd( 3d)     0.00062
   345    C   23  dz2    Ryd( 3d)     0.00044

   346    C   24  S      Cor( 1S)     1.99905
   347    C   24  S      Val( 2S)     0.94958
   348    C   24  S      Ryd( 3S)     0.00071
   349    C   24  S      Ryd( 4S)     0.00004
   350    C   24  px     Val( 2p)     1.07059
   351    C   24  px     Ryd( 3p)     0.00445
   352    C   24  py     Val( 2p)     1.15128
   353    C   24  py     Ryd( 3p)     0.00446
   354    C   24  pz     Val( 2p)     1.12975
   355    C   24  pz     Ryd( 3p)     0.00434
   356    C   24  dxy    Ryd( 3d)     0.00045
   357    C   24  dxz    Ryd( 3d)     0.00055
   358    C   24  dyz    Ryd( 3d)     0.00057
   359    C   24  dx2y2  Ryd( 3d)     0.00057
   360    C   24  dz2    Ryd( 3d)     0.00041

   361    H   25  S      Val( 1S)     0.57597
   362    H   25  S      Ryd( 2S)     0.00152
   363    H   25  px     Ryd( 2p)     0.00031
   364    H   25  py     Ryd( 2p)     0.00059
   365    H   25  pz     Ryd( 2p)     0.00035

   366    H   26  S      Val( 1S)     0.57629
   367    H   26  S      Ryd( 2S)     0.00159
   368    H   26  px     Ryd( 2p)     0.00038
   369    H   26  py     Ryd( 2p)     0.00026
   370    H   26  pz     Ryd( 2p)     0.00060

   371    H   27  S      Val( 1S)     0.76243
   372    H   27  S      Ryd( 2S)     0.00109
   373    H   27  px     Ryd( 2p)     0.00024
   374    H   27  py     Ryd( 2p)     0.00011
   375    H   27  pz     Ryd( 2p)     0.00027

   376    H   28  S      Val( 1S)     0.76071
   377    H   28  S      Ryd( 2S)     0.00096
   378    H   28  px     Ryd( 2p)     0.00010
   379    H   28  py     Ryd( 2p)     0.00028
   380    H   28  pz     Ryd( 2p)     0.00026

   381    H   29  S      Val( 1S)     0.75488
   382    H   29  S      Ryd( 2S)     0.00151
   383    H   29  px     Ryd( 2p)     0.00028
   384    H   29  py     Ryd( 2p)     0.00017
   385    H   29  pz     Ryd( 2p)     0.00009

   386    H   30  S      Val( 1S)     0.75675
   387    H   30  S      Ryd( 2S)     0.00151
   388    H   30  px     Ryd( 2p)     0.00009
   389    H   30  py     Ryd( 2p)     0.00020
   390    H   30  pz     Ryd( 2p)     0.00025

   391    H   31  S      Val( 1S)     0.75181
   392    H   31  S      Ryd( 2S)     0.00169
   393    H   31  px     Ryd( 2p)     0.00009
   394    H   31  py     Ryd( 2p)     0.00015
   395    H   31  pz     Ryd( 2p)     0.00030

   396    H   32  S      Val( 1S)     0.75376
   397    H   32  S      Ryd( 2S)     0.00150
   398    H   32  px     Ryd( 2p)     0.00009
   399    H   32  py     Ryd( 2p)     0.00024
   400    H   32  pz     Ryd( 2p)     0.00021

   401    H   33  S      Val( 1S)     0.76507
   402    H   33  S      Ryd( 2S)     0.00097
   403    H   33  px     Ryd( 2p)     0.00025
   404    H   33  py     Ryd( 2p)     0.00012
   405    H   33  pz     Ryd( 2p)     0.00028

   406    H   34  S      Val( 1S)     0.76230
   407    H   34  S      Ryd( 2S)     0.00108
   408    H   34  px     Ryd( 2p)     0.00009
   409    H   34  py     Ryd( 2p)     0.00028
   410    H   34  pz     Ryd( 2p)     0.00027

   411    H   35  S      Val( 1S)     0.57629
   412    H   35  S      Ryd( 2S)     0.00159
   413    H   35  px     Ryd( 2p)     0.00038
   414    H   35  py     Ryd( 2p)     0.00026
   415    H   35  pz     Ryd( 2p)     0.00060

   416    H   36  S      Val( 1S)     0.57597
   417    H   36  S      Ryd( 2S)     0.00152
   418    H   36  px     Ryd( 2p)     0.00031
   419    H   36  py     Ryd( 2p)     0.00059
   420    H   36  pz     Ryd( 2p)     0.00035

   421    H   37  S      Val( 1S)     0.76243
   422    H   37  S      Ryd( 2S)     0.00109
   423    H   37  px     Ryd( 2p)     0.00024
   424    H   37  py     Ryd( 2p)     0.00011
   425    H   37  pz     Ryd( 2p)     0.00027

   426    H   38  S      Val( 1S)     0.76071
   427    H   38  S      Ryd( 2S)     0.00096
   428    H   38  px     Ryd( 2p)     0.00010
   429    H   38  py     Ryd( 2p)     0.00028
   430    H   38  pz     Ryd( 2p)     0.00026

   431    H   39  S      Val( 1S)     0.75675
   432    H   39  S      Ryd( 2S)     0.00151
   433    H   39  px     Ryd( 2p)     0.00009
   434    H   39  py     Ryd( 2p)     0.00020
   435    H   39  pz     Ryd( 2p)     0.00025

   436    H   40  S      Val( 1S)     0.75488
   437    H   40  S      Ryd( 2S)     0.00151
   438    H   40  px     Ryd( 2p)     0.00028
   439    H   40  py     Ryd( 2p)     0.00017
   440    H   40  pz     Ryd( 2p)     0.00009

   441    H   41  S      Val( 1S)     0.74188
   442    H   41  S      Ryd( 2S)     0.00149
   443    H   41  px     Ryd( 2p)     0.00010
   444    H   41  py     Ryd( 2p)     0.00015
   445    H   41  pz     Ryd( 2p)     0.00032

   446    H   42  S      Val( 1S)     0.75896
   447    H   42  S      Ryd( 2S)     0.00135
   448    H   42  px     Ryd( 2p)     0.00026
   449    H   42  py     Ryd( 2p)     0.00019
   450    H   42  pz     Ryd( 2p)     0.00010

   451    H   43  S      Val( 1S)     0.75896
   452    H   43  S      Ryd( 2S)     0.00135
   453    H   43  px     Ryd( 2p)     0.00026
   454    H   43  py     Ryd( 2p)     0.00019
   455    H   43  pz     Ryd( 2p)     0.00010

   456    H   44  S      Val( 1S)     0.74239
   457    H   44  S      Ryd( 2S)     0.00145
   458    H   44  px     Ryd( 2p)     0.00009
   459    H   44  py     Ryd( 2p)     0.00023
   460    H   44  pz     Ryd( 2p)     0.00025

   461    H   45  S      Val( 1S)     0.75513
   462    H   45  S      Ryd( 2S)     0.00178
   463    H   45  px     Ryd( 2p)     0.00027
   464    H   45  py     Ryd( 2p)     0.00020
   465    H   45  pz     Ryd( 2p)     0.00008

   466    H   46  S      Val( 1S)     0.75593
   467    H   46  S      Ryd( 2S)     0.00184
   468    H   46  px     Ryd( 2p)     0.00010
   469    H   46  py     Ryd( 2p)     0.00014
   470    H   46  pz     Ryd( 2p)     0.00032

   471    H   47  S      Val( 1S)     0.75513
   472    H   47  S      Ryd( 2S)     0.00178
   473    H   47  px     Ryd( 2p)     0.00027
   474    H   47  py     Ryd( 2p)     0.00020
   475    H   47  pz     Ryd( 2p)     0.00008

   476    H   48  S      Val( 1S)     0.75593
   477    H   48  S      Ryd( 2S)     0.00184
   478    H   48  px     Ryd( 2p)     0.00010
   479    H   48  py     Ryd( 2p)     0.00014
   480    H   48  pz     Ryd( 2p)     0.00032

   481    H   49  S      Val( 1S)     0.76507
   482    H   49  S      Ryd( 2S)     0.00097
   483    H   49  px     Ryd( 2p)     0.00025
   484    H   49  py     Ryd( 2p)     0.00012
   485    H   49  pz     Ryd( 2p)     0.00028

   486    H   50  S      Val( 1S)     0.76230
   487    H   50  S      Ryd( 2S)     0.00108
   488    H   50  px     Ryd( 2p)     0.00009
   489    H   50  py     Ryd( 2p)     0.00028
   490    H   50  pz     Ryd( 2p)     0.00027

 WARNING:  1 low occupancy (<1.9990e) core orbital  found on  C    2
           1 low occupancy (<1.9990e) core orbital  found on  C   13


 Summary of Natural Population Analysis:                  
                                                          
                                       Natural Population 
                Natural  -----------------------------------------------
    Atom  No    Charge         Core      Valence    Rydberg      Total
 -----------------------------------------------------------------------
      N    1   -0.77301      1.99949     5.76244    0.01107     7.77301
      C    2    0.17301      1.99897     3.81024    0.01778     5.82699
      C    3   -0.31938      1.99905     4.30384    0.01650     6.31938
      C    4   -0.27744      1.99906     4.26309    0.01528     6.27744
      C    5    0.00366      1.99902     3.97827    0.01904     5.99634
      C    6   -0.06658      1.99907     4.05174    0.01576     6.06658
      C    7   -0.45586      1.99924     4.44225    0.01436     6.45586
      C    8   -0.44572      1.99921     4.43127    0.01523     6.44572
      C    9   -0.06658      1.99907     4.05174    0.01576     6.06658
      C   10    0.00366      1.99902     3.97827    0.01904     5.99634
      C   11   -0.28577      1.99907     4.27110    0.01560     6.28577
      C   12   -0.31679      1.99905     4.30121    0.01654     6.31679
      C   13    0.17301      1.99897     3.81024    0.01778     5.82699
      N   14   -0.77300      1.99949     5.76244    0.01107     7.77300
      C   15   -0.31938      1.99905     4.30384    0.01650     6.31938
      C   16   -0.27744      1.99906     4.26309    0.01528     6.27744
      C   17   -0.45586      1.99924     4.44225    0.01436     6.45586
      C   18   -0.25469      1.99920     4.24042    0.01507     6.25469
      C   19   -0.46617      1.99927     4.45313    0.01377     6.46617
      C   20   -0.24746      1.99921     4.23321    0.01504     6.24746
      C   21   -0.46836      1.99926     4.45506    0.01404     6.46836
      C   22   -0.46836      1.99926     4.45506    0.01404     6.46836
      C   23   -0.28577      1.99907     4.27110    0.01560     6.28577
      C   24   -0.31679      1.99905     4.30121    0.01654     6.31679
      H   25    0.42126      0.00000     0.57597    0.00277     0.57874
      H   26    0.42088      0.00000     0.57629    0.00283     0.57912
      H   27    0.23585      0.00000     0.76243    0.00172     0.76415
      H   28    0.23769      0.00000     0.76071    0.00160     0.76231
      H   29    0.24306      0.00000     0.75488    0.00205     0.75694
      H   30    0.24120      0.00000     0.75675    0.00206     0.75880
      H   31    0.24595      0.00000     0.75181    0.00224     0.75405
      H   32    0.24419      0.00000     0.75376    0.00205     0.75581
      H   33    0.23332      0.00000     0.76507    0.00161     0.76668
      H   34    0.23599      0.00000     0.76230    0.00171     0.76401
      H   35    0.42088      0.00000     0.57629    0.00283     0.57912
      H   36    0.42126      0.00000     0.57597    0.00277     0.57874
      H   37    0.23585      0.00000     0.76243    0.00172     0.76415
      H   38    0.23769      0.00000     0.76071    0.00160     0.76231
      H   39    0.24120      0.00000     0.75675    0.00206     0.75880
      H   40    0.24306      0.00000     0.75488    0.00205     0.75694
      H   41    0.25606      0.00000     0.74188    0.00206     0.74394
      H   42    0.23916      0.00000     0.75896    0.00189     0.76084
      H   43    0.23916      0.00000     0.75896    0.00189     0.76084
      H   44    0.25559      0.00000     0.74239    0.00202     0.74441
      H   45    0.24254      0.00000     0.75513    0.00233     0.75746
      H   46    0.24167      0.00000     0.75593    0.00240     0.75833
      H   47    0.24254      0.00000     0.75513    0.00233     0.75746
      H   48    0.24167      0.00000     0.75593    0.00240     0.75833
      H   49    0.23332      0.00000     0.76507    0.00161     0.76668
      H   50    0.23599      0.00000     0.76230    0.00171     0.76401
 =======================================================================
   * Total *   -0.00000     47.97946   123.59520    0.42534   172.00000

                                 Natural Population      
 --------------------------------------------------------
   Core                      47.97946 ( 99.9572% of  48)
   Valence                  123.59520 ( 99.6735% of 124)
   Natural Minimal Basis    171.57466 ( 99.7527% of 172)
   Natural Rydberg Basis      0.42534 (  0.2473% of 172)
 --------------------------------------------------------

    Atom  No          Natural Electron Configuration
 ----------------------------------------------------------------------------
      N    1      [core]2S( 1.37)2p( 4.39)3p( 0.01)
      C    2      [core]2S( 0.85)2p( 2.96)3p( 0.01)
      C    3      [core]2S( 0.95)2p( 3.35)3p( 0.01)
      C    4      [core]2S( 0.94)2p( 3.32)3p( 0.01)
      C    5      [core]2S( 0.87)2p( 3.11)3p( 0.01)
      C    6      [core]2S( 0.90)2p( 3.16)3p( 0.01)
      C    7      [core]2S( 1.02)2p( 3.42)3p( 0.01)
      C    8      [core]2S( 1.02)2p( 3.41)3p( 0.01)
      C    9      [core]2S( 0.90)2p( 3.16)3p( 0.01)
      C   10      [core]2S( 0.87)2p( 3.11)3p( 0.01)
      C   11      [core]2S( 0.94)2p( 3.33)3p( 0.01)
      C   12      [core]2S( 0.95)2p( 3.35)3p( 0.01)
      C   13      [core]2S( 0.85)2p( 2.96)3p( 0.01)
      N   14      [core]2S( 1.37)2p( 4.39)3p( 0.01)
      C   15      [core]2S( 0.95)2p( 3.35)3p( 0.01)
      C   16      [core]2S( 0.94)2p( 3.32)3p( 0.01)
      C   17      [core]2S( 1.02)2p( 3.42)3p( 0.01)
      C   18      [core]2S( 0.96)2p( 3.28)3p( 0.01)
      C   19      [core]2S( 1.02)2p( 3.43)3p( 0.01)
      C   20      [core]2S( 0.96)2p( 3.27)3p( 0.01)
      C   21      [core]2S( 1.02)2p( 3.44)3p( 0.01)
      C   22      [core]2S( 1.02)2p( 3.44)3p( 0.01)
      C   23      [core]2S( 0.94)2p( 3.33)3p( 0.01)
      C   24      [core]2S( 0.95)2p( 3.35)3p( 0.01)
      H   25            1S( 0.58)
      H   26            1S( 0.58)
      H   27            1S( 0.76)
      H   28            1S( 0.76)
      H   29            1S( 0.75)
      H   30            1S( 0.76)
      H   31            1S( 0.75)
      H   32            1S( 0.75)
      H   33            1S( 0.77)
      H   34            1S( 0.76)
      H   35            1S( 0.58)
      H   36            1S( 0.58)
      H   37            1S( 0.76)
      H   38            1S( 0.76)
      H   39            1S( 0.76)
      H   40            1S( 0.75)
      H   41            1S( 0.74)
      H   42            1S( 0.76)
      H   43            1S( 0.76)
      H   44            1S( 0.74)
      H   45            1S( 0.76)
      H   46            1S( 0.76)
      H   47            1S( 0.76)
      H   48            1S( 0.76)
      H   49            1S( 0.77)
      H   50            1S( 0.76)


 NBO analysis skipped by request.
 1\1\GINC-DRG2-W002\SP\RB3LYP TD-FC\6-31G(d,p)\C22H26N2\QDUEZ\18-Jul-20
 24\0\\# TD(NStates=10, Root=1) B3LYP/6-31G** SCRF=(Solvent=water) volu
 me pop=NPA density=current Geom=AllCheck Guess=Read\\LALHUWOVOZGIAW-WG
 KKAQPQSA-N_conf_4\\0,1\N,0,-6.0396037537,2.5721586064,-0.2185955107\C,
 0,-4.8643236415,1.8146516102,-0.2381458261\C,0,-4.573864357,0.94948418
 01,-1.3040307074\C,0,-3.4324908705,0.1465657105,-1.2847838307\C,0,-2.5
 27461046,0.162988977,-0.2133040901\C,0,-1.2639591038,-0.705791231,-0.1
 645275257\C,0,-1.2938422034,-1.6333323482,1.0841413169\C,0,-0.00090441
 75,0.1987118725,-0.0711953282\C,0,1.3163076157,-0.623814978,0.03149816
 68\C,0,2.515319474,0.3232004013,0.1698014078\C,0,2.6006739736,1.209068
 1011,1.2593700231\C,0,3.6684619564,2.0859754333,1.423282215\C,0,4.7202
 11084,2.1191564733,0.4900015699\N,0,5.8289005625,2.9492261067,0.683067
 4962\C,0,4.6491299041,1.2425024188,-0.6033497052\C,0,3.5709011595,0.36
 90662696,-0.7527283715\C,0,1.2158803934,-1.5535972845,1.2748077153\C,0
 ,-0.0101758553,-2.4813750882,1.1716329371\C,0,0.1132219808,-3.36037134
 4,-0.0850517603\C,0,0.17829714,-2.4481841109,-1.3230987365\C,0,1.40667
 21293,-1.5235919381,-1.2241065937\C,0,-1.1068244106,-1.6034468554,-1.4
 150596928\C,0,-2.8320119964,1.0364689,0.8466432097\C,0,-3.9654978376,1
 .8434407991,0.8433223001\H,0,-5.9882118332,3.4089582238,0.3490551374\H
 ,0,-6.4151138258,2.7841013551,-1.1346804204\H,0,-5.2484640246,0.904429
 7117,-2.1556501244\H,0,-3.257331819,-0.5012191585,-2.1365439953\H,0,-2
 .1758043846,-2.284694389,1.0294302351\H,0,-1.4012513139,-1.0319370142,
 1.9947200952\H,0,0.0455284419,0.8491890415,-0.9544104198\H,0,-0.087905
 9356,0.8593072642,0.7977413896\H,0,1.8119911127,1.2232175145,2.0065517
 784\H,0,3.6930754159,2.7533330652,2.281424446\H,0,6.324230551,3.188835
 6021,-0.1668587378\H,0,5.6397189659,3.7783827426,1.2324413099\H,0,5.44
 60113854,1.2441972562,-1.3431789243\H,0,3.5675319459,-0.284390792,-1.6
 180513309\H,0,1.1464632991,-0.9509948842,2.1882727666\H,0,2.1353283383
 ,-2.1477276821,1.3569517778\H,0,-0.0579885144,-3.1156267759,2.06622489
 56\H,0,-0.7453703948,-4.0403343042,-0.1596670777\H,0,1.0144239402,-3.9
 844248198,-0.0259735964\H,0,0.2665965859,-3.060883996,-2.2291497514\H,
 0,2.3205116027,-2.130290058,-1.18750511\H,0,1.4701043973,-0.9018027829
 ,-2.1263079584\H,0,-1.9755873104,-2.2667790078,-1.5138845059\H,0,-1.07
 24859048,-0.9825820229,-2.3194713399\H,0,-2.16761006,1.0967832071,1.70
 42175193\H,0,-4.1614085442,2.5037920219,1.6847112628\\Version=ES64L-G1
 6RevA.03\State=1-A\HF=-963.5833266\RMSD=7.090e-09\Dipole=-0.0281997,1.
 7752499,-0.3711768\Quadrupole=7.006403,4.1557696,-11.1621727,-0.065119
 8,1.3213295,2.091152\PG=C01 [X(C22H26N2)]\\@


 EVANS BOLDLY PUT 50 ATM. OF ETHYLENE IN A CELL WITH 25 ATM. OF OXYGEN.
 THE APPARATUS SUBSEQUENTLY BLEW UP, BUT LUCKILY NOT BEFORE HE
 OBTAINED THE SPECTRA SHOWN IN FIGURE 8.
 A.J.MERER AND R.S.MULLIKEN, CHEM.REV. 69, 645 (1969)
 Job cpu time:       0 days  3 hours  9 minutes  8.1 seconds.
 Elapsed time:       0 days  1 hours  3 minutes 13.1 seconds.
 File lengths (MBytes):  RWF=   1819 Int=      0 D2E=      0 Chk=    116 Scr=      1
 Normal termination of Gaussian 16 at Thu Jul 18 12:57:22 2024.
