 Entering Gaussian System, Link 0=g16
 Initial command:
 /opt/sw/arch/manual/gaussian/G16_A03/g16/l1.exe "/scratch/1380925/Gau-37124.inp" -scrdir="/scratch/1380925/"
 Entering Link 1 = /opt/sw/arch/manual/gaussian/G16_A03/g16/l1.exe PID=     37125.
  
 Copyright (c) 1988,1990,1992,1993,1995,1998,2003,2009,2016,
            Gaussian, Inc.  All Rights Reserved.
  
 This is part of the Gaussian(R) 16 program.  It is based on
 the Gaussian(R) 09 system (copyright 2009, Gaussian, Inc.),
 the Gaussian(R) 03 system (copyright 2003, Gaussian, Inc.),
 the Gaussian(R) 98 system (copyright 1998, Gaussian, Inc.),
 the Gaussian(R) 94 system (copyright 1995, Gaussian, Inc.),
 the Gaussian 92(TM) system (copyright 1992, Gaussian, Inc.),
 the Gaussian 90(TM) system (copyright 1990, Gaussian, Inc.),
 the Gaussian 88(TM) system (copyright 1988, Gaussian, Inc.),
 the Gaussian 86(TM) system (copyright 1986, Carnegie Mellon
 University), and the Gaussian 82(TM) system (copyright 1983,
 Carnegie Mellon University). Gaussian is a federally registered
 trademark of Gaussian, Inc.
  
 This software contains proprietary and confidential information,
 including trade secrets, belonging to Gaussian, Inc.
  
 This software is provided under written license and may be
 used, copied, transmitted, or stored only in accord with that
 written license.
  
 The following legend is applicable only to US Government
 contracts under FAR:
  
                    RESTRICTED RIGHTS LEGEND
  
 Use, reproduction and disclosure by the US Government is
 subject to restrictions as set forth in subparagraphs (a)
 and (c) of the Commercial Computer Software - Restricted
 Rights clause in FAR 52.227-19.
  
 Gaussian, Inc.
 340 Quinnipiac St., Bldg. 40, Wallingford CT 06492
  
  
 ---------------------------------------------------------------
 Warning -- This program may not be used in any manner that
 competes with the business of Gaussian, Inc. or will provide
 assistance to any competitor of Gaussian, Inc.  The licensee
 of this program is prohibited from giving any competitor of
 Gaussian, Inc. access to this program.  By using this program,
 the user acknowledges that Gaussian, Inc. is engaged in the
 business of creating and licensing software in the field of
 computational chemistry and represents and warrants to the
 licensee that it is not a competitor of Gaussian, Inc. and that
 it will not use this program in any manner prohibited above.
 ---------------------------------------------------------------
  

 Cite this work as:
 Gaussian 16, Revision A.03,
 M. J. Frisch, G. W. Trucks, H. B. Schlegel, G. E. Scuseria, 
 M. A. Robb, J. R. Cheeseman, G. Scalmani, V. Barone, 
 G. A. Petersson, H. Nakatsuji, X. Li, M. Caricato, A. V. Marenich, 
 J. Bloino, B. G. Janesko, R. Gomperts, B. Mennucci, H. P. Hratchian, 
 J. V. Ortiz, A. F. Izmaylov, J. L. Sonnenberg, D. Williams-Young, 
 F. Ding, F. Lipparini, F. Egidi, J. Goings, B. Peng, A. Petrone, 
 T. Henderson, D. Ranasinghe, V. G. Zakrzewski, J. Gao, N. Rega, 
 G. Zheng, W. Liang, M. Hada, M. Ehara, K. Toyota, R. Fukuda, 
 J. Hasegawa, M. Ishida, T. Nakajima, Y. Honda, O. Kitao, H. Nakai, 
 T. Vreven, K. Throssell, J. A. Montgomery, Jr., J. E. Peralta, 
 F. Ogliaro, M. J. Bearpark, J. J. Heyd, E. N. Brothers, K. N. Kudin, 
 V. N. Staroverov, T. A. Keith, R. Kobayashi, J. Normand, 
 K. Raghavachari, A. P. Rendell, J. C. Burant, S. S. Iyengar, 
 J. Tomasi, M. Cossi, J. M. Millam, M. Klene, C. Adamo, R. Cammi, 
 J. W. Ochterski, R. L. Martin, K. Morokuma, O. Farkas, 
 J. B. Foresman, and D. J. Fox, Gaussian, Inc., Wallingford CT, 2016.
 
 ******************************************
 Gaussian 16:  ES64L-G16RevA.03 25-Dec-2016
                18-Jul-2024 
 ******************************************
 %nprocshared=8
 Will use up to    8 processors via shared memory.
 %mem=16GB
 %Chk=LALHUWOVOZGIAW-WGKKAQPQSA-N_conf_3_0.chk
 -------------------------------------------------------
 # opt=CalcFc B3LYP/6-31G** SCRF=(Solvent=water) scf=xqc
 -------------------------------------------------------
 1/10=4,18=20,19=15,26=3,38=1/1,3;
 2/9=110,12=2,17=6,18=5,40=1/2;
 3/5=1,6=6,7=101,11=2,25=1,30=1,70=2201,71=2,72=1,74=-5,140=1/1,2,3;
 4//1;
 5/5=2,8=3,13=1,38=5,53=1/2,8;
 8/6=4,10=90,11=11/1;
 11/6=1,8=1,9=11,15=111,16=1/1,2,10;
 10/6=1,13=1/2;
 6/7=2,8=2,9=2,10=2,28=1/1;
 7/10=1,18=20,25=1/1,2,3,16;
 1/10=4,18=20,19=15,26=3/3(2);
 2/9=110/2;
 99//99;
 2/9=110/2;
 3/5=1,6=6,7=101,11=2,25=1,30=1,70=2205,71=1,72=1,74=-5/1,2,3;
 4/5=5,16=3,69=1/1;
 5/5=2,8=3,13=1,38=5,53=1/2,8;
 7//1,2,3,16;
 1/18=20,19=15,26=3/3(-5);
 2/9=110/2;
 6/7=2,8=2,9=2,10=2,19=2,28=1/1;
 99/9=1/99;
 ----------------------------------
 LALHUWOVOZGIAW-WGKKAQPQSA-N_conf_3
 ----------------------------------
 Symbolic Z-matrix:
 Charge =  0 Multiplicity = 1
 N                    -5.90174   0.94015   2.9069 
 C                    -4.77069   0.83864   2.08976 
 C                    -3.5133    0.62042   2.64758 
 C                    -2.39052   0.40099   1.83686 
 C                    -2.49762   0.35199   0.43874 
 C                    -1.29027   0.11221  -0.48433 
 C                    -1.48769  -1.20849  -1.27706 
 C                     0.06835   0.00152   0.27502 
 C                     1.27594  -0.22833  -0.68081 
 C                     2.58457  -0.27131   0.12733 
 C                     3.4447   -1.3797    0.12566 
 C                     4.6292   -1.38536   0.87595 
 C                     4.97285  -0.30443   1.68424 
 N                     6.21031  -0.27077   2.336 
 C                     4.16292   0.827     1.64729 
 C                     2.97875   0.83698   0.89959 
 C                     0.98897  -1.5359   -1.4745 
 C                    -0.32797  -1.43937  -2.256 
 C                    -0.2478   -0.26915  -3.24391 
 C                     0.00235   1.03819  -2.4825 
 C                     1.32275   0.93722  -1.70633 
 C                    -1.15292   1.28504  -1.49859 
 C                    -3.78596   0.50874  -0.1049 
 C                    -4.9047    0.72761   0.70875 
 H                    -5.70668   1.32143   3.82705 
 H                    -6.68867   1.39811   2.4585 
 H                    -3.3882    0.61872   3.72717 
 H                    -1.43902   0.25705   2.34065 
 H                    -1.56387  -2.05712  -0.58395 
 H                    -2.42603  -1.19312  -1.8456 
 H                     0.03057  -0.82527   0.99887 
 H                     0.22239   0.91815   0.85985 
 H                     3.23065  -2.2654   -0.46535 
 H                     5.28117  -2.25307   0.8193 
 H                     6.24046   0.37238   3.12055 
 H                     6.56943  -1.18916   2.57626 
 H                     4.442     1.71841   2.20237 
 H                     2.37333   1.74031   0.92332 
 H                     0.9342   -2.39492  -0.79247 
 H                     1.80361  -1.74151  -2.18171 
 H                    -0.49563  -2.37216  -2.80657 
 H                     0.55901  -0.44248  -3.96664 
 H                    -1.17917  -0.19769  -3.81899 
 H                     0.06037   1.87017  -3.19368 
 H                     1.5082    1.89738  -1.20902 
 H                     2.15545   0.78977  -2.40725 
 H                    -0.98919   2.22953  -0.96234 
 H                    -2.07528   1.41862  -2.07735 
 H                    -3.94566   0.44822  -1.17908 
 H                    -5.88393   0.8108    0.24533 
 

 GradGradGradGradGradGradGradGradGradGradGradGradGradGradGradGradGradGrad
 Berny optimization.
 Initialization pass.
                           ----------------------------
                           !    Initial Parameters    !
                           ! (Angstroms and Degrees)  !
 --------------------------                            --------------------------
 ! Name  Definition              Value          Derivative Info.                !
 --------------------------------------------------------------------------------
 ! R1    R(1,2)                  1.399          calculate D2E/DX2 analytically  !
 ! R2    R(1,25)                 1.0149         calculate D2E/DX2 analytically  !
 ! R3    R(1,26)                 1.0149         calculate D2E/DX2 analytically  !
 ! R4    R(2,3)                  1.3928         calculate D2E/DX2 analytically  !
 ! R5    R(2,24)                 1.3919         calculate D2E/DX2 analytically  !
 ! R6    R(3,4)                  1.4022         calculate D2E/DX2 analytically  !
 ! R7    R(3,27)                 1.0868         calculate D2E/DX2 analytically  !
 ! R8    R(4,5)                  1.4031         calculate D2E/DX2 analytically  !
 ! R9    R(4,28)                 1.0862         calculate D2E/DX2 analytically  !
 ! R10   R(5,6)                  1.5386         calculate D2E/DX2 analytically  !
 ! R11   R(5,23)                 1.4071         calculate D2E/DX2 analytically  !
 ! R12   R(6,7)                  1.5529         calculate D2E/DX2 analytically  !
 ! R13   R(6,8)                  1.5604         calculate D2E/DX2 analytically  !
 ! R14   R(6,22)                 1.5566         calculate D2E/DX2 analytically  !
 ! R15   R(7,18)                 1.5351         calculate D2E/DX2 analytically  !
 ! R16   R(7,29)                 1.0984         calculate D2E/DX2 analytically  !
 ! R17   R(7,30)                 1.0973         calculate D2E/DX2 analytically  !
 ! R18   R(8,9)                  1.5572         calculate D2E/DX2 analytically  !
 ! R19   R(8,31)                 1.0995         calculate D2E/DX2 analytically  !
 ! R20   R(8,32)                 1.0982         calculate D2E/DX2 analytically  !
 ! R21   R(9,10)                 1.5386         calculate D2E/DX2 analytically  !
 ! R22   R(9,17)                 1.5563         calculate D2E/DX2 analytically  !
 ! R23   R(9,21)                 1.5532         calculate D2E/DX2 analytically  !
 ! R24   R(10,11)                1.403          calculate D2E/DX2 analytically  !
 ! R25   R(10,16)                1.4072         calculate D2E/DX2 analytically  !
 ! R26   R(11,12)                1.4021         calculate D2E/DX2 analytically  !
 ! R27   R(11,33)                1.0861         calculate D2E/DX2 analytically  !
 ! R28   R(12,13)                1.3928         calculate D2E/DX2 analytically  !
 ! R29   R(12,34)                1.0868         calculate D2E/DX2 analytically  !
 ! R30   R(13,14)                1.399          calculate D2E/DX2 analytically  !
 ! R31   R(13,15)                1.3919         calculate D2E/DX2 analytically  !
 ! R32   R(14,35)                1.0149         calculate D2E/DX2 analytically  !
 ! R33   R(14,36)                1.0149         calculate D2E/DX2 analytically  !
 ! R34   R(15,16)                1.4005         calculate D2E/DX2 analytically  !
 ! R35   R(15,37)                1.0866         calculate D2E/DX2 analytically  !
 ! R36   R(16,38)                1.0877         calculate D2E/DX2 analytically  !
 ! R37   R(17,18)                1.5344         calculate D2E/DX2 analytically  !
 ! R38   R(17,39)                1.0982         calculate D2E/DX2 analytically  !
 ! R39   R(17,40)                1.0982         calculate D2E/DX2 analytically  !
 ! R40   R(18,19)                1.5336         calculate D2E/DX2 analytically  !
 ! R41   R(18,41)                1.0961         calculate D2E/DX2 analytically  !
 ! R42   R(19,20)                1.5335         calculate D2E/DX2 analytically  !
 ! R43   R(19,42)                1.097          calculate D2E/DX2 analytically  !
 ! R44   R(19,43)                1.0969         calculate D2E/DX2 analytically  !
 ! R45   R(20,21)                1.535          calculate D2E/DX2 analytically  !
 ! R46   R(20,22)                1.5374         calculate D2E/DX2 analytically  !
 ! R47   R(20,44)                1.0961         calculate D2E/DX2 analytically  !
 ! R48   R(21,45)                1.0971         calculate D2E/DX2 analytically  !
 ! R49   R(21,46)                1.0984         calculate D2E/DX2 analytically  !
 ! R50   R(22,47)                1.0984         calculate D2E/DX2 analytically  !
 ! R51   R(22,48)                1.0971         calculate D2E/DX2 analytically  !
 ! R52   R(23,24)                1.4005         calculate D2E/DX2 analytically  !
 ! R53   R(23,49)                1.0877         calculate D2E/DX2 analytically  !
 ! R54   R(24,50)                1.0865         calculate D2E/DX2 analytically  !
 ! A1    A(2,1,25)             113.6661         calculate D2E/DX2 analytically  !
 ! A2    A(2,1,26)             113.6742         calculate D2E/DX2 analytically  !
 ! A3    A(25,1,26)            112.3371         calculate D2E/DX2 analytically  !
 ! A4    A(1,2,3)              120.485          calculate D2E/DX2 analytically  !
 ! A5    A(1,2,24)             120.4935         calculate D2E/DX2 analytically  !
 ! A6    A(3,2,24)             118.1502         calculate D2E/DX2 analytically  !
 ! A7    A(2,3,4)              121.0553         calculate D2E/DX2 analytically  !
 ! A8    A(2,3,27)             120.1328         calculate D2E/DX2 analytically  !
 ! A9    A(4,3,27)             118.8119         calculate D2E/DX2 analytically  !
 ! A10   A(3,4,5)              121.3653         calculate D2E/DX2 analytically  !
 ! A11   A(3,4,28)             117.0007         calculate D2E/DX2 analytically  !
 ! A12   A(5,4,28)             121.6284         calculate D2E/DX2 analytically  !
 ! A13   A(4,5,6)              122.9133         calculate D2E/DX2 analytically  !
 ! A14   A(4,5,23)             116.8075         calculate D2E/DX2 analytically  !
 ! A15   A(6,5,23)             120.2684         calculate D2E/DX2 analytically  !
 ! A16   A(5,6,7)              109.8181         calculate D2E/DX2 analytically  !
 ! A17   A(5,6,8)              113.7251         calculate D2E/DX2 analytically  !
 ! A18   A(5,6,22)             110.043          calculate D2E/DX2 analytically  !
 ! A19   A(7,6,8)              107.3845         calculate D2E/DX2 analytically  !
 ! A20   A(7,6,22)             108.6247         calculate D2E/DX2 analytically  !
 ! A21   A(8,6,22)             107.0803         calculate D2E/DX2 analytically  !
 ! A22   A(6,7,18)             110.9402         calculate D2E/DX2 analytically  !
 ! A23   A(6,7,29)             110.107          calculate D2E/DX2 analytically  !
 ! A24   A(6,7,30)             111.18           calculate D2E/DX2 analytically  !
 ! A25   A(18,7,29)            109.7923         calculate D2E/DX2 analytically  !
 ! A26   A(18,7,30)            108.5266         calculate D2E/DX2 analytically  !
 ! A27   A(29,7,30)            106.1693         calculate D2E/DX2 analytically  !
 ! A28   A(6,8,9)              112.7677         calculate D2E/DX2 analytically  !
 ! A29   A(6,8,31)             110.1091         calculate D2E/DX2 analytically  !
 ! A30   A(6,8,32)             108.7898         calculate D2E/DX2 analytically  !
 ! A31   A(9,8,31)             108.6478         calculate D2E/DX2 analytically  !
 ! A32   A(9,8,32)             109.9573         calculate D2E/DX2 analytically  !
 ! A33   A(31,8,32)            106.3717         calculate D2E/DX2 analytically  !
 ! A34   A(8,9,10)             109.9561         calculate D2E/DX2 analytically  !
 ! A35   A(8,9,17)             107.1015         calculate D2E/DX2 analytically  !
 ! A36   A(8,9,21)             108.5356         calculate D2E/DX2 analytically  !
 ! A37   A(10,9,17)            113.6547         calculate D2E/DX2 analytically  !
 ! A38   A(10,9,21)            110.006          calculate D2E/DX2 analytically  !
 ! A39   A(17,9,21)            107.417          calculate D2E/DX2 analytically  !
 ! A40   A(9,10,11)            122.879          calculate D2E/DX2 analytically  !
 ! A41   A(9,10,16)            120.2988         calculate D2E/DX2 analytically  !
 ! A42   A(11,10,16)           116.8166         calculate D2E/DX2 analytically  !
 ! A43   A(10,11,12)           121.364          calculate D2E/DX2 analytically  !
 ! A44   A(10,11,33)           121.6062         calculate D2E/DX2 analytically  !
 ! A45   A(12,11,33)           117.0253         calculate D2E/DX2 analytically  !
 ! A46   A(11,12,13)           121.0539         calculate D2E/DX2 analytically  !
 ! A47   A(11,12,34)           118.8229         calculate D2E/DX2 analytically  !
 ! A48   A(13,12,34)           120.1231         calculate D2E/DX2 analytically  !
 ! A49   A(12,13,14)           120.483          calculate D2E/DX2 analytically  !
 ! A50   A(12,13,15)           118.1558         calculate D2E/DX2 analytically  !
 ! A51   A(14,13,15)           120.4969         calculate D2E/DX2 analytically  !
 ! A52   A(13,14,35)           113.6813         calculate D2E/DX2 analytically  !
 ! A53   A(13,14,36)           113.6708         calculate D2E/DX2 analytically  !
 ! A54   A(35,14,36)           112.3279         calculate D2E/DX2 analytically  !
 ! A55   A(13,15,16)           120.7941         calculate D2E/DX2 analytically  !
 ! A56   A(13,15,37)           120.2543         calculate D2E/DX2 analytically  !
 ! A57   A(16,15,37)           118.9515         calculate D2E/DX2 analytically  !
 ! A58   A(10,16,15)           121.6177         calculate D2E/DX2 analytically  !
 ! A59   A(10,16,38)           120.6737         calculate D2E/DX2 analytically  !
 ! A60   A(15,16,38)           117.7038         calculate D2E/DX2 analytically  !
 ! A61   A(9,17,18)            111.4169         calculate D2E/DX2 analytically  !
 ! A62   A(9,17,39)            110.4669         calculate D2E/DX2 analytically  !
 ! A63   A(9,17,40)            110.4222         calculate D2E/DX2 analytically  !
 ! A64   A(18,17,39)           108.8265         calculate D2E/DX2 analytically  !
 ! A65   A(18,17,40)           108.6901         calculate D2E/DX2 analytically  !
 ! A66   A(39,17,40)           106.887          calculate D2E/DX2 analytically  !
 ! A67   A(7,18,17)            109.455          calculate D2E/DX2 analytically  !
 ! A68   A(7,18,19)            109.6049         calculate D2E/DX2 analytically  !
 ! A69   A(7,18,41)            109.4372         calculate D2E/DX2 analytically  !
 ! A70   A(17,18,19)           109.3439         calculate D2E/DX2 analytically  !
 ! A71   A(17,18,41)           109.4864         calculate D2E/DX2 analytically  !
 ! A72   A(19,18,41)           109.4999         calculate D2E/DX2 analytically  !
 ! A73   A(18,19,20)           109.8291         calculate D2E/DX2 analytically  !
 ! A74   A(18,19,42)           110.0174         calculate D2E/DX2 analytically  !
 ! A75   A(18,19,43)           110.0628         calculate D2E/DX2 analytically  !
 ! A76   A(20,19,42)           109.9908         calculate D2E/DX2 analytically  !
 ! A77   A(20,19,43)           110.0766         calculate D2E/DX2 analytically  !
 ! A78   A(42,19,43)           106.8206         calculate D2E/DX2 analytically  !
 ! A79   A(19,20,21)           109.592          calculate D2E/DX2 analytically  !
 ! A80   A(19,20,22)           109.3946         calculate D2E/DX2 analytically  !
 ! A81   A(19,20,44)           109.4869         calculate D2E/DX2 analytically  !
 ! A82   A(21,20,22)           109.4725         calculate D2E/DX2 analytically  !
 ! A83   A(21,20,44)           109.4207         calculate D2E/DX2 analytically  !
 ! A84   A(22,20,44)           109.4605         calculate D2E/DX2 analytically  !
 ! A85   A(9,21,20)            110.9354         calculate D2E/DX2 analytically  !
 ! A86   A(9,21,45)            111.2572         calculate D2E/DX2 analytically  !
 ! A87   A(9,21,46)            110.0875         calculate D2E/DX2 analytically  !
 ! A88   A(20,21,45)           108.4845         calculate D2E/DX2 analytically  !
 ! A89   A(20,21,46)           109.7731         calculate D2E/DX2 analytically  !
 ! A90   A(45,21,46)           106.1774         calculate D2E/DX2 analytically  !
 ! A91   A(6,22,20)            111.2426         calculate D2E/DX2 analytically  !
 ! A92   A(6,22,47)            110.0547         calculate D2E/DX2 analytically  !
 ! A93   A(6,22,48)            111.1799         calculate D2E/DX2 analytically  !
 ! A94   A(20,22,47)           109.7854         calculate D2E/DX2 analytically  !
 ! A95   A(20,22,48)           108.2824         calculate D2E/DX2 analytically  !
 ! A96   A(47,22,48)           106.1522         calculate D2E/DX2 analytically  !
 ! A97   A(5,23,24)            121.6226         calculate D2E/DX2 analytically  !
 ! A98   A(5,23,49)            120.6504         calculate D2E/DX2 analytically  !
 ! A99   A(24,23,49)           117.7209         calculate D2E/DX2 analytically  !
 ! A100  A(2,24,23)            120.7945         calculate D2E/DX2 analytically  !
 ! A101  A(2,24,50)            120.2532         calculate D2E/DX2 analytically  !
 ! A102  A(23,24,50)           118.9523         calculate D2E/DX2 analytically  !
 ! D1    D(25,1,2,3)            30.3116         calculate D2E/DX2 analytically  !
 ! D2    D(25,1,2,24)         -160.5709         calculate D2E/DX2 analytically  !
 ! D3    D(26,1,2,3)           160.4945         calculate D2E/DX2 analytically  !
 ! D4    D(26,1,2,24)          -30.388          calculate D2E/DX2 analytically  !
 ! D5    D(1,2,3,4)            174.4027         calculate D2E/DX2 analytically  !
 ! D6    D(1,2,3,27)            -5.6456         calculate D2E/DX2 analytically  !
 ! D7    D(24,2,3,4)             5.0351         calculate D2E/DX2 analytically  !
 ! D8    D(24,2,3,27)         -175.0132         calculate D2E/DX2 analytically  !
 ! D9    D(1,2,24,23)         -174.3925         calculate D2E/DX2 analytically  !
 ! D10   D(1,2,24,50)            5.6533         calculate D2E/DX2 analytically  !
 ! D11   D(3,2,24,23)           -5.0259         calculate D2E/DX2 analytically  !
 ! D12   D(3,2,24,50)          175.02           calculate D2E/DX2 analytically  !
 ! D13   D(2,3,4,5)             -1.988          calculate D2E/DX2 analytically  !
 ! D14   D(2,3,4,28)           178.8546         calculate D2E/DX2 analytically  !
 ! D15   D(27,3,4,5)           178.0597         calculate D2E/DX2 analytically  !
 ! D16   D(27,3,4,28)           -1.0978         calculate D2E/DX2 analytically  !
 ! D17   D(3,4,5,6)           -179.9388         calculate D2E/DX2 analytically  !
 ! D18   D(3,4,5,23)            -1.1325         calculate D2E/DX2 analytically  !
 ! D19   D(28,4,5,6)            -0.8204         calculate D2E/DX2 analytically  !
 ! D20   D(28,4,5,23)          177.9859         calculate D2E/DX2 analytically  !
 ! D21   D(4,5,6,7)            117.4327         calculate D2E/DX2 analytically  !
 ! D22   D(4,5,6,8)             -2.9183         calculate D2E/DX2 analytically  !
 ! D23   D(4,5,6,22)          -123.0404         calculate D2E/DX2 analytically  !
 ! D24   D(23,5,6,7)           -61.3338         calculate D2E/DX2 analytically  !
 ! D25   D(23,5,6,8)           178.3153         calculate D2E/DX2 analytically  !
 ! D26   D(23,5,6,22)           58.1932         calculate D2E/DX2 analytically  !
 ! D27   D(4,5,23,24)            1.1311         calculate D2E/DX2 analytically  !
 ! D28   D(4,5,23,49)         -177.9532         calculate D2E/DX2 analytically  !
 ! D29   D(6,5,23,24)          179.9708         calculate D2E/DX2 analytically  !
 ! D30   D(6,5,23,49)            0.8865         calculate D2E/DX2 analytically  !
 ! D31   D(5,6,7,18)           177.3165         calculate D2E/DX2 analytically  !
 ! D32   D(5,6,7,29)           -60.9359         calculate D2E/DX2 analytically  !
 ! D33   D(5,6,7,30)            56.4437         calculate D2E/DX2 analytically  !
 ! D34   D(8,6,7,18)           -58.56           calculate D2E/DX2 analytically  !
 ! D35   D(8,6,7,29)            63.1876         calculate D2E/DX2 analytically  !
 ! D36   D(8,6,7,30)          -179.4329         calculate D2E/DX2 analytically  !
 ! D37   D(22,6,7,18)           56.9262         calculate D2E/DX2 analytically  !
 ! D38   D(22,6,7,29)          178.6738         calculate D2E/DX2 analytically  !
 ! D39   D(22,6,7,30)          -63.9467         calculate D2E/DX2 analytically  !
 ! D40   D(5,6,8,9)           -179.4931         calculate D2E/DX2 analytically  !
 ! D41   D(5,6,8,31)            58.977          calculate D2E/DX2 analytically  !
 ! D42   D(5,6,8,32)           -57.231          calculate D2E/DX2 analytically  !
 ! D43   D(7,6,8,9)             58.7944         calculate D2E/DX2 analytically  !
 ! D44   D(7,6,8,31)           -62.7355         calculate D2E/DX2 analytically  !
 ! D45   D(7,6,8,32)          -178.9435         calculate D2E/DX2 analytically  !
 ! D46   D(22,6,8,9)           -57.7119         calculate D2E/DX2 analytically  !
 ! D47   D(22,6,8,31)         -179.2418         calculate D2E/DX2 analytically  !
 ! D48   D(22,6,8,32)           64.5502         calculate D2E/DX2 analytically  !
 ! D49   D(5,6,22,20)         -177.0673         calculate D2E/DX2 analytically  !
 ! D50   D(5,6,22,47)           61.0269         calculate D2E/DX2 analytically  !
 ! D51   D(5,6,22,48)          -56.2988         calculate D2E/DX2 analytically  !
 ! D52   D(7,6,22,20)          -56.8164         calculate D2E/DX2 analytically  !
 ! D53   D(7,6,22,47)         -178.7222         calculate D2E/DX2 analytically  !
 ! D54   D(7,6,22,48)           63.9521         calculate D2E/DX2 analytically  !
 ! D55   D(8,6,22,20)           58.8668         calculate D2E/DX2 analytically  !
 ! D56   D(8,6,22,47)          -63.0389         calculate D2E/DX2 analytically  !
 ! D57   D(8,6,22,48)          179.6354         calculate D2E/DX2 analytically  !
 ! D58   D(6,7,18,17)           60.4258         calculate D2E/DX2 analytically  !
 ! D59   D(6,7,18,19)          -59.4901         calculate D2E/DX2 analytically  !
 ! D60   D(6,7,18,41)         -179.5863         calculate D2E/DX2 analytically  !
 ! D61   D(29,7,18,17)         -61.5057         calculate D2E/DX2 analytically  !
 ! D62   D(29,7,18,19)         178.5784         calculate D2E/DX2 analytically  !
 ! D63   D(29,7,18,41)          58.4822         calculate D2E/DX2 analytically  !
 ! D64   D(30,7,18,17)        -177.1469         calculate D2E/DX2 analytically  !
 ! D65   D(30,7,18,19)          62.9372         calculate D2E/DX2 analytically  !
 ! D66   D(30,7,18,41)         -57.159          calculate D2E/DX2 analytically  !
 ! D67   D(6,8,9,10)           177.7483         calculate D2E/DX2 analytically  !
 ! D68   D(6,8,9,17)           -58.3123         calculate D2E/DX2 analytically  !
 ! D69   D(6,8,9,21)            57.3751         calculate D2E/DX2 analytically  !
 ! D70   D(31,8,9,10)          -59.8973         calculate D2E/DX2 analytically  !
 ! D71   D(31,8,9,17)           64.042          calculate D2E/DX2 analytically  !
 ! D72   D(31,8,9,21)          179.7295         calculate D2E/DX2 analytically  !
 ! D73   D(32,8,9,10)           56.145          calculate D2E/DX2 analytically  !
 ! D74   D(32,8,9,17)         -179.9157         calculate D2E/DX2 analytically  !
 ! D75   D(32,8,9,21)          -64.2282         calculate D2E/DX2 analytically  !
 ! D76   D(8,9,10,11)          121.0802         calculate D2E/DX2 analytically  !
 ! D77   D(8,9,10,16)          -59.8123         calculate D2E/DX2 analytically  !
 ! D78   D(17,9,10,11)           1.0408         calculate D2E/DX2 analytically  !
 ! D79   D(17,9,10,16)        -179.8517         calculate D2E/DX2 analytically  !
 ! D80   D(21,9,10,11)        -119.4397         calculate D2E/DX2 analytically  !
 ! D81   D(21,9,10,16)          59.6678         calculate D2E/DX2 analytically  !
 ! D82   D(8,9,17,18)           58.1427         calculate D2E/DX2 analytically  !
 ! D83   D(8,9,17,39)          -62.9477         calculate D2E/DX2 analytically  !
 ! D84   D(8,9,17,40)          179.0298         calculate D2E/DX2 analytically  !
 ! D85   D(10,9,17,18)         179.7846         calculate D2E/DX2 analytically  !
 ! D86   D(10,9,17,39)          58.6943         calculate D2E/DX2 analytically  !
 ! D87   D(10,9,17,40)         -59.3282         calculate D2E/DX2 analytically  !
 ! D88   D(21,9,17,18)         -58.287          calculate D2E/DX2 analytically  !
 ! D89   D(21,9,17,39)        -179.3774         calculate D2E/DX2 analytically  !
 ! D90   D(21,9,17,40)          62.6001         calculate D2E/DX2 analytically  !
 ! D91   D(8,9,21,20)          -57.1754         calculate D2E/DX2 analytically  !
 ! D92   D(8,9,21,45)           63.6931         calculate D2E/DX2 analytically  !
 ! D93   D(8,9,21,46)         -178.8823         calculate D2E/DX2 analytically  !
 ! D94   D(10,9,21,20)        -177.5175         calculate D2E/DX2 analytically  !
 ! D95   D(10,9,21,45)         -56.6491         calculate D2E/DX2 analytically  !
 ! D96   D(10,9,21,46)          60.7755         calculate D2E/DX2 analytically  !
 ! D97   D(17,9,21,20)          58.3074         calculate D2E/DX2 analytically  !
 ! D98   D(17,9,21,45)         179.1758         calculate D2E/DX2 analytically  !
 ! D99   D(17,9,21,46)         -63.3996         calculate D2E/DX2 analytically  !
 ! D100  D(9,10,11,12)        -179.9099         calculate D2E/DX2 analytically  !
 ! D101  D(9,10,11,33)           0.8902         calculate D2E/DX2 analytically  !
 ! D102  D(16,10,11,12)          0.9535         calculate D2E/DX2 analytically  !
 ! D103  D(16,10,11,33)       -178.2464         calculate D2E/DX2 analytically  !
 ! D104  D(9,10,16,15)         179.8952         calculate D2E/DX2 analytically  !
 ! D105  D(9,10,16,38)          -0.917          calculate D2E/DX2 analytically  !
 ! D106  D(11,10,16,15)         -0.9446         calculate D2E/DX2 analytically  !
 ! D107  D(11,10,16,38)        178.2432         calculate D2E/DX2 analytically  !
 ! D108  D(10,11,12,13)          2.0515         calculate D2E/DX2 analytically  !
 ! D109  D(10,11,12,34)       -178.0435         calculate D2E/DX2 analytically  !
 ! D110  D(33,11,12,13)       -178.7134         calculate D2E/DX2 analytically  !
 ! D111  D(33,11,12,34)          1.1915         calculate D2E/DX2 analytically  !
 ! D112  D(11,12,13,14)       -174.3935         calculate D2E/DX2 analytically  !
 ! D113  D(11,12,13,15)         -4.9831         calculate D2E/DX2 analytically  !
 ! D114  D(34,12,13,14)          5.7028         calculate D2E/DX2 analytically  !
 ! D115  D(34,12,13,15)        175.1132         calculate D2E/DX2 analytically  !
 ! D116  D(12,13,14,35)       -160.5121         calculate D2E/DX2 analytically  !
 ! D117  D(12,13,14,36)        -30.3311         calculate D2E/DX2 analytically  !
 ! D118  D(15,13,14,35)         30.3264         calculate D2E/DX2 analytically  !
 ! D119  D(15,13,14,36)        160.5074         calculate D2E/DX2 analytically  !
 ! D120  D(12,13,15,16)          4.9811         calculate D2E/DX2 analytically  !
 ! D121  D(12,13,15,37)       -175.1073         calculate D2E/DX2 analytically  !
 ! D122  D(14,13,15,16)        174.39           calculate D2E/DX2 analytically  !
 ! D123  D(14,13,15,37)         -5.6984         calculate D2E/DX2 analytically  !
 ! D124  D(13,15,16,10)         -2.0697         calculate D2E/DX2 analytically  !
 ! D125  D(13,15,16,38)        178.7193         calculate D2E/DX2 analytically  !
 ! D126  D(37,15,16,10)        178.0175         calculate D2E/DX2 analytically  !
 ! D127  D(37,15,16,38)         -1.1935         calculate D2E/DX2 analytically  !
 ! D128  D(9,17,18,7)          -60.3762         calculate D2E/DX2 analytically  !
 ! D129  D(9,17,18,19)          59.6996         calculate D2E/DX2 analytically  !
 ! D130  D(9,17,18,41)         179.6661         calculate D2E/DX2 analytically  !
 ! D131  D(39,17,18,7)          61.6674         calculate D2E/DX2 analytically  !
 ! D132  D(39,17,18,19)       -178.2568         calculate D2E/DX2 analytically  !
 ! D133  D(39,17,18,41)        -58.2904         calculate D2E/DX2 analytically  !
 ! D134  D(40,17,18,7)         177.7283         calculate D2E/DX2 analytically  !
 ! D135  D(40,17,18,19)        -62.1959         calculate D2E/DX2 analytically  !
 ! D136  D(40,17,18,41)         57.7706         calculate D2E/DX2 analytically  !
 ! D137  D(7,18,19,20)          60.5691         calculate D2E/DX2 analytically  !
 ! D138  D(7,18,19,42)        -178.2225         calculate D2E/DX2 analytically  !
 ! D139  D(7,18,19,43)         -60.7753         calculate D2E/DX2 analytically  !
 ! D140  D(17,18,19,20)        -59.4147         calculate D2E/DX2 analytically  !
 ! D141  D(17,18,19,42)         61.7937         calculate D2E/DX2 analytically  !
 ! D142  D(17,18,19,43)        179.2408         calculate D2E/DX2 analytically  !
 ! D143  D(41,18,19,20)       -179.3729         calculate D2E/DX2 analytically  !
 ! D144  D(41,18,19,42)        -58.1645         calculate D2E/DX2 analytically  !
 ! D145  D(41,18,19,43)         59.2826         calculate D2E/DX2 analytically  !
 ! D146  D(18,19,20,21)         59.8807         calculate D2E/DX2 analytically  !
 ! D147  D(18,19,20,22)        -60.1479         calculate D2E/DX2 analytically  !
 ! D148  D(18,19,20,44)        179.9025         calculate D2E/DX2 analytically  !
 ! D149  D(42,19,20,21)        -61.3437         calculate D2E/DX2 analytically  !
 ! D150  D(42,19,20,22)        178.6278         calculate D2E/DX2 analytically  !
 ! D151  D(42,19,20,44)         58.6782         calculate D2E/DX2 analytically  !
 ! D152  D(43,19,20,21)       -178.7831         calculate D2E/DX2 analytically  !
 ! D153  D(43,19,20,22)         61.1883         calculate D2E/DX2 analytically  !
 ! D154  D(43,19,20,44)        -58.7613         calculate D2E/DX2 analytically  !
 ! D155  D(19,20,21,9)         -60.2475         calculate D2E/DX2 analytically  !
 ! D156  D(19,20,21,45)        177.2601         calculate D2E/DX2 analytically  !
 ! D157  D(19,20,21,46)         61.6433         calculate D2E/DX2 analytically  !
 ! D158  D(22,20,21,9)          59.7335         calculate D2E/DX2 analytically  !
 ! D159  D(22,20,21,45)        -62.7589         calculate D2E/DX2 analytically  !
 ! D160  D(22,20,21,46)       -178.3757         calculate D2E/DX2 analytically  !
 ! D161  D(44,20,21,9)         179.6903         calculate D2E/DX2 analytically  !
 ! D162  D(44,20,21,45)         57.1979         calculate D2E/DX2 analytically  !
 ! D163  D(44,20,21,46)        -58.4189         calculate D2E/DX2 analytically  !
 ! D164  D(19,20,22,6)          58.9451         calculate D2E/DX2 analytically  !
 ! D165  D(19,20,22,47)       -178.9928         calculate D2E/DX2 analytically  !
 ! D166  D(19,20,22,48)        -63.5121         calculate D2E/DX2 analytically  !
 ! D167  D(21,20,22,6)         -61.1567         calculate D2E/DX2 analytically  !
 ! D168  D(21,20,22,47)         60.9054         calculate D2E/DX2 analytically  !
 ! D169  D(21,20,22,48)        176.3861         calculate D2E/DX2 analytically  !
 ! D170  D(44,20,22,6)         178.9109         calculate D2E/DX2 analytically  !
 ! D171  D(44,20,22,47)        -59.0271         calculate D2E/DX2 analytically  !
 ! D172  D(44,20,22,48)         56.4537         calculate D2E/DX2 analytically  !
 ! D173  D(5,23,24,2)            1.9917         calculate D2E/DX2 analytically  !
 ! D174  D(5,23,24,50)        -178.0535         calculate D2E/DX2 analytically  !
 ! D175  D(49,23,24,2)        -178.8982         calculate D2E/DX2 analytically  !
 ! D176  D(49,23,24,50)          1.0565         calculate D2E/DX2 analytically  !
 --------------------------------------------------------------------------------
 Trust Radius=3.00D-01 FncErr=1.00D-07 GrdErr=1.00D-06 EigMax=2.50D+02 EigMin=1.00D-04
 Number of steps in this run=    300 maximum allowed number of steps=    300.
 GradGradGradGradGradGradGradGradGradGradGradGradGradGradGradGradGradGrad

                          Input orientation:                          
 ---------------------------------------------------------------------
 Center     Atomic      Atomic             Coordinates (Angstroms)
 Number     Number       Type             X           Y           Z
 ---------------------------------------------------------------------
      1          7           0       -5.901742    0.940151    2.906900
      2          6           0       -4.770686    0.838644    2.089762
      3          6           0       -3.513297    0.620416    2.647577
      4          6           0       -2.390519    0.400992    1.836859
      5          6           0       -2.497624    0.351991    0.438741
      6          6           0       -1.290268    0.112208   -0.484331
      7          6           0       -1.487687   -1.208489   -1.277065
      8          6           0        0.068347    0.001519    0.275022
      9          6           0        1.275943   -0.228334   -0.680810
     10          6           0        2.584565   -0.271306    0.127327
     11          6           0        3.444703   -1.379695    0.125664
     12          6           0        4.629197   -1.385364    0.875952
     13          6           0        4.972850   -0.304431    1.684243
     14          7           0        6.210309   -0.270773    2.336003
     15          6           0        4.162923    0.827002    1.647288
     16          6           0        2.978754    0.836979    0.899594
     17          6           0        0.988971   -1.535899   -1.474495
     18          6           0       -0.327975   -1.439368   -2.255995
     19          6           0       -0.247802   -0.269152   -3.243912
     20          6           0        0.002351    1.038195   -2.482496
     21          6           0        1.322750    0.937217   -1.706330
     22          6           0       -1.152920    1.285042   -1.498592
     23          6           0       -3.785963    0.508741   -0.104902
     24          6           0       -4.904697    0.727606    0.708751
     25          1           0       -5.706683    1.321427    3.827054
     26          1           0       -6.688665    1.398111    2.458502
     27          1           0       -3.388196    0.618725    3.727174
     28          1           0       -1.439024    0.257054    2.340653
     29          1           0       -1.563872   -2.057125   -0.583949
     30          1           0       -2.426034   -1.193119   -1.845596
     31          1           0        0.030574   -0.825267    0.998874
     32          1           0        0.222394    0.918153    0.859854
     33          1           0        3.230647   -2.265402   -0.465349
     34          1           0        5.281166   -2.253070    0.819303
     35          1           0        6.240462    0.372376    3.120548
     36          1           0        6.569428   -1.189159    2.576259
     37          1           0        4.442005    1.718407    2.202374
     38          1           0        2.373325    1.740307    0.923323
     39          1           0        0.934195   -2.394919   -0.792466
     40          1           0        1.803611   -1.741506   -2.181715
     41          1           0       -0.495625   -2.372158   -2.806572
     42          1           0        0.559014   -0.442483   -3.966641
     43          1           0       -1.179172   -0.197687   -3.818988
     44          1           0        0.060373    1.870170   -3.193685
     45          1           0        1.508196    1.897377   -1.209016
     46          1           0        2.155448    0.789767   -2.407251
     47          1           0       -0.989188    2.229530   -0.962338
     48          1           0       -2.075276    1.418622   -2.077353
     49          1           0       -3.945660    0.448223   -1.179082
     50          1           0       -5.883927    0.810801    0.245332
 ---------------------------------------------------------------------
                    Distance matrix (angstroms):
                    1          2          3          4          5
     1  N    0.000000
     2  C    1.399038   0.000000
     3  C    2.423665   1.392770   0.000000
     4  C    3.710037   2.433248   1.402156   0.000000
     5  C    4.245676   2.851231   2.445936   1.403071   0.000000
     6  C    5.783739   4.389416   3.874142   2.584931   1.538592
     7  C    6.450279   5.128778   4.780251   3.619676   2.529636
     8  C    6.591644   5.235484   4.340532   2.940227   2.594964
     9  C    8.109019   6.736188   5.893671   4.491954   3.978690
    10  C    9.011719   7.693040   6.658134   5.303390   5.129729
    11  C   10.023622   8.733346   7.666437   6.336312   6.197419
    12  C   10.974218   9.735366   8.570998   7.306902   7.348546
    13  C   11.013657   9.818735   8.590579   7.398656   7.601983
    14  N   12.185814  11.039642   9.769330   8.641450   8.933954
    15  C   10.143811   8.944567   7.743875   6.570009   6.785949
    16  C    9.105116   7.840301   6.726743   5.467874   5.517093
    17  C    8.532841   7.177467   6.473916   5.112491   4.402379
    18  C    7.961437   6.619111   6.199517   4.938873   3.895888
    19  C    8.441679   7.080379   6.794441   5.554688   4.359982
    20  C    7.994593   6.612658   6.233135   4.978823   3.905684
    21  C    8.571767   7.179832   6.514922   5.160434   4.420302
    22  C    6.486804   5.115055   4.817035   3.665846   2.536153
    23  C    3.705886   2.427976   2.768205   2.393598   1.407102
    24  C    2.423042   1.391934   2.388835   2.774959   2.451121
    25  H    1.014940   2.031589   2.587185   3.975553   4.766397
    26  H    1.014907   2.031654   3.274680   4.455867   4.768504
    27  H    2.663471   2.154242   1.086822   2.148502   3.417318
    28  H    4.550068   3.391337   2.128108   1.086218   2.178742
    29  H    6.323512   5.081128   4.627336   3.547674   2.778781
    30  H    6.262396   5.011237   4.965849   4.012845   2.758746
    31  H    6.476855   5.197186   4.167403   2.840356   2.844551
    32  H    6.457239   5.142941   4.152107   2.837130   2.810049
    33  H   10.249301   8.954609   7.968628   6.633802   6.362485
    34  H   11.815760  10.593040   9.430911   8.181334   8.212231
    35  H   12.157349  11.069115   9.768369   8.725967   9.140385
    36  H   12.655962  11.530258  10.244070   9.129947   9.442222
    37  H   10.396881   9.255287   8.043047   6.967966   7.289440
    38  H    8.547021   7.294551   6.235345   5.032149   5.088063
    39  H    8.458017   7.163019   6.380151   5.077814   4.564950
    40  H    9.615496   8.253731   7.561101   6.191119   5.454368
    41  H    8.534709   7.249792   6.914447   5.730832   4.686260
    42  H    9.534077   8.168660   7.839729   6.564435   5.420481
    43  H    8.296682   6.991873   6.923431   5.815014   4.490960
    44  H    8.580728   7.233117   6.960844   5.785475   4.694968
    45  H    8.530196   7.171277   6.459050   5.168801   4.598903
    46  H    9.653038   8.258138   7.597015   6.231326   5.471964
    47  H    6.384880   5.054662   4.689548   3.625298   2.786316
    48  H    6.301869   4.996644   5.002999   4.056600   2.765286
    49  H    4.556699   3.393883   3.854856   3.393611   2.173344
    50  H    2.664769   2.154531   3.380372   3.860674   3.422713
                    6          7          8          9         10
     6  C    0.000000
     7  C    1.552947   0.000000
     8  C    1.560353   2.508851   0.000000
     9  C    2.596153   2.992303   1.557156   0.000000
    10  C    3.941515   4.408386   2.535272   1.538644   0.000000
    11  C    5.001782   5.130831   3.651006   2.584483   1.402984
    12  C    6.255650   6.487144   4.804781   3.873828   2.445830
    13  C    6.641005   7.164161   5.112110   4.389349   2.851138
    14  N    8.022444   8.555274   6.484249   5.783678   4.245499
    15  C    5.898476   6.680154   4.396600   3.855960   2.451076
    16  C    4.545887   5.373163   3.091692   2.555804   1.407153
    17  C    2.981881   2.505995   2.504399   1.556283   2.590551
    18  C    2.544050   1.535103   2.939264   2.553501   3.940493
    19  C    2.974468   2.507620   3.543460   2.982106   4.403131
    20  C    2.553621   2.953111   2.946686   2.544053   3.897923
    21  C    3.000297   3.561864   2.524839   1.553187   2.532786
    22  C    1.556640   2.525636   2.506916   2.976315   4.362870
    23  C    2.555327   3.099180   3.906062   5.147605   6.422308
    24  C    3.855679   4.400896   5.044451   6.406638   7.577924
    25  H    6.289274   7.088895   6.907247   8.454565   9.217895
    26  H    6.281441   6.913682   7.237076   8.714103   9.706397
    27  H    4.732297   5.656240   4.924021   6.473177   7.030287
    28  H    2.832603   3.903596   2.569882   4.090951   4.622471
    29  H    2.188787   1.098361   2.764052   3.379114   4.572154
    30  H    2.201564   1.097250   3.485127   3.999021   5.463357
    31  H    2.196220   2.762584   1.099529   2.174537   2.754875
    32  H    2.178193   3.466036   1.098170   2.190443   2.744314
    33  H    5.108039   4.902920   3.960710   2.831420   2.178326
    34  H    7.104770   7.162631   5.705515   4.731988   3.417291
    35  H    8.353127   9.031191   6.806582   6.281530   4.768572
    36  H    8.534376   8.931157   6.998390   6.289091   4.766429
    37  H    6.531248   7.472246   5.078511   4.703881   3.422698
    38  H    4.249013   5.333341   2.959156   2.766412   2.173666
    39  H    3.365839   2.740067   2.762633   2.196213   2.842442
    40  H    3.986158   3.454727   3.476325   2.195641   2.846586
    41  H    3.492325   2.162800   3.930474   3.500471   4.744356
    42  H    3.981710   3.465483   4.292970   3.369946   4.570857
    43  H    3.350868   2.752867   4.284496   3.984557   5.453856
    44  H    3.500751   3.943103   3.940031   3.492258   4.688986
    45  H    3.397557   4.315825   2.805319   2.202632   2.765424
    46  H    4.003706   4.306133   3.488827   2.188757   2.781026
    47  H    2.191390   3.488199   2.759252   3.354277   4.495917
    48  H    2.204693   2.808458   3.483814   3.986660   5.424997
    49  H    2.765266   2.965793   4.292577   5.288776   6.698379
    50  H    4.703418   5.071700   6.007110   7.293920   8.538164
                   11         12         13         14         15
    11  C    0.000000
    12  C    1.402138   0.000000
    13  C    2.433227   1.392784   0.000000
    14  N    3.709971   2.423628   1.399010   0.000000
    15  C    2.775013   2.388919   1.391937   2.423062   0.000000
    16  C    2.393684   2.768272   2.427944   3.705851   1.400500
    17  C    2.935222   4.335725   5.231198   6.586563   5.040120
    18  C    4.461945   5.863921   6.701664   8.074727   6.367120
    19  C    5.120736   6.481075   7.179356   8.534790   6.676817
    20  C    4.949594   6.209712   6.623460   7.966811   5.866011
    21  C    3.636890   4.795326   5.134287   6.456619   4.396076
    22  C    5.556723   6.797235   7.083920   8.446409   6.193912
    23  C    7.476756   8.681280   8.976586  10.319453   8.145934
    24  C    8.630944   9.766665   9.979109  11.277769   9.116604
    25  H   10.234462  11.084500  11.013060  12.114992  10.119533
    26  H   10.763062  11.762066  11.810549  13.007064  10.896844
    27  H    7.978288   8.742107   8.656378   9.739501   7.835094
    28  H    5.606774   6.454935   6.469796   7.667523   5.673394
    29  H    5.103752   6.398178   7.137602   8.494413   6.789167
    30  H    6.195662   7.564395   8.245787   9.639653   7.726285
    31  H    3.567375   4.634237   5.016681   6.347007   4.497415
    32  H    4.025222   4.972561   4.974049   6.280739   4.019469
    33  H    1.086090   2.128262   3.391375   4.550220   3.859448
    34  H    2.148608   1.086825   2.154153   2.663304   3.379774
    35  H    4.455934   3.274757   2.031718   1.014919   2.587150
    36  H    3.975629   2.587283   2.031624   1.014950   3.274013
    37  H    3.860774   3.380507   2.154560   2.664882   1.086558
    38  H    3.393896   3.855000   3.393742   4.556594   2.135629
    39  H    2.859422   4.178021   5.178317   6.491278   5.172800
    40  H    2.854485   4.178529   5.201432   6.480109   5.179271
    41  H    5.010906   6.387374   7.372051   8.708125   7.195385
    42  H    5.094362   6.395789   7.171715   8.466991   6.790873
    43  H    6.191740   7.562420   8.254957   9.617364   7.711559
    44  H    5.747468   6.930700   7.256411   8.542997   6.430718
    45  H    4.033687   4.986394   5.022224   6.275181   4.043730
    46  H    3.575528   4.650812   5.086782   6.329700   4.524448
    47  H    5.819763   6.929143   6.997946   8.304416   5.943188
    48  H    6.569172   7.844380   8.172796   9.538484   7.289587
    49  H    7.724061   9.006297   9.397071  10.771095   8.595404
    50  H    9.583106  10.758559  11.008352  12.321170  10.144207
                   16         17         18         19         20
    16  C    0.000000
    17  C    3.902063   0.000000
    18  C    5.106267   1.534407   0.000000
    19  C    5.366827   2.503016   1.533562   0.000000
    20  C    4.509767   2.935208   2.509728   1.533456   0.000000
    21  C    3.089213   2.506284   2.945366   2.507213   1.534954
    22  C    4.798207   3.542031   2.945607   2.506172   1.537417
    23  C    6.846762   5.371809   4.514423   4.793442   4.503842
    24  C    7.886519   6.680220   5.867869   6.189002   5.861710
    25  H    9.178319   9.005694   8.576479   9.073472   8.513737
    26  H    9.808367   9.111695   8.410479   8.762535   8.325425
    27  H    6.970000   7.131575   7.028443   7.697171   7.087437
    28  H    4.682918   4.864688   5.024087   5.734393   5.094164
    29  H    5.586787   2.753499   2.169056   3.464721   3.954559
    30  H    6.392894   3.452169   2.151957   2.748399   3.358788
    31  H    3.385954   2.746102   3.331644   4.288122   3.948825
    32  H    2.757841   3.472635   3.945798   4.297868   3.351735
    33  H    3.398719   2.564306   4.068481   4.879040   5.040291
    34  H    3.854342   4.919226   6.448413   7.142488   7.042741
    35  H    3.973314   7.234231   8.679515   9.111282   8.411388
    36  H    4.450773   6.904371   8.425405   9.010850   8.583624
    37  H    2.148314   6.002776   7.252675   7.456990   6.490086
    38  H    1.087708   4.289464   5.245514   5.317338   4.208810
    39  H    4.181921   1.098216   2.155938   3.453344   3.938376
    40  H    4.186169   1.098213   2.154173   2.739413   3.325920
    41  H    6.008789   2.162818   1.096056   2.162247   3.461721
    42  H    5.583226   2.755216   2.169525   1.096966   2.169094
    43  H    6.373688   3.462412   2.170082   1.096937   2.170164
    44  H    5.132189   3.926731   3.461664   2.161988   1.096056
    45  H    2.780867   3.482450   3.949880   3.452271   2.151166
    46  H    3.408121   2.763951   3.340555   2.756251   2.168688
    47  H    4.598973   4.284142   3.946082   3.463906   2.171015
    48  H    5.894382   4.299097   3.354561   2.747563   2.150674
    49  H    7.240134   5.326781   4.220236   4.295615   4.199255
    50  H    8.886836   7.463345   6.495267   6.716176   6.491611
                   21         22         23         24         25
    21  C    0.000000
    22  C    2.508601   0.000000
    23  C    5.370950   3.078625   0.000000
    24  C    6.682638   4.388500   1.400535   0.000000
    25  H    8.954266   7.007181   4.450832   3.274083   0.000000
    26  H    9.041074   6.805575   3.973374   2.587228   1.686151
    27  H    7.198431   5.722680   3.854234   3.379720   2.424695
    28  H    4.946522   3.984773   3.398854   3.859458   4.642757
    29  H    4.307947   3.489345   3.427950   4.537280   6.930688
    30  H    4.314059   2.807581   2.788503   4.044458   7.018872
    31  H    3.477670   3.477269   4.190925   5.181939   6.747075
    32  H    2.792211   2.754699   4.143102   5.132856   6.642354
    33  H    3.928979   5.734885   7.553715   8.747596  10.543526
    34  H    5.676778   7.699892   9.523371  10.613598  11.939700
    35  H    6.913876   8.765358  10.533343  11.408660  12.005587
    36  H    7.098568   9.075282  10.830771  11.782068  12.592475
    37  H    5.061420   6.722212   8.630542   9.517007  10.285574
    38  H    2.943422   4.302017   6.364812   7.351273   8.596142
    39  H    3.476960   4.289146   5.584253   6.789439   8.902385
    40  H    2.762748   4.285758   6.373390   7.710558  10.094126
    41  H    3.933062   3.939283   5.140517   6.434745   9.208837
    42  H    2.756061   3.465014   5.890389   7.285640  10.154409
    43  H    3.465681   2.753800   4.592259   5.936003   9.014879
    44  H    2.162458   2.165131   5.117457   6.417661   9.102243
    45  H    1.097095   2.745969   5.583502   6.794954   8.817494
    46  H    1.098371   3.466447   6.378099   7.717447  10.048001
    47  H    2.751119   1.098378   3.393857   4.514369   6.783634
    48  H    3.451954   1.097063   2.764941   4.030571   6.932430
    49  H    5.317260   2.932874   1.087672   2.135818   5.378205
    50  H    7.467339   5.064444   2.148338   1.086540   3.622277
                   26         27         28         29         30
    26  H    0.000000
    27  H    3.620783   0.000000
    28  H    5.373513   2.419199   0.000000
    29  H    6.889025   5.392041   3.731528   0.000000
    30  H    6.588608   5.938375   4.538928   1.755444   0.000000
    31  H    7.226486   4.606162   2.265283   2.562237   3.776406
    32  H    7.109767   4.620341   2.321664   3.758668   4.334870
    33  H   10.971007   8.348924   6.003520   4.800506   5.920550
    34  H   12.621211   9.584403   7.333225   6.990140   8.223510
    35  H   12.986638   9.650893   7.719846   8.974040  10.110465
    36  H   13.508696  10.185643   8.141396   8.768742  10.023529
    37  H   11.138223   8.052724   6.061449   7.621600   8.487225
    38  H    9.197475   6.504972   4.329303   5.673965   6.269430
    39  H    9.113939   6.942065   4.741473   2.529412   3.720826
    40  H   10.173867   8.212218   5.912760   3.740643   4.278270
    41  H    8.960451   7.746107   5.856337   2.486051   2.457658
    42  H    9.858961   8.712142   6.653079   4.307705   3.738021
    43  H    8.503410   7.905118   6.181868   3.751131   2.537681
    44  H    8.815870   7.833073   5.956444   4.987238   4.169328
    45  H    8.993803   7.069341   4.896622   5.046424   5.043269
    46  H   10.112565   8.269971   5.978846   5.026188   5.023671
    47  H    6.699063   5.508308   3.873340   4.341526   3.815651
    48  H    6.469757   6.004675   4.612247   3.817408   2.645361
    49  H    4.653857   4.940768   4.325310   3.507687   2.333990
    50  H    2.427068   4.288215   4.945116   5.251245   4.510509
                   31         32         33         34         35
    31  H    0.000000
    32  H    1.759442   0.000000
    33  H    3.802421   4.576109   0.000000
    34  H    5.444225   5.970718   2.419733   0.000000
    35  H    6.670723   6.451802   5.373594   3.620628   0.000000
    36  H    6.736258   6.904466   4.642966   2.424545   1.686079
    37  H    5.232534   4.499764   4.945186   4.288322   2.426786
    38  H    3.475106   2.303578   4.325404   4.940994   4.653362
    39  H    2.547398   3.770049   2.323246   4.638327   7.150249
    40  H    3.754903   4.338798   2.292774   4.621817   7.229670
    41  H    4.141397   4.978391   4.402026   6.821471   9.382861
    42  H    5.008204   5.025902   4.766519   6.962916   9.119818
    43  H    5.006909   5.010095   5.913446   8.214275  10.175121
    44  H    4.984357   4.166985   5.881957   7.769290   8.961385
    45  H    3.804068   2.625336   4.566028   5.964528   6.592806
    46  H    4.327252   3.798309   3.776387   5.425829   6.886081
    47  H    3.770684   2.551083   6.185340   7.911087   8.508044
    48  H    4.351185   3.762570   6.657583   8.717177   9.862266
    49  H    4.709110   4.663772   7.705360   9.819616  11.056657
    50  H    6.182707   6.138103   9.645908  11.592068  12.468355
                   36         37         38         39         40
    36  H    0.000000
    37  H    3.622107   0.000000
    38  H    5.377848   2.432259   0.000000
    39  H    6.675179   6.180069   4.702673   0.000000
    40  H    6.756953   6.176759   4.699879   1.764325   0.000000
    41  H    8.960431   8.136489   6.249429   2.470127   2.464682
    42  H    8.915836   7.602881   5.654029   3.745418   2.534254
    43  H   10.095692   8.457295   6.234226   4.295810   3.736447
    44  H    9.220604   6.952638   4.724020   4.971962   4.136081
    45  H    7.033568   4.502982   2.306511   4.350494   3.778211
    46  H    6.945123   5.228705   3.470407   3.773753   2.565540
    47  H    9.018968   6.306703   3.886072   5.011366   5.005570
    48  H   10.158126   7.802619   5.375647   5.025032   5.004304
    49  H   11.284976   9.132389   6.783743   5.660912   6.233322
    50  H   12.826500  10.548868   8.337018   7.605291   8.455948
                   41         42         43         44         45
    41  H    0.000000
    42  H    2.486297   0.000000
    43  H    2.494102   1.761538   0.000000
    44  H    4.296084   2.488869   2.490684   0.000000
    45  H    4.979599   3.739035   4.292225   2.456795   0.000000
    46  H    4.145529   2.549262   3.753366   2.484973   1.755421
    47  H    4.982001   4.308413   3.753389   2.491912   2.531423
    48  H    4.170979   3.737995   2.539440   2.451752   3.718129
    49  H    4.744050   5.371772   3.878113   4.704132   5.643181
    50  H    6.962696   7.798905   6.298449   6.948654   7.611784
                   46         47         48         49         50
    46  H    0.000000
    47  H    3.748257   0.000000
    48  H    4.289908   1.755111   0.000000
    49  H    6.232862   3.458433   2.290612   0.000000
    50  H    8.465706   5.237339   4.502236   2.432549   0.000000
 Stoichiometry    C22H26N2
 Framework group  C1[X(C22H26N2)]
 Deg. of freedom   144
 Full point group                 C1      NOp   1
 Largest Abelian subgroup         C1      NOp   1
 Largest concise Abelian subgroup C1      NOp   1
                         Standard orientation:                         
 ---------------------------------------------------------------------
 Center     Atomic      Atomic             Coordinates (Angstroms)
 Number     Number       Type             X           Y           Z
 ---------------------------------------------------------------------
      1          7           0       -6.068177   -2.572818   -0.219696
      2          6           0       -4.906279   -1.808941   -0.065447
      3          6           0       -3.651321   -2.391367   -0.225666
      4          6           0       -2.483875   -1.615627   -0.189072
      5          6           0       -2.537429   -0.222463   -0.031492
      6          6           0       -1.279865    0.662917    0.012084
      7          6           0       -1.292601    1.654762   -1.182790
      8          6           0        0.056034   -0.139886   -0.062633
      9          6           0        1.313759    0.776327   -0.004184
     10          6           0        2.590381   -0.082277   -0.025635
     11          6           0        3.575423    0.042235   -1.016874
     12          6           0        4.726381   -0.758502   -1.006606
     13          6           0        4.912140   -1.737078   -0.033093
     14          7           0        6.114305   -2.449195    0.037042
     15          6           0        3.975490   -1.829520    0.992398
     16          6           0        2.824257   -1.032011    0.985991
     17          6           0        1.210627    1.771734   -1.196051
     18          6           0       -0.081498    2.596395   -1.127115
     19          6           0       -0.107511    3.391183    0.184162
     20          6           0       -0.039809    2.429559    1.376715
     21          6           0        1.256450    1.610656    1.304632
     22          6           0       -1.248564    1.480381    1.336434
     23          6           0       -3.816289    0.356829    0.062717
     24          6           0       -4.979754   -0.421931    0.025571
     25          1           0       -5.950688   -3.548726    0.033092
     26          1           0       -6.888346   -2.158730    0.211453
     27          1           0       -3.563208   -3.463359   -0.381394
     28          1           0       -1.539474   -2.140198   -0.302223
     29          1           0       -1.290861    1.102332   -2.132113
     30          1           0       -2.206539    2.261948   -1.184270
     31          1           0        0.092272   -0.727928   -0.990996
     32          1           0        0.080609   -0.863345    0.763188
     33          1           0        3.487837    0.770218   -1.818100
     34          1           0        5.478153   -0.605286   -1.776380
     35          1           0        6.041649   -3.322224    0.549489
     36          1           0        6.571500   -2.566404   -0.861488
     37          1           0        4.128137   -2.526235    1.812090
     38          1           0        2.115553   -1.160487    1.801063
     39          1           0        1.235216    1.230714   -2.151442
     40          1           0        2.067171    2.459050   -1.196515
     41          1           0       -0.118808    3.289170   -1.975648
     42          1           0        0.737964    4.089348    0.216914
     43          1           0       -1.020955    3.996017    0.239536
     44          1           0       -0.056992    3.003276    2.310466
     45          1           0        1.309962    0.965424    2.190313
     46          1           0        2.123809    2.282060    1.362287
     47          1           0       -1.216049    0.800184    2.198240
     48          1           0       -2.160303    2.079024    1.454354
     49          1           0       -3.931542    1.434630    0.152674
     50          1           0       -5.945831    0.073362    0.069716
 ---------------------------------------------------------------------
 Rotational constants (GHZ):           0.4197049           0.1315805           0.1095283
 Standard basis: 6-31G(d,p) (6D, 7F)
 There are   490 symmetry adapted cartesian basis functions of A   symmetry.
 There are   490 symmetry adapted basis functions of A   symmetry.
   490 basis functions,   854 primitive gaussians,   490 cartesian basis functions
    86 alpha electrons       86 beta electrons
       nuclear repulsion energy      2031.5963678849 Hartrees.
 NAtoms=   50 NActive=   50 NUniq=   50 SFac= 1.00D+00 NAtFMM=   60 NAOKFM=F Big=F
 Integral buffers will be    131072 words long.
 Raffenetti 2 integral format.
 Two-electron integral symmetry is turned on.
 Force inversion solution in PCM.
 ------------------------------------------------------------------------------
 Polarizable Continuum Model (PCM)
 =================================
 Model                : PCM.
 Atomic radii         : UFF (Universal Force Field).
 Polarization charges : Total charges.
 Charge compensation  : None.
 Solution method      : Matrix inversion.
 Cavity type          : Scaled VdW (van der Waals Surface) (Alpha=1.100).
 Cavity algorithm     : GePol (No added spheres)
                        Default sphere list used, NSphG=   50.
                        Lebedev-Laikov grids with approx.  5.0 points / Ang**2.
                        Smoothing algorithm: York/Karplus (Gamma=1.0000).
                        Polarization charges: spherical gaussians, with
                                              point-specific exponents (IZeta= 3).
                        Self-potential: point-specific (ISelfS= 7).
                        Self-field    : sphere-specific E.n sum rule (ISelfD= 2).
 1st derivatives      : Analytical E(r).r(x)/FMM algorithm (CHGder, D1EAlg=3).
                        Cavity 1st derivative terms included.
 2nd derivatives      : Analytical E(r).r(xy)/FMM algorithm (CHGder, D2EAlg=3).
                        Cavity 2nd derivative terms included.
 Solvent              : Water, Eps=  78.355300 Eps(inf)=   1.777849
 ------------------------------------------------------------------------------
 One-electron integrals computed using PRISM.
 NBasis=   490 RedAO= T EigKep=  4.15D-04  NBF=   490
 NBsUse=   490 1.00D-06 EigRej= -1.00D+00 NBFU=   490
 ExpMin= 1.61D-01 ExpMax= 4.17D+03 ExpMxC= 6.27D+02 IAcc=3 IRadAn=         5 AccDes= 0.00D+00
 Harris functional with IExCor=  402 and IRadAn=       5 diagonalized for initial guess.
 HarFok:  IExCor=  402 AccDes= 0.00D+00 IRadAn=         5 IDoV= 1 UseB2=F ITyADJ=14
 ICtDFT=  3500011 ScaDFX=  1.000000  1.000000  1.000000  1.000000
 FoFCou: FMM=F IPFlag=           0 FMFlag=      100000 FMFlg1=           0
         NFxFlg=           0 DoJE=T BraDBF=F KetDBF=T FulRan=T
         wScrn=  0.000000 ICntrl=       500 IOpCl=  0 I1Cent=   200000004 NGrid=           0
         NMat0=    1 NMatS0=      1 NMatT0=    0 NMatD0=    1 NMtDS0=    0 NMtDT0=    0
 Petite list used in FoFCou.
 Requested convergence on RMS density matrix=1.00D-08 within  32 cycles.
 Requested convergence on MAX density matrix=1.00D-06.
 Requested convergence on             energy=1.00D-06.
 No special actions if energy rises.
 Inv3:  Mode=1 IEnd=    27743043.
 Iteration    1 A*A^-1 deviation from unit magnitude is 4.22D-15 for   2429.
 Iteration    1 A*A^-1 deviation from orthogonality  is 2.44D-15 for   2131    934.
 Iteration    1 A^-1*A deviation from unit magnitude is 3.55D-15 for   1889.
 Iteration    1 A^-1*A deviation from orthogonality  is 3.59D-14 for   1921   1860.
 Error on total polarization charges =  0.01240
 SCF Done:  E(RB3LYP) =  -963.579311203     A.U. after   12 cycles
            NFock= 12  Conv=0.50D-08     -V/T= 2.0097
 QCSCF skips out because SCF is already converged.
 DoSCS=F DFT=T ScalE2(SS,OS)=  1.000000  1.000000
 Range of M.O.s used for correlation:     1   490
 NBasis=   490 NAE=    86 NBE=    86 NFC=     0 NFV=     0
 NROrb=    490 NOA=    86 NOB=    86 NVA=   404 NVB=   404
 Symmetrizing basis deriv contribution to polar:
 IMax=3 JMax=2 DiffMx= 0.00D+00
 G2DrvN: will do    51 centers at a time, making    1 passes.
 Calling FoFCou, ICntrl=  3107 FMM=F I1Cent=   0 AccDes= 0.00D+00.
 NEqPCM:  Using equilibrium solvation (IEInf=0, Eps=  78.3553, EpsInf=   1.7778)
 G2PCM: DoFxE=T DoFxN=T DoGrad=T DoDP/DQ/DG/TGxP=FFFF NFrqRd=   0 IEInf=0 SqF1=F DoCFld=F IF1Alg=4.
 End of G2Drv F.D. properties file   721 does not exist.
 End of G2Drv F.D. properties file   722 does not exist.
 End of G2Drv F.D. properties file   788 does not exist.
          IDoAtm=11111111111111111111111111111111111111111111111111
 NEqPCM:  Using equilibrium solvation (IEInf=0, Eps=  78.3553, EpsInf=   1.7778)
          Differentiating once with respect to nuclear coordinates.
 CalDSu exits because no D1Ps are significant.
          There are   153 degrees of freedom in the 1st order CPHF.  IDoFFX=6 NUNeed=     0.
    147 vectors produced by pass  0 Test12= 3.47D-14 1.00D-09 XBig12= 1.16D-01 9.81D-02.
 AX will form   147 AO Fock derivatives at one time.
    147 vectors produced by pass  1 Test12= 3.47D-14 1.00D-09 XBig12= 2.07D-02 3.41D-02.
    147 vectors produced by pass  2 Test12= 3.47D-14 1.00D-09 XBig12= 1.60D-04 1.52D-03.
    147 vectors produced by pass  3 Test12= 3.47D-14 1.00D-09 XBig12= 3.72D-07 6.08D-05.
    147 vectors produced by pass  4 Test12= 3.47D-14 1.00D-09 XBig12= 4.72D-10 1.55D-06.
     88 vectors produced by pass  5 Test12= 3.47D-14 1.00D-09 XBig12= 4.38D-13 5.66D-08.
      6 vectors produced by pass  6 Test12= 3.47D-14 1.00D-09 XBig12= 3.79D-16 2.16D-09.
 InvSVY:  IOpt=1 It=  1 EMax= 3.89D-16
 Solved reduced A of dimension   829 with   153 vectors.
 End of Minotr F.D. properties file   721 does not exist.
 End of Minotr F.D. properties file   722 does not exist.
 End of Minotr F.D. properties file   788 does not exist.

 **********************************************************************

            Population analysis using the SCF density.

 **********************************************************************

 Orbital symmetries:
       Occupied  (A) (A) (A) (A) (A) (A) (A) (A) (A) (A) (A) (A)
                 (A) (A) (A) (A) (A) (A) (A) (A) (A) (A) (A) (A)
                 (A) (A) (A) (A) (A) (A) (A) (A) (A) (A) (A) (A)
                 (A) (A) (A) (A) (A) (A) (A) (A) (A) (A) (A) (A)
                 (A) (A) (A) (A) (A) (A) (A) (A) (A) (A) (A) (A)
                 (A) (A) (A) (A) (A) (A) (A) (A) (A) (A) (A) (A)
                 (A) (A) (A) (A) (A) (A) (A) (A) (A) (A) (A) (A)
                 (A) (A)
       Virtual   (A) (A) (A) (A) (A) (A) (A) (A) (A) (A) (A) (A)
                 (A) (A) (A) (A) (A) (A) (A) (A) (A) (A) (A) (A)
                 (A) (A) (A) (A) (A) (A) (A) (A) (A) (A) (A) (A)
                 (A) (A) (A) (A) (A) (A) (A) (A) (A) (A) (A) (A)
                 (A) (A) (A) (A) (A) (A) (A) (A) (A) (A) (A) (A)
                 (A) (A) (A) (A) (A) (A) (A) (A) (A) (A) (A) (A)
                 (A) (A) (A) (A) (A) (A) (A) (A) (A) (A) (A) (A)
                 (A) (A) (A) (A) (A) (A) (A) (A) (A) (A) (A) (A)
                 (A) (A) (A) (A) (A) (A) (A) (A) (A) (A) (A) (A)
                 (A) (A) (A) (A) (A) (A) (A) (A) (A) (A) (A) (A)
                 (A) (A) (A) (A) (A) (A) (A) (A) (A) (A) (A) (A)
                 (A) (A) (A) (A) (A) (A) (A) (A) (A) (A) (A) (A)
                 (A) (A) (A) (A) (A) (A) (A) (A) (A) (A) (A) (A)
                 (A) (A) (A) (A) (A) (A) (A) (A) (A) (A) (A) (A)
                 (A) (A) (A) (A) (A) (A) (A) (A) (A) (A) (A) (A)
                 (A) (A) (A) (A) (A) (A) (A) (A) (A) (A) (A) (A)
                 (A) (A) (A) (A) (A) (A) (A) (A) (A) (A) (A) (A)
                 (A) (A) (A) (A) (A) (A) (A) (A) (A) (A) (A) (A)
                 (A) (A) (A) (A) (A) (A) (A) (A) (A) (A) (A) (A)
                 (A) (A) (A) (A) (A) (A) (A) (A) (A) (A) (A) (A)
                 (A) (A) (A) (A) (A) (A) (A) (A) (A) (A) (A) (A)
                 (A) (A) (A) (A) (A) (A) (A) (A) (A) (A) (A) (A)
                 (A) (A) (A) (A) (A) (A) (A) (A) (A) (A) (A) (A)
                 (A) (A) (A) (A) (A) (A) (A) (A) (A) (A) (A) (A)
                 (A) (A) (A) (A) (A) (A) (A) (A) (A) (A) (A) (A)
                 (A) (A) (A) (A) (A) (A) (A) (A) (A) (A) (A) (A)
                 (A) (A) (A) (A) (A) (A) (A) (A) (A) (A) (A) (A)
                 (A) (A) (A) (A) (A) (A) (A) (A) (A) (A) (A) (A)
                 (A) (A) (A) (A) (A) (A) (A) (A) (A) (A) (A) (A)
                 (A) (A) (A) (A) (A) (A) (A) (A) (A) (A) (A) (A)
                 (A) (A) (A) (A) (A) (A) (A) (A) (A) (A) (A) (A)
                 (A) (A) (A) (A) (A) (A) (A) (A) (A) (A) (A) (A)
                 (A) (A) (A) (A) (A) (A) (A) (A) (A) (A) (A) (A)
                 (A) (A) (A) (A) (A) (A) (A) (A)
 The electronic state is 1-A.
 Alpha  occ. eigenvalues --  -14.33337 -14.33327 -10.22034 -10.22017 -10.19485
 Alpha  occ. eigenvalues --  -10.19407 -10.18372 -10.18353 -10.18285 -10.18269
 Alpha  occ. eigenvalues --  -10.18206 -10.18195 -10.17887 -10.17879 -10.17764
 Alpha  occ. eigenvalues --  -10.17751 -10.17729 -10.17656 -10.17441 -10.17166
 Alpha  occ. eigenvalues --  -10.17141 -10.17100 -10.17095 -10.16860  -0.91135
 Alpha  occ. eigenvalues --   -0.91125  -0.86995  -0.83641  -0.82772  -0.77509
 Alpha  occ. eigenvalues --   -0.77009  -0.76328  -0.73696  -0.73666  -0.70948
 Alpha  occ. eigenvalues --   -0.70444  -0.66304  -0.66256  -0.61145  -0.60886
 Alpha  occ. eigenvalues --   -0.60249  -0.59665  -0.57452  -0.56107  -0.55256
 Alpha  occ. eigenvalues --   -0.52267  -0.50801  -0.50042  -0.49884  -0.49661
 Alpha  occ. eigenvalues --   -0.47136  -0.44881  -0.44548  -0.44465  -0.44076
 Alpha  occ. eigenvalues --   -0.42849  -0.42607  -0.42427  -0.41518  -0.41082
 Alpha  occ. eigenvalues --   -0.41031  -0.40810  -0.40516  -0.39455  -0.38758
 Alpha  occ. eigenvalues --   -0.38077  -0.37569  -0.37522  -0.35481  -0.34805
 Alpha  occ. eigenvalues --   -0.34199  -0.33978  -0.32898  -0.32737  -0.31981
 Alpha  occ. eigenvalues --   -0.31470  -0.31402  -0.29688  -0.29508  -0.28032
 Alpha  occ. eigenvalues --   -0.27497  -0.27304  -0.24403  -0.24389  -0.19876
 Alpha  occ. eigenvalues --   -0.19814
 Alpha virt. eigenvalues --    0.00060   0.00083   0.01904   0.01976   0.07376
 Alpha virt. eigenvalues --    0.09452   0.09532   0.10604   0.10877   0.12101
 Alpha virt. eigenvalues --    0.12278   0.12963   0.13524   0.13922   0.14133
 Alpha virt. eigenvalues --    0.14523   0.15369   0.15777   0.15907   0.16372
 Alpha virt. eigenvalues --    0.16696   0.17670   0.18155   0.18429   0.18940
 Alpha virt. eigenvalues --    0.19492   0.19660   0.20468   0.20696   0.21074
 Alpha virt. eigenvalues --    0.22379   0.23061   0.23098   0.23552   0.23581
 Alpha virt. eigenvalues --    0.24198   0.24832   0.25473   0.26232   0.26860
 Alpha virt. eigenvalues --    0.28311   0.28388   0.29396   0.30009   0.30628
 Alpha virt. eigenvalues --    0.30944   0.31337   0.31636   0.34511   0.34725
 Alpha virt. eigenvalues --    0.35344   0.36064   0.36694   0.37261   0.38552
 Alpha virt. eigenvalues --    0.39490   0.48310   0.50185   0.50492   0.51863
 Alpha virt. eigenvalues --    0.52193   0.52415   0.53285   0.54293   0.54604
 Alpha virt. eigenvalues --    0.54736   0.54886   0.54973   0.55829   0.56604
 Alpha virt. eigenvalues --    0.57132   0.58258   0.58925   0.59173   0.59974
 Alpha virt. eigenvalues --    0.60083   0.60278   0.60394   0.60727   0.61218
 Alpha virt. eigenvalues --    0.61824   0.62561   0.63043   0.63328   0.63853
 Alpha virt. eigenvalues --    0.64572   0.64611   0.66863   0.68067   0.68215
 Alpha virt. eigenvalues --    0.69050   0.69612   0.69781   0.70270   0.70696
 Alpha virt. eigenvalues --    0.71119   0.71506   0.73013   0.75184   0.75717
 Alpha virt. eigenvalues --    0.76277   0.76540   0.76975   0.78016   0.78744
 Alpha virt. eigenvalues --    0.79378   0.79828   0.80903   0.81268   0.81853
 Alpha virt. eigenvalues --    0.82737   0.82891   0.83557   0.83971   0.84461
 Alpha virt. eigenvalues --    0.85273   0.85633   0.85857   0.86182   0.86443
 Alpha virt. eigenvalues --    0.86905   0.87503   0.87923   0.88859   0.89281
 Alpha virt. eigenvalues --    0.89322   0.90115   0.90473   0.91709   0.92132
 Alpha virt. eigenvalues --    0.92949   0.93136   0.94731   0.95269   0.95864
 Alpha virt. eigenvalues --    0.96656   0.97024   0.97893   0.99291   0.99415
 Alpha virt. eigenvalues --    1.00021   1.00330   1.00448   1.02631   1.03118
 Alpha virt. eigenvalues --    1.05968   1.07149   1.09455   1.09936   1.10991
 Alpha virt. eigenvalues --    1.11604   1.12594   1.14853   1.15875   1.16731
 Alpha virt. eigenvalues --    1.17301   1.17849   1.18352   1.18949   1.19882
 Alpha virt. eigenvalues --    1.20803   1.21219   1.22791   1.24749   1.26315
 Alpha virt. eigenvalues --    1.28927   1.29434   1.31648   1.32029   1.36117
 Alpha virt. eigenvalues --    1.37044   1.39758   1.40253   1.40785   1.41103
 Alpha virt. eigenvalues --    1.41416   1.41843   1.42322   1.43673   1.44890
 Alpha virt. eigenvalues --    1.45765   1.47694   1.48023   1.49113   1.49748
 Alpha virt. eigenvalues --    1.50754   1.53105   1.53491   1.56776   1.61420
 Alpha virt. eigenvalues --    1.63705   1.67164   1.67548   1.69367   1.72385
 Alpha virt. eigenvalues --    1.73719   1.75321   1.75838   1.76436   1.76948
 Alpha virt. eigenvalues --    1.77510   1.78720   1.78963   1.79900   1.80329
 Alpha virt. eigenvalues --    1.80978   1.81163   1.81918   1.83126   1.83950
 Alpha virt. eigenvalues --    1.84772   1.85728   1.86132   1.87521   1.88846
 Alpha virt. eigenvalues --    1.89516   1.90410   1.91172   1.92476   1.92882
 Alpha virt. eigenvalues --    1.93690   1.94203   1.94535   1.94897   1.95567
 Alpha virt. eigenvalues --    1.96194   1.96816   1.97078   1.97665   1.98413
 Alpha virt. eigenvalues --    1.98811   1.99060   1.99528   2.00753   2.00831
 Alpha virt. eigenvalues --    2.01404   2.04717   2.05440   2.07898   2.08845
 Alpha virt. eigenvalues --    2.08967   2.09822   2.10474   2.11634   2.13362
 Alpha virt. eigenvalues --    2.14057   2.15242   2.15678   2.16693   2.16974
 Alpha virt. eigenvalues --    2.17098   2.18422   2.20786   2.21334   2.21890
 Alpha virt. eigenvalues --    2.22738   2.23656   2.24860   2.24993   2.27204
 Alpha virt. eigenvalues --    2.27337   2.28324   2.30182   2.30706   2.31057
 Alpha virt. eigenvalues --    2.31377   2.32761   2.34069   2.34450   2.35157
 Alpha virt. eigenvalues --    2.36127   2.36539   2.36859   2.37611   2.38868
 Alpha virt. eigenvalues --    2.39544   2.40515   2.41522   2.41869   2.42189
 Alpha virt. eigenvalues --    2.42974   2.43216   2.44020   2.45665   2.46156
 Alpha virt. eigenvalues --    2.46448   2.46972   2.47509   2.47769   2.48356
 Alpha virt. eigenvalues --    2.49294   2.50163   2.50681   2.50874   2.51082
 Alpha virt. eigenvalues --    2.51572   2.52868   2.55246   2.56101   2.56823
 Alpha virt. eigenvalues --    2.57608   2.58481   2.59129   2.59615   2.60451
 Alpha virt. eigenvalues --    2.61350   2.62166   2.63901   2.65262   2.66072
 Alpha virt. eigenvalues --    2.66766   2.67149   2.68730   2.70797   2.72326
 Alpha virt. eigenvalues --    2.72826   2.74526   2.76291   2.76447   2.77665
 Alpha virt. eigenvalues --    2.78123   2.78550   2.79213   2.81170   2.81462
 Alpha virt. eigenvalues --    2.82391   2.83585   2.84995   2.86525   2.87170
 Alpha virt. eigenvalues --    2.87883   2.88194   2.90906   2.91526   2.92458
 Alpha virt. eigenvalues --    2.92976   2.94275   2.95300   2.95664   2.96374
 Alpha virt. eigenvalues --    2.96862   2.98252   2.98775   2.98937   3.02995
 Alpha virt. eigenvalues --    3.04451   3.06494   3.07907   3.08828   3.11501
 Alpha virt. eigenvalues --    3.19912   3.20183   3.24449   3.26468   3.26529
 Alpha virt. eigenvalues --    3.28771   3.28853   3.30234   3.31166   3.31438
 Alpha virt. eigenvalues --    3.33509   3.35989   3.39211   3.39285   3.39846
 Alpha virt. eigenvalues --    3.41400   3.44141   3.46499   3.48094   3.48624
 Alpha virt. eigenvalues --    3.48719   3.49054   3.49180   3.52523   3.52850
 Alpha virt. eigenvalues --    3.53291   3.54285   3.54427   3.82436   3.82576
 Alpha virt. eigenvalues --    4.04579   4.04670   4.14436   4.14657   4.16447
 Alpha virt. eigenvalues --    4.16499   4.22777   4.25015   4.34309   4.41963
 Alpha virt. eigenvalues --    4.43901   4.45394   4.48980   4.51271   4.53048
 Alpha virt. eigenvalues --    4.53714   4.77398   4.78778   4.79162   4.83247
 Alpha virt. eigenvalues --    4.86573   4.94151   4.95908   4.96721
          Condensed to atoms (all electrons):
               1          2          3          4          5          6
     1  N    6.839764   0.294801  -0.071042   0.004480   0.000588   0.000002
     2  C    0.294801   4.572237   0.542789  -0.024066  -0.029326   0.000472
     3  C   -0.071042   0.542789   4.982110   0.497619  -0.033479   0.006692
     4  C    0.004480  -0.024066   0.497619   4.933548   0.542875  -0.049787
     5  C    0.000588  -0.029326  -0.033479   0.542875   4.793847   0.346470
     6  C    0.000002   0.000472   0.006692  -0.049787   0.346470   5.011506
     7  C    0.000000   0.000023  -0.000183   0.000922  -0.045599   0.371904
     8  C   -0.000000  -0.000018   0.000229  -0.008590  -0.035180   0.342204
     9  C   -0.000000   0.000000  -0.000007   0.000375   0.003072  -0.016371
    10  C   -0.000000   0.000000   0.000000  -0.000004  -0.000055   0.003643
    11  C    0.000000   0.000000  -0.000000  -0.000000   0.000001  -0.000060
    12  C    0.000000  -0.000000   0.000000   0.000000  -0.000000   0.000000
    13  C   -0.000000   0.000000  -0.000000  -0.000000   0.000000   0.000000
    14  N    0.000000  -0.000000   0.000000   0.000000  -0.000000   0.000000
    15  C   -0.000000  -0.000000   0.000000  -0.000000  -0.000000  -0.000002
    16  C   -0.000000  -0.000000   0.000000  -0.000003  -0.000009   0.000344
    17  C    0.000000  -0.000000   0.000000  -0.000009  -0.000052  -0.016262
    18  C   -0.000000  -0.000000   0.000002  -0.000061   0.004331  -0.025732
    19  C    0.000000   0.000000   0.000000  -0.000004   0.000104  -0.018533
    20  C    0.000000   0.000000   0.000001  -0.000069   0.004232  -0.026435
    21  C    0.000000  -0.000000   0.000000  -0.000016  -0.000022  -0.015638
    22  C   -0.000000  -0.000019  -0.000130   0.001453  -0.044173   0.370937
    23  C    0.004514  -0.024791  -0.046450  -0.049058   0.521133  -0.051479
    24  C   -0.071122   0.539161  -0.050076  -0.044503  -0.031085   0.004943
    25  H    0.343389  -0.025182  -0.009444  -0.000042  -0.000001  -0.000000
[...]
   277    C   19  py     Val( 2p)     1.14494
   278    C   19  py     Ryd( 3p)     0.00296
   279    C   19  pz     Val( 2p)     1.03137
   280    C   19  pz     Ryd( 3p)     0.00181
   281    C   19  dxy    Ryd( 3d)     0.00112
   282    C   19  dxz    Ryd( 3d)     0.00025
   283    C   19  dyz    Ryd( 3d)     0.00073
   284    C   19  dx2y2  Ryd( 3d)     0.00027
   285    C   19  dz2    Ryd( 3d)     0.00086

   286    C   20  S      Cor( 1S)     1.99920
   287    C   20  S      Val( 2S)     0.96317
   288    C   20  S      Ryd( 3S)     0.00050
   289    C   20  S      Ryd( 4S)     0.00002
   290    C   20  px     Val( 2p)     1.02988
   291    C   20  px     Ryd( 3p)     0.00210
   292    C   20  py     Val( 2p)     1.08082
   293    C   20  py     Ryd( 3p)     0.00331
   294    C   20  pz     Val( 2p)     1.16657
   295    C   20  pz     Ryd( 3p)     0.00563
   296    C   20  dxy    Ryd( 3d)     0.00089
   297    C   20  dxz    Ryd( 3d)     0.00032
   298    C   20  dyz    Ryd( 3d)     0.00097
   299    C   20  dx2y2  Ryd( 3d)     0.00052
   300    C   20  dz2    Ryd( 3d)     0.00079

   301    C   21  S      Cor( 1S)     1.99924
   302    C   21  S      Val( 2S)     1.02041
   303    C   21  S      Ryd( 3S)     0.00100
   304    C   21  S      Ryd( 4S)     0.00002
   305    C   21  px     Val( 2p)     1.14086
   306    C   21  px     Ryd( 3p)     0.00310
   307    C   21  py     Val( 2p)     1.15417
   308    C   21  py     Ryd( 3p)     0.00352
   309    C   21  pz     Val( 2p)     1.12771
   310    C   21  pz     Ryd( 3p)     0.00317
   311    C   21  dxy    Ryd( 3d)     0.00094
   312    C   21  dxz    Ryd( 3d)     0.00023
   313    C   21  dyz    Ryd( 3d)     0.00096
   314    C   21  dx2y2  Ryd( 3d)     0.00041
   315    C   21  dz2    Ryd( 3d)     0.00075

   316    C   22  S      Cor( 1S)     1.99924
   317    C   22  S      Val( 2S)     1.02121
   318    C   22  S      Ryd( 3S)     0.00101
   319    C   22  S      Ryd( 4S)     0.00002
   320    C   22  px     Val( 2p)     1.15500
   321    C   22  px     Ryd( 3p)     0.00338
   322    C   22  py     Val( 2p)     1.14458
   323    C   22  py     Ryd( 3p)     0.00375
   324    C   22  pz     Val( 2p)     1.12012
   325    C   22  pz     Ryd( 3p)     0.00314
   326    C   22  dxy    Ryd( 3d)     0.00090
   327    C   22  dxz    Ryd( 3d)     0.00022
   328    C   22  dyz    Ryd( 3d)     0.00098
   329    C   22  dx2y2  Ryd( 3d)     0.00045
   330    C   22  dz2    Ryd( 3d)     0.00074

   331    C   23  S      Cor( 1S)     1.99908
   332    C   23  S      Val( 2S)     0.93698
   333    C   23  S      Ryd( 3S)     0.00076
   334    C   23  S      Ryd( 4S)     0.00005
   335    C   23  px     Val( 2p)     1.05728
   336    C   23  px     Ryd( 3p)     0.00444
   337    C   23  py     Val( 2p)     1.19129
   338    C   23  py     Ryd( 3p)     0.00426
   339    C   23  pz     Val( 2p)     1.14143
   340    C   23  pz     Ryd( 3p)     0.00641
   341    C   23  dxy    Ryd( 3d)     0.00061
   342    C   23  dxz    Ryd( 3d)     0.00053
   343    C   23  dyz    Ryd( 3d)     0.00036
   344    C   23  dx2y2  Ryd( 3d)     0.00069
   345    C   23  dz2    Ryd( 3d)     0.00037

   346    C   24  S      Cor( 1S)     1.99906
   347    C   24  S      Val( 2S)     0.94737
   348    C   24  S      Ryd( 3S)     0.00073
   349    C   24  S      Ryd( 4S)     0.00003
   350    C   24  px     Val( 2p)     1.17635
   351    C   24  px     Ryd( 3p)     0.00428
   352    C   24  py     Val( 2p)     1.06450
   353    C   24  py     Ryd( 3p)     0.00494
   354    C   24  pz     Val( 2p)     1.13569
   355    C   24  pz     Ryd( 3p)     0.00725
   356    C   24  dxy    Ryd( 3d)     0.00054
   357    C   24  dxz    Ryd( 3d)     0.00048
   358    C   24  dyz    Ryd( 3d)     0.00049
   359    C   24  dx2y2  Ryd( 3d)     0.00073
   360    C   24  dz2    Ryd( 3d)     0.00038

   361    H   25  S      Val( 1S)     0.56839
   362    H   25  S      Ryd( 2S)     0.00197
   363    H   25  px     Ryd( 2p)     0.00021
   364    H   25  py     Ryd( 2p)     0.00058
   365    H   25  pz     Ryd( 2p)     0.00043

   366    H   26  S      Val( 1S)     0.56781
   367    H   26  S      Ryd( 2S)     0.00186
   368    H   26  px     Ryd( 2p)     0.00049
   369    H   26  py     Ryd( 2p)     0.00026
   370    H   26  pz     Ryd( 2p)     0.00047

   371    H   27  S      Val( 1S)     0.76750
   372    H   27  S      Ryd( 2S)     0.00120
   373    H   27  px     Ryd( 2p)     0.00006
   374    H   27  py     Ryd( 2p)     0.00039
   375    H   27  pz     Ryd( 2p)     0.00022

   376    H   28  S      Val( 1S)     0.76592
   377    H   28  S      Ryd( 2S)     0.00097
   378    H   28  px     Ryd( 2p)     0.00032
   379    H   28  py     Ryd( 2p)     0.00013
   380    H   28  pz     Ryd( 2p)     0.00021

   381    H   29  S      Val( 1S)     0.75488
   382    H   29  S      Ryd( 2S)     0.00156
   383    H   29  px     Ryd( 2p)     0.00009
   384    H   29  py     Ryd( 2p)     0.00016
   385    H   29  pz     Ryd( 2p)     0.00030

   386    H   30  S      Val( 1S)     0.75440
   387    H   30  S      Ryd( 2S)     0.00171
   388    H   30  px     Ryd( 2p)     0.00029
   389    H   30  py     Ryd( 2p)     0.00017
   390    H   30  pz     Ryd( 2p)     0.00008

   391    H   31  S      Val( 1S)     0.75269
   392    H   31  S      Ryd( 2S)     0.00227
   393    H   31  px     Ryd( 2p)     0.00010
   394    H   31  py     Ryd( 2p)     0.00017
   395    H   31  pz     Ryd( 2p)     0.00028

   396    H   32  S      Val( 1S)     0.75510
   397    H   32  S      Ryd( 2S)     0.00211
   398    H   32  px     Ryd( 2p)     0.00011
   399    H   32  py     Ryd( 2p)     0.00021
   400    H   32  pz     Ryd( 2p)     0.00024

   401    H   33  S      Val( 1S)     0.75582
   402    H   33  S      Ryd( 2S)     0.00094
   403    H   33  px     Ryd( 2p)     0.00009
   404    H   33  py     Ryd( 2p)     0.00024
   405    H   33  pz     Ryd( 2p)     0.00028

   406    H   34  S      Val( 1S)     0.75766
   407    H   34  S      Ryd( 2S)     0.00097
   408    H   34  px     Ryd( 2p)     0.00023
   409    H   34  py     Ryd( 2p)     0.00009
   410    H   34  pz     Ryd( 2p)     0.00027

   411    H   35  S      Val( 1S)     0.58429
   412    H   35  S      Ryd( 2S)     0.00114
   413    H   35  px     Ryd( 2p)     0.00031
   414    H   35  py     Ryd( 2p)     0.00059
   415    H   35  pz     Ryd( 2p)     0.00037

   416    H   36  S      Val( 1S)     0.58436
   417    H   36  S      Ryd( 2S)     0.00114
   418    H   36  px     Ryd( 2p)     0.00039
   419    H   36  py     Ryd( 2p)     0.00031
   420    H   36  pz     Ryd( 2p)     0.00057

   421    H   37  S      Val( 1S)     0.75693
   422    H   37  S      Ryd( 2S)     0.00098
   423    H   37  px     Ryd( 2p)     0.00008
   424    H   37  py     Ryd( 2p)     0.00024
   425    H   37  pz     Ryd( 2p)     0.00028

   426    H   38  S      Val( 1S)     0.75915
   427    H   38  S      Ryd( 2S)     0.00095
   428    H   38  px     Ryd( 2p)     0.00023
   429    H   38  py     Ryd( 2p)     0.00010
   430    H   38  pz     Ryd( 2p)     0.00027

   431    H   39  S      Val( 1S)     0.75640
   432    H   39  S      Ryd( 2S)     0.00159
   433    H   39  px     Ryd( 2p)     0.00010
   434    H   39  py     Ryd( 2p)     0.00015
   435    H   39  pz     Ryd( 2p)     0.00030

   436    H   40  S      Val( 1S)     0.75586
   437    H   40  S      Ryd( 2S)     0.00158
   438    H   40  px     Ryd( 2p)     0.00026
   439    H   40  py     Ryd( 2p)     0.00020
   440    H   40  pz     Ryd( 2p)     0.00008

   441    H   41  S      Val( 1S)     0.74102
   442    H   41  S      Ryd( 2S)     0.00146
   443    H   41  px     Ryd( 2p)     0.00009
   444    H   41  py     Ryd( 2p)     0.00021
   445    H   41  pz     Ryd( 2p)     0.00027

   446    H   42  S      Val( 1S)     0.75823
   447    H   42  S      Ryd( 2S)     0.00134
   448    H   42  px     Ryd( 2p)     0.00024
   449    H   42  py     Ryd( 2p)     0.00020
   450    H   42  pz     Ryd( 2p)     0.00009

   451    H   43  S      Val( 1S)     0.75871
   452    H   43  S      Ryd( 2S)     0.00134
   453    H   43  px     Ryd( 2p)     0.00027
   454    H   43  py     Ryd( 2p)     0.00018
   455    H   43  pz     Ryd( 2p)     0.00010

   456    H   44  S      Val( 1S)     0.74125
   457    H   44  S      Ryd( 2S)     0.00148
   458    H   44  px     Ryd( 2p)     0.00009
   459    H   44  py     Ryd( 2p)     0.00017
   460    H   44  pz     Ryd( 2p)     0.00031

   461    H   45  S      Val( 1S)     0.75850
   462    H   45  S      Ryd( 2S)     0.00132
   463    H   45  px     Ryd( 2p)     0.00009
   464    H   45  py     Ryd( 2p)     0.00018
   465    H   45  pz     Ryd( 2p)     0.00027

   466    H   46  S      Val( 1S)     0.75623
   467    H   46  S      Ryd( 2S)     0.00151
   468    H   46  px     Ryd( 2p)     0.00027
   469    H   46  py     Ryd( 2p)     0.00018
   470    H   46  pz     Ryd( 2p)     0.00008

   471    H   47  S      Val( 1S)     0.75505
   472    H   47  S      Ryd( 2S)     0.00156
   473    H   47  px     Ryd( 2p)     0.00009
   474    H   47  py     Ryd( 2p)     0.00019
   475    H   47  pz     Ryd( 2p)     0.00026

   476    H   48  S      Val( 1S)     0.75424
   477    H   48  S      Ryd( 2S)     0.00166
   478    H   48  px     Ryd( 2p)     0.00029
   479    H   48  py     Ryd( 2p)     0.00016
   480    H   48  pz     Ryd( 2p)     0.00009

   481    H   49  S      Val( 1S)     0.77106
   482    H   49  S      Ryd( 2S)     0.00095
   483    H   49  px     Ryd( 2p)     0.00006
   484    H   49  py     Ryd( 2p)     0.00038
   485    H   49  pz     Ryd( 2p)     0.00024

   486    H   50  S      Val( 1S)     0.76790
   487    H   50  S      Ryd( 2S)     0.00117
   488    H   50  px     Ryd( 2p)     0.00033
   489    H   50  py     Ryd( 2p)     0.00013
   490    H   50  pz     Ryd( 2p)     0.00022

 WARNING:  1 low occupancy (<1.9990e) core orbital  found on  C    2
           1 low occupancy (<1.9990e) core orbital  found on  C   13


 Summary of Natural Population Analysis:                  
                                                          
                                       Natural Population 
                Natural  -----------------------------------------------
    Atom  No    Charge         Core      Valence    Rydberg      Total
 -----------------------------------------------------------------------
      N    1   -0.68419      1.99947     5.67478    0.00995     7.68419
      C    2    0.17988      1.99896     3.80282    0.01835     5.82012
      C    3   -0.34505      1.99906     4.32606    0.01993     6.34505
      C    4   -0.32832      1.99907     4.31128    0.01797     6.32832
      C    5    0.06955      1.99904     3.91190    0.01952     5.93045
      C    6   -0.07240      1.99907     4.05747    0.01586     6.07240
      C    7   -0.45432      1.99923     4.44051    0.01458     6.45432
      C    8   -0.45887      1.99924     4.44507    0.01457     6.45887
      C    9   -0.05817      1.99908     4.04353    0.01557     6.05817
      C   10   -0.06181      1.99902     4.04427    0.01852     6.06181
      C   11   -0.22900      1.99905     4.21746    0.01248     6.22900
      C   12   -0.29135      1.99904     4.27944    0.01287     6.29135
      C   13    0.16190      1.99898     3.82196    0.01717     5.83810
      N   14   -0.85988      1.99952     5.84848    0.01188     7.85988
      C   15   -0.28934      1.99903     4.27728    0.01302     6.28934
      C   16   -0.22541      1.99906     4.21396    0.01239     6.22541
      C   17   -0.46886      1.99926     4.45562    0.01399     6.46886
      C   18   -0.25059      1.99920     4.23633    0.01505     6.25059
      C   19   -0.46670      1.99928     4.45362    0.01380     6.46670
      C   20   -0.25469      1.99920     4.24043    0.01506     6.25469
      C   21   -0.45647      1.99924     4.44314    0.01409     6.45647
      C   22   -0.45472      1.99924     4.44091    0.01458     6.45472
      C   23   -0.34454      1.99908     4.32698    0.01848     6.34454
      C   24   -0.34282      1.99906     4.32392    0.01985     6.34282
      H   25    0.42842      0.00000     0.56839    0.00319     0.57158
      H   26    0.42911      0.00000     0.56781    0.00309     0.57089
      H   27    0.23063      0.00000     0.76750    0.00186     0.76937
      H   28    0.23244      0.00000     0.76592    0.00164     0.76756
      H   29    0.24302      0.00000     0.75488    0.00210     0.75698
      H   30    0.24335      0.00000     0.75440    0.00225     0.75665
      H   31    0.24449      0.00000     0.75269    0.00282     0.75551
      H   32    0.24223      0.00000     0.75510    0.00266     0.75777
      H   33    0.24263      0.00000     0.75582    0.00155     0.75737
      H   34    0.24078      0.00000     0.75766    0.00156     0.75922
      H   35    0.41331      0.00000     0.58429    0.00240     0.58669
      H   36    0.41323      0.00000     0.58436    0.00241     0.58677
      H   37    0.24150      0.00000     0.75693    0.00157     0.75850
      H   38    0.23929      0.00000     0.75915    0.00156     0.76071
      H   39    0.24146      0.00000     0.75640    0.00214     0.75854
      H   40    0.24201      0.00000     0.75586    0.00213     0.75799
      H   41    0.25695      0.00000     0.74102    0.00203     0.74305
      H   42    0.23989      0.00000     0.75823    0.00188     0.76011
      H   43    0.23941      0.00000     0.75871    0.00189     0.76059
      H   44    0.25670      0.00000     0.74125    0.00205     0.74330
      H   45    0.23963      0.00000     0.75850    0.00187     0.76037
      H   46    0.24172      0.00000     0.75623    0.00205     0.75828
      H   47    0.24285      0.00000     0.75505    0.00211     0.75715
      H   48    0.24356      0.00000     0.75424    0.00221     0.75644
      H   49    0.22732      0.00000     0.77106    0.00162     0.77268
      H   50    0.23026      0.00000     0.76790    0.00184     0.76974
 =======================================================================
   * Total *   -0.00000     47.97947   123.59654    0.42399   172.00000

                                 Natural Population      
 --------------------------------------------------------
   Core                      47.97947 ( 99.9572% of  48)
   Valence                  123.59654 ( 99.6746% of 124)
   Natural Minimal Basis    171.57601 ( 99.7535% of 172)
   Natural Rydberg Basis      0.42399 (  0.2465% of 172)
 --------------------------------------------------------

    Atom  No          Natural Electron Configuration
 ----------------------------------------------------------------------------
      N    1      [core]2S( 1.38)2p( 4.30)3p( 0.01)
      C    2      [core]2S( 0.86)2p( 2.95)3p( 0.01)3d( 0.01)
      C    3      [core]2S( 0.95)2p( 3.38)3p( 0.02)
      C    4      [core]2S( 0.94)2p( 3.37)3p( 0.01)
      C    5      [core]2S( 0.88)2p( 3.04)3p( 0.01)
      C    6      [core]2S( 0.90)2p( 3.16)3p( 0.01)
      C    7      [core]2S( 1.02)2p( 3.42)3p( 0.01)
      C    8      [core]2S( 1.01)2p( 3.43)3p( 0.01)
      C    9      [core]2S( 0.89)2p( 3.15)3p( 0.01)
      C   10      [core]2S( 0.86)2p( 3.18)3p( 0.01)
      C   11      [core]2S( 0.94)2p( 3.27)3p( 0.01)
      C   12      [core]2S( 0.95)2p( 3.33)3p( 0.01)
      C   13      [core]2S( 0.84)2p( 2.98)3p( 0.01)
      N   14      [core]2S( 1.37)2p( 4.48)3p( 0.01)
      C   15      [core]2S( 0.95)2p( 3.33)3p( 0.01)
      C   16      [core]2S( 0.94)2p( 3.27)3p( 0.01)
      C   17      [core]2S( 1.02)2p( 3.44)3p( 0.01)
      C   18      [core]2S( 0.96)2p( 3.27)3p( 0.01)
      C   19      [core]2S( 1.03)2p( 3.43)3p( 0.01)
      C   20      [core]2S( 0.96)2p( 3.28)3p( 0.01)
      C   21      [core]2S( 1.02)2p( 3.42)3p( 0.01)
      C   22      [core]2S( 1.02)2p( 3.42)3p( 0.01)
      C   23      [core]2S( 0.94)2p( 3.39)3p( 0.02)
      C   24      [core]2S( 0.95)2p( 3.38)3p( 0.02)
      H   25            1S( 0.57)
      H   26            1S( 0.57)
      H   27            1S( 0.77)
      H   28            1S( 0.77)
      H   29            1S( 0.75)
      H   30            1S( 0.75)
      H   31            1S( 0.75)
      H   32            1S( 0.76)
      H   33            1S( 0.76)
      H   34            1S( 0.76)
      H   35            1S( 0.58)
      H   36            1S( 0.58)
      H   37            1S( 0.76)
      H   38            1S( 0.76)
      H   39            1S( 0.76)
      H   40            1S( 0.76)
      H   41            1S( 0.74)
      H   42            1S( 0.76)
      H   43            1S( 0.76)
      H   44            1S( 0.74)
      H   45            1S( 0.76)
      H   46            1S( 0.76)
      H   47            1S( 0.76)
      H   48            1S( 0.75)
      H   49            1S( 0.77)
      H   50            1S( 0.77)


 NBO analysis skipped by request.
 1\1\GINC-DRG2-W014\SP\RB3LYP TD-FC\6-31G(d,p)\C22H26N2\QDUEZ\18-Jul-20
 24\0\\# TD(NStates=10, Root=1) B3LYP/6-31G** SCRF=(Solvent=water) volu
 me pop=NPA density=current Geom=AllCheck Guess=Read\\LALHUWOVOZGIAW-WG
 KKAQPQSA-N_conf_3\\0,1\N,0,-5.8649849286,0.9171604532,2.9526986162\C,0
 ,-4.7482200902,0.7736365195,2.1230211553\C,0,-3.4562072305,0.652882468
 3,2.6568760095\C,0,-2.3541800546,0.4419798997,1.8267520299\C,0,-2.4789
 634777,0.3427672649,0.4331233505\C,0,-1.2902565268,0.1116421184,-0.509
 1848229\C,0,-1.4838082778,-1.2079832264,-1.307896265\C,0,0.054714854,0
 .0081600234,0.2521663505\C,0,1.2663124,-0.2201251775,-0.6981310594\C,0
 ,2.5651076547,-0.2712145675,0.1177564585\C,0,3.4159700426,-1.385970261
 8,0.141778649\C,0,4.591936858,-1.4054739517,0.8931699593\C,0,4.9741704
 267,-0.2957854329,1.66227528\N,0,6.1835692636,-0.2819151512,2.36439726
 49\C,0,4.1304833026,0.8295569132,1.6495138676\C,0,2.9613553293,0.83239
 96587,0.8950912404\C,0,1.0079983323,-1.524695622,-1.490091391\C,0,-0.3
 108840404,-1.4319872396,-2.2801578651\C,0,-0.2379867079,-0.2624253343,
 -3.2794846919\C,0,-0.0033958465,1.0469795537,-2.5040033679\C,0,1.31763
 9745,0.9513063713,-1.7191313875\C,0,-1.1696475911,1.2839957079,-1.5249
 487685\C,0,-3.7803453332,0.4678980612,-0.0866520044\C,0,-4.8895087643,
 0.6777561296,0.7268177093\H,0,-5.6658692129,1.3403120116,3.8507299768\
 H,0,-6.6575573217,1.3683587848,2.5129690221\H,0,-3.3132422317,0.723929
 0591,3.7324848428\H,0,-1.3799189888,0.3578443151,2.2952007131\H,0,-1.5
 610247427,-2.0480808754,-0.6053157584\H,0,-2.4265129285,-1.1749016093,
 -1.8668591234\H,0,0.0153766312,-0.8186319222,0.9728468685\H,0,0.216909
 6868,0.924481747,0.8311455516\H,0,3.1697244964,-2.2726049332,-0.431775
 8344\H,0,5.2218717855,-2.2917384062,0.8829348178\H,0,6.1984667897,0.34
 47302829,3.1595101511\H,0,6.5253108367,-1.1986295827,2.6251524514\H,0,
 4.3976485374,1.7057168348,2.2354584634\H,0,2.3426028453,1.725154281,0.
 9202753541\H,0,0.9618128477,-2.3781022965,-0.8015152204\H,0,1.83914153
 87,-1.7144498176,-2.1812386065\H,0,-0.4683940079,-2.372614463,-2.82321
 49788\H,0,0.5761175421,-0.4278342002,-3.9970925696\H,0,-1.1689221966,-
 0.2004074468,-3.8580671252\H,0,0.0537340894,1.8887302772,-3.2061524847
 \H,0,1.5057240918,1.8965189114,-1.196260805\H,0,2.1595389394,0.7961986
 65,-2.4063584913\H,0,-1.0196299157,2.2233480851,-0.9766687619\H,0,-2.1
 056198674,1.3914751411,-2.085682039\H,0,-3.9409979377,0.4033616032,-1.
 1592342074\H,0,-5.8771606455,0.7683346741,0.2809714764\\Version=ES64L-
 G16RevA.03\State=1-A\HF=-963.5831562\RMSD=3.426e-09\Dipole=-0.8282652,
 0.4767276,1.3766204\Quadrupole=11.4212136,-11.6768779,0.2556643,-13.47
 39736,-1.9792115,5.893758\PG=C01 [X(C22H26N2)]\\@


 Not by the face shall a man be known, but by the mask.
                               -- Karen Blixen
 Job cpu time:       0 days  2 hours 39 minutes 23.8 seconds.
 Elapsed time:       0 days  0 hours 53 minutes 15.6 seconds.
 File lengths (MBytes):  RWF=   1819 Int=      0 D2E=      0 Chk=    116 Scr=      1
 Normal termination of Gaussian 16 at Thu Jul 18 12:39:29 2024.
