 Entering Gaussian System, Link 0=g16
 Initial command:
 /opt/sw/arch/manual/gaussian/G16_A03/g16/l1.exe "/scratch/1032104.jesse.materianova.be/Gau-32162.inp" -scrdir="/scratch/1032104.jesse.materianova.be/"
 Entering Link 1 = /opt/sw/arch/manual/gaussian/G16_A03/g16/l1.exe PID=     32163.
  
 Copyright (c) 1988,1990,1992,1993,1995,1998,2003,2009,2016,
            Gaussian, Inc.  All Rights Reserved.
  
 This is part of the Gaussian(R) 16 program.  It is based on
 the Gaussian(R) 09 system (copyright 2009, Gaussian, Inc.),
 the Gaussian(R) 03 system (copyright 2003, Gaussian, Inc.),
 the Gaussian(R) 98 system (copyright 1998, Gaussian, Inc.),
 the Gaussian(R) 94 system (copyright 1995, Gaussian, Inc.),
 the Gaussian 92(TM) system (copyright 1992, Gaussian, Inc.),
 the Gaussian 90(TM) system (copyright 1990, Gaussian, Inc.),
 the Gaussian 88(TM) system (copyright 1988, Gaussian, Inc.),
 the Gaussian 86(TM) system (copyright 1986, Carnegie Mellon
 University), and the Gaussian 82(TM) system (copyright 1983,
 Carnegie Mellon University). Gaussian is a federally registered
 trademark of Gaussian, Inc.
  
 This software contains proprietary and confidential information,
 including trade secrets, belonging to Gaussian, Inc.
  
 This software is provided under written license and may be
 used, copied, transmitted, or stored only in accord with that
 written license.
  
 The following legend is applicable only to US Government
 contracts under FAR:
  
                    RESTRICTED RIGHTS LEGEND
  
 Use, reproduction and disclosure by the US Government is
 subject to restrictions as set forth in subparagraphs (a)
 and (c) of the Commercial Computer Software - Restricted
 Rights clause in FAR 52.227-19.
  
 Gaussian, Inc.
 340 Quinnipiac St., Bldg. 40, Wallingford CT 06492
  
  
 ---------------------------------------------------------------
 Warning -- This program may not be used in any manner that
 competes with the business of Gaussian, Inc. or will provide
 assistance to any competitor of Gaussian, Inc.  The licensee
 of this program is prohibited from giving any competitor of
 Gaussian, Inc. access to this program.  By using this program,
 the user acknowledges that Gaussian, Inc. is engaged in the
 business of creating and licensing software in the field of
 computational chemistry and represents and warrants to the
 licensee that it is not a competitor of Gaussian, Inc. and that
 it will not use this program in any manner prohibited above.
 ---------------------------------------------------------------
  

 Cite this work as:
 Gaussian 16, Revision A.03,
 M. J. Frisch, G. W. Trucks, H. B. Schlegel, G. E. Scuseria, 
 M. A. Robb, J. R. Cheeseman, G. Scalmani, V. Barone, 
 G. A. Petersson, H. Nakatsuji, X. Li, M. Caricato, A. V. Marenich, 
 J. Bloino, B. G. Janesko, R. Gomperts, B. Mennucci, H. P. Hratchian, 
 J. V. Ortiz, A. F. Izmaylov, J. L. Sonnenberg, D. Williams-Young, 
 F. Ding, F. Lipparini, F. Egidi, J. Goings, B. Peng, A. Petrone, 
 T. Henderson, D. Ranasinghe, V. G. Zakrzewski, J. Gao, N. Rega, 
 G. Zheng, W. Liang, M. Hada, M. Ehara, K. Toyota, R. Fukuda, 
 J. Hasegawa, M. Ishida, T. Nakajima, Y. Honda, O. Kitao, H. Nakai, 
 T. Vreven, K. Throssell, J. A. Montgomery, Jr., J. E. Peralta, 
 F. Ogliaro, M. J. Bearpark, J. J. Heyd, E. N. Brothers, K. N. Kudin, 
 V. N. Staroverov, T. A. Keith, R. Kobayashi, J. Normand, 
 K. Raghavachari, A. P. Rendell, J. C. Burant, S. S. Iyengar, 
 J. Tomasi, M. Cossi, J. M. Millam, M. Klene, C. Adamo, R. Cammi, 
 J. W. Ochterski, R. L. Martin, K. Morokuma, O. Farkas, 
 J. B. Foresman, and D. J. Fox, Gaussian, Inc., Wallingford CT, 2016.
 
 ******************************************
 Gaussian 16:  EM64L-G16RevA.03 25-Dec-2016
                11-Jul-2024 
 ******************************************
 %nprocshared=3
 Will use up to    3 processors via shared memory.
 %mem=6GB
 %Chk=UQUPIHHYKUEXQD-UHFFFAOYSA-N_conf_0_0.chk
 -------------------------------------------------------
 # opt=CalcFc B3LYP/6-31G** SCRF=(Solvent=water) scf=xqc
 -------------------------------------------------------
 1/10=4,18=20,19=15,26=3,38=1/1,3;
 2/9=110,12=2,17=6,18=5,40=1/2;
 3/5=1,6=6,7=101,11=2,25=1,30=1,70=2201,71=2,72=1,74=-5,140=1/1,2,3;
 4//1;
 5/5=2,8=3,13=1,38=5,53=1/2,8;
 8/6=4,10=90,11=11/1;
 11/6=1,8=1,9=11,15=111,16=1/1,2,10;
 10/6=1,13=1/2;
 6/7=2,8=2,9=2,10=2,28=1/1;
 7/10=1,18=20,25=1/1,2,3,16;
 1/10=4,18=20,19=15,26=3/3(2);
 2/9=110/2;
 99//99;
 2/9=110/2;
 3/5=1,6=6,7=101,11=2,25=1,30=1,70=2205,71=1,72=1,74=-5/1,2,3;
 4/5=5,16=3,69=1/1;
 5/5=2,8=3,13=1,38=5,53=1/2,8;
 7//1,2,3,16;
 1/18=20,19=15,26=3/3(-5);
 2/9=110/2;
 6/7=2,8=2,9=2,10=2,19=2,28=1/1;
 99/9=1/99;
 ----------------------------------
 UQUPIHHYKUEXQD-UHFFFAOYSA-N_conf_0
 ----------------------------------
 Symbolic Z-matrix:
 Charge =  0 Multiplicity = 1
 C                    -2.04043   1.47137  -0.4785 
 N                    -1.87705   0.11506  -0.98651 
 C                    -1.54598  -0.84661   0.06699 
 C                    -0.15126  -0.67699   0.68265 
 C                     0.97107  -0.80171  -0.3538 
 N                     2.31136  -0.78951   0.24435 
 C                     2.72271   0.54148   0.66583 
 H                    -2.36189   2.12553  -1.29529 
 H                    -1.09952   1.87699  -0.09561 
 H                    -2.80165   1.51908   0.30682 
 H                    -2.75115  -0.17261  -1.42807 
 H                    -2.30345  -0.81123   0.85967 
 H                    -1.60835  -1.8514   -0.36848 
 H                    -0.02386  -1.45365   1.44793 
 H                    -0.08963   0.28324   1.20611 
 H                     0.89336  -0.0211   -1.11956 
 H                     0.86004  -1.75805  -0.87859 
 H                     2.34137  -1.42637   1.03892 
 H                     2.09802   0.92814   1.47628 
 H                     3.75269   0.50065   1.03409 
 H                     2.70358   1.24768  -0.17049 
 

 GradGradGradGradGradGradGradGradGradGradGradGradGradGradGradGradGradGrad
 Berny optimization.
 Initialization pass.
                           ----------------------------
                           !    Initial Parameters    !
                           ! (Angstroms and Degrees)  !
 --------------------------                            --------------------------
 ! Name  Definition              Value          Derivative Info.                !
 --------------------------------------------------------------------------------
 ! R1    R(1,2)                  1.4575         calculate D2E/DX2 analytically  !
 ! R2    R(1,8)                  1.0947         calculate D2E/DX2 analytically  !
 ! R3    R(1,9)                  1.0938         calculate D2E/DX2 analytically  !
 ! R4    R(1,10)                 1.0947         calculate D2E/DX2 analytically  !
 ! R5    R(2,3)                  1.4643         calculate D2E/DX2 analytically  !
 ! R6    R(2,11)                 1.0207         calculate D2E/DX2 analytically  !
 ! R7    R(3,4)                  1.534          calculate D2E/DX2 analytically  !
 ! R8    R(3,12)                 1.097          calculate D2E/DX2 analytically  !
 ! R9    R(3,13)                 1.0969         calculate D2E/DX2 analytically  !
 ! R10   R(4,5)                  1.5328         calculate D2E/DX2 analytically  !
 ! R11   R(4,14)                 1.0978         calculate D2E/DX2 analytically  !
 ! R12   R(4,15)                 1.0954         calculate D2E/DX2 analytically  !
 ! R13   R(5,6)                  1.4678         calculate D2E/DX2 analytically  !
 ! R14   R(5,16)                 1.0963         calculate D2E/DX2 analytically  !
 ! R15   R(5,17)                 1.0965         calculate D2E/DX2 analytically  !
 ! R16   R(6,7)                  1.4555         calculate D2E/DX2 analytically  !
 ! R17   R(6,18)                 1.0187         calculate D2E/DX2 analytically  !
 ! R18   R(7,19)                 1.0939         calculate D2E/DX2 analytically  !
 ! R19   R(7,20)                 1.0946         calculate D2E/DX2 analytically  !
 ! R20   R(7,21)                 1.0948         calculate D2E/DX2 analytically  !
 ! A1    A(2,1,8)              109.2036         calculate D2E/DX2 analytically  !
 ! A2    A(2,1,9)              111.7565         calculate D2E/DX2 analytically  !
 ! A3    A(2,1,10)             111.6252         calculate D2E/DX2 analytically  !
 ! A4    A(8,1,9)              106.9888         calculate D2E/DX2 analytically  !
 ! A5    A(8,1,10)             107.7584         calculate D2E/DX2 analytically  !
 ! A6    A(9,1,10)             109.3213         calculate D2E/DX2 analytically  !
 ! A7    A(1,2,3)              112.6878         calculate D2E/DX2 analytically  !
 ! A8    A(1,2,11)             108.4852         calculate D2E/DX2 analytically  !
 ! A9    A(3,2,11)             108.649          calculate D2E/DX2 analytically  !
 ! A10   A(2,3,4)              114.9417         calculate D2E/DX2 analytically  !
 ! A11   A(2,3,12)             110.0337         calculate D2E/DX2 analytically  !
 ! A12   A(2,3,13)             107.6445         calculate D2E/DX2 analytically  !
 ! A13   A(4,3,12)             109.5264         calculate D2E/DX2 analytically  !
 ! A14   A(4,3,13)             108.2002         calculate D2E/DX2 analytically  !
 ! A15   A(12,3,13)            106.0912         calculate D2E/DX2 analytically  !
 ! A16   A(3,4,5)              112.6663         calculate D2E/DX2 analytically  !
 ! A17   A(3,4,14)             107.8834         calculate D2E/DX2 analytically  !
 ! A18   A(3,4,15)             109.8704         calculate D2E/DX2 analytically  !
 ! A19   A(5,4,14)             109.199          calculate D2E/DX2 analytically  !
 ! A20   A(5,4,15)             110.6871         calculate D2E/DX2 analytically  !
 ! A21   A(14,4,15)            106.2916         calculate D2E/DX2 analytically  !
 ! A22   A(4,5,6)              113.1035         calculate D2E/DX2 analytically  !
 ! A23   A(4,5,16)             111.2535         calculate D2E/DX2 analytically  !
 ! A24   A(4,5,17)             108.6903         calculate D2E/DX2 analytically  !
 ! A25   A(6,5,16)             110.0891         calculate D2E/DX2 analytically  !
 ! A26   A(6,5,17)             107.1426         calculate D2E/DX2 analytically  !
 ! A27   A(16,5,17)            106.2331         calculate D2E/DX2 analytically  !
 ! A28   A(5,6,7)              112.5624         calculate D2E/DX2 analytically  !
 ! A29   A(5,6,18)             109.8501         calculate D2E/DX2 analytically  !
 ! A30   A(7,6,18)             109.7233         calculate D2E/DX2 analytically  !
 ! A31   A(6,7,19)             112.1106         calculate D2E/DX2 analytically  !
 ! A32   A(6,7,20)             109.2234         calculate D2E/DX2 analytically  !
 ! A33   A(6,7,21)             111.3296         calculate D2E/DX2 analytically  !
 ! A34   A(19,7,20)            107.5354         calculate D2E/DX2 analytically  !
 ! A35   A(19,7,21)            109.147          calculate D2E/DX2 analytically  !
 ! A36   A(20,7,21)            107.3086         calculate D2E/DX2 analytically  !
 ! D1    D(8,1,2,3)           -175.6239         calculate D2E/DX2 analytically  !
 ! D2    D(8,1,2,11)           -55.279          calculate D2E/DX2 analytically  !
 ! D3    D(9,1,2,3)             66.203          calculate D2E/DX2 analytically  !
 ! D4    D(9,1,2,11)          -173.4521         calculate D2E/DX2 analytically  !
 ! D5    D(10,1,2,3)           -56.5779         calculate D2E/DX2 analytically  !
 ! D6    D(10,1,2,11)           63.767          calculate D2E/DX2 analytically  !
 ! D7    D(1,2,3,4)            -68.7268         calculate D2E/DX2 analytically  !
 ! D8    D(1,2,3,12)            55.4634         calculate D2E/DX2 analytically  !
 ! D9    D(1,2,3,13)           170.6497         calculate D2E/DX2 analytically  !
 ! D10   D(11,2,3,4)           171.0225         calculate D2E/DX2 analytically  !
 ! D11   D(11,2,3,12)          -64.7873         calculate D2E/DX2 analytically  !
 ! D12   D(11,2,3,13)           50.3989         calculate D2E/DX2 analytically  !
 ! D13   D(2,3,4,5)            -59.0742         calculate D2E/DX2 analytically  !
 ! D14   D(2,3,4,14)          -179.6863         calculate D2E/DX2 analytically  !
 ! D15   D(2,3,4,15)            64.8433         calculate D2E/DX2 analytically  !
 ! D16   D(12,3,4,5)           176.4684         calculate D2E/DX2 analytically  !
 ! D17   D(12,3,4,14)           55.8564         calculate D2E/DX2 analytically  !
 ! D18   D(12,3,4,15)          -59.6141         calculate D2E/DX2 analytically  !
 ! D19   D(13,3,4,5)            61.2438         calculate D2E/DX2 analytically  !
 ! D20   D(13,3,4,14)          -59.3682         calculate D2E/DX2 analytically  !
 ! D21   D(13,3,4,15)         -174.8387         calculate D2E/DX2 analytically  !
 ! D22   D(3,4,5,6)           -173.6379         calculate D2E/DX2 analytically  !
 ! D23   D(3,4,5,16)            61.8478         calculate D2E/DX2 analytically  !
 ! D24   D(3,4,5,17)           -54.7819         calculate D2E/DX2 analytically  !
 ! D25   D(14,4,5,6)           -53.783          calculate D2E/DX2 analytically  !
 ! D26   D(14,4,5,16)         -178.2973         calculate D2E/DX2 analytically  !
 ! D27   D(14,4,5,17)           65.073          calculate D2E/DX2 analytically  !
 ! D28   D(15,4,5,6)            62.8972         calculate D2E/DX2 analytically  !
 ! D29   D(15,4,5,16)          -61.6171         calculate D2E/DX2 analytically  !
 ! D30   D(15,4,5,17)         -178.2468         calculate D2E/DX2 analytically  !
 ! D31   D(4,5,6,7)            -75.4189         calculate D2E/DX2 analytically  !
 ! D32   D(4,5,6,18)            47.1648         calculate D2E/DX2 analytically  !
 ! D33   D(16,5,6,7)            49.7269         calculate D2E/DX2 analytically  !
 ! D34   D(16,5,6,18)          172.3106         calculate D2E/DX2 analytically  !
 ! D35   D(17,5,6,7)           164.8335         calculate D2E/DX2 analytically  !
 ! D36   D(17,5,6,18)          -72.5828         calculate D2E/DX2 analytically  !
 ! D37   D(5,6,7,19)            65.0394         calculate D2E/DX2 analytically  !
 ! D38   D(5,6,7,20)          -175.8772         calculate D2E/DX2 analytically  !
 ! D39   D(5,6,7,21)           -57.556          calculate D2E/DX2 analytically  !
 ! D40   D(18,6,7,19)          -57.6155         calculate D2E/DX2 analytically  !
 ! D41   D(18,6,7,20)           61.4678         calculate D2E/DX2 analytically  !
 ! D42   D(18,6,7,21)          179.7891         calculate D2E/DX2 analytically  !
 --------------------------------------------------------------------------------
 Trust Radius=3.00D-01 FncErr=1.00D-07 GrdErr=1.00D-06 EigMax=2.50D+02 EigMin=1.00D-04
 Number of steps in this run=    108 maximum allowed number of steps=    126.
 GradGradGradGradGradGradGradGradGradGradGradGradGradGradGradGradGradGrad

                          Input orientation:                          
 ---------------------------------------------------------------------
 Center     Atomic      Atomic             Coordinates (Angstroms)
 Number     Number       Type             X           Y           Z
 ---------------------------------------------------------------------
      1          6           0       -2.040429    1.471373   -0.478499
      2          7           0       -1.877049    0.115055   -0.986514
      3          6           0       -1.545980   -0.846615    0.066992
      4          6           0       -0.151260   -0.676993    0.682655
      5          6           0        0.971071   -0.801707   -0.353795
      6          7           0        2.311359   -0.789514    0.244347
      7          6           0        2.722712    0.541482    0.665834
      8          1           0       -2.361892    2.125532   -1.295288
      9          1           0       -1.099517    1.876992   -0.095607
     10          1           0       -2.801646    1.519084    0.306820
     11          1           0       -2.751147   -0.172610   -1.428074
     12          1           0       -2.303447   -0.811231    0.859666
     13          1           0       -1.608353   -1.851402   -0.368480
     14          1           0       -0.023863   -1.453646    1.447932
     15          1           0       -0.089626    0.283235    1.206114
     16          1           0        0.893361   -0.021096   -1.119564
     17          1           0        0.860045   -1.758045   -0.878590
     18          1           0        2.341373   -1.426366    1.038924
     19          1           0        2.098021    0.928139    1.476280
     20          1           0        3.752691    0.500649    1.034088
     21          1           0        2.703577    1.247684   -0.170493
 ---------------------------------------------------------------------
                    Distance matrix (angstroms):
                    1          2          3          4          5
     1  C    0.000000
     2  N    1.457521   0.000000
     3  C    2.432099   1.464340   0.000000
     4  C    3.087509   2.528203   1.533967   0.000000
     5  C    3.775125   3.058197   2.552376   1.532778   0.000000
     6  N    4.957033   4.458254   3.861837   2.503851   1.467752
     7  C    4.986151   4.906107   4.528483   3.121647   2.431470
     8  H    1.094718   2.091036   3.369744   4.080845   4.534730
     9  H    1.093822   2.121954   2.764742   2.833324   3.395500
    10  H    1.094739   2.121058   2.689004   3.462449   4.478379
    11  H    2.027188   1.020674   2.035173   3.386590   3.924888
    12  H    2.658974   2.109077   1.096969   2.163622   3.492141
    13  H    3.352555   2.078730   1.096870   2.146448   2.784871
    14  H    4.041461   3.438263   2.142971   1.097756   2.158967
    15  H    2.838172   2.833864   2.166824   1.095375   2.176119
    16  H    3.353438   2.776942   2.835451   2.183902   1.096264
    17  H    4.359124   3.318408   2.741129   2.151487   1.096503
    18  H    5.468057   4.926810   4.048738   2.627110   2.051242
    19  H    4.609017   4.746329   4.291223   2.874989   2.758905
    20  H    6.065515   5.993788   5.552145   4.092821   3.370425
    21  H    4.759253   4.788618   4.743545   3.547159   2.689829
                    6          7          8          9         10
     6  N    0.000000
     7  C    1.455476   0.000000
     8  H    5.719025   5.675245   0.000000
     9  H    4.342799   4.119807   1.759146   0.000000
    10  H    5.610379   5.621666   1.768590   1.785298   0.000000
    11  H    5.367172   5.904025   2.334654   2.950291   2.423682
    12  H    4.655699   5.208616   3.643051   3.096536   2.446264
    13  H    4.106983   5.055079   4.152445   3.772837   3.638702
    14  H    2.709788   3.483660   5.079582   3.825271   4.225558
    15  H    2.800092   2.875385   3.848930   2.292252   3.113054
    16  H    2.112212   2.617378   3.903275   2.936458   4.249682
    17  H    2.074935   3.338053   5.063268   4.203146   5.054973
    18  H    1.018741   2.038882   6.339181   4.902964   5.971791
    19  H    2.124501   1.093876   5.385737   3.687195   5.071843
    20  H    2.089414   1.094594   6.741985   5.168603   6.672741
    21  H    2.115680   1.094774   5.262580   3.855536   5.532537
                   11         12         13         14         15
    11  H    0.000000
    12  H    2.417028   0.000000
    13  H    2.290646   1.753128   0.000000
    14  H    4.165398   2.440340   2.442985   0.000000
    15  H    3.772325   2.493770   3.056560   1.754867   0.000000
    16  H    3.660679   3.842037   3.189470   3.079860   2.543159
    17  H    3.981990   3.731712   2.522284   2.507320   3.068337
    18  H    5.795838   4.688803   4.214472   2.400494   2.976650
    19  H    5.758590   4.772688   4.986602   3.189999   2.296670
    20  H    6.986805   6.199054   6.019979   4.272341   3.852306
    21  H    5.775185   5.510957   5.313781   4.165982   3.259937
                   16         17         18         19         20
    16  H    0.000000
    17  H    1.753902   0.000000
    18  H    2.954757   2.445650   0.000000
    19  H    3.015073   3.780686   2.407113   0.000000
    20  H    3.617487   4.138532   2.388562   1.765280   0.000000
    21  H    2.405706   3.596445   2.957097   1.783443   1.763440
                   21
    21  H    0.000000
 Stoichiometry    C5H14N2
 Framework group  C1[X(C5H14N2)]
 Deg. of freedom    57
 Full point group                 C1      NOp   1
 Largest Abelian subgroup         C1      NOp   1
 Largest concise Abelian subgroup C1      NOp   1
                         Standard orientation:                         
 ---------------------------------------------------------------------
 Center     Atomic      Atomic             Coordinates (Angstroms)
 Number     Number       Type             X           Y           Z
 ---------------------------------------------------------------------
      1          6           0       -2.333856    1.253799    0.084622
      2          7           0       -2.095426   -0.030133   -0.562709
      3          6           0       -1.418129   -0.987602    0.314109
      4          6           0        0.038136   -0.640489    0.648568
      5          6           0        0.921108   -0.531864   -0.599619
      6          7           0        2.342847   -0.347431   -0.285077
      7          6           0        2.645512    1.004927    0.159821
      8          1           0       -2.908947    1.895967   -0.590136
      9          1           0       -1.398720    1.777054    0.304106
     10          1           0       -2.910134    1.139074    1.008308
     11          1           0       -2.994753   -0.423414   -0.842558
     12          1           0       -1.987506   -1.114329    1.243136
     13          1           0       -1.431456   -1.963648   -0.186172
     14          1           0        0.431570   -1.430445    1.301444
     15          1           0        0.075607    0.286493    1.230931
     16          1           0        0.575084    0.269675   -1.262640
     17          1           0        0.835036   -1.462537   -1.172993
     18          1           0        2.628899   -1.016139    0.428252
     19          1           0        2.159597    1.244147    1.110203
     20          1           0        3.725652    1.102327    0.307971
     21          1           0        2.351498    1.746091   -0.590355
 ---------------------------------------------------------------------
 Rotational constants (GHZ):           4.7813333           1.2121108           1.0845783
 Standard basis: 6-31G(d,p) (6D, 7F)
 There are   175 symmetry adapted cartesian basis functions of A   symmetry.
 There are   175 symmetry adapted basis functions of A   symmetry.
   175 basis functions,   294 primitive gaussians,   175 cartesian basis functions
    29 alpha electrons       29 beta electrons
       nuclear repulsion energy       327.7713649228 Hartrees.
 NAtoms=   21 NActive=   21 NUniq=   21 SFac= 1.00D+00 NAtFMM=   60 NAOKFM=F Big=F
 Integral buffers will be    131072 words long.
 Raffenetti 2 integral format.
 Two-electron integral symmetry is turned on.
 Force inversion solution in PCM.
 ------------------------------------------------------------------------------
 Polarizable Continuum Model (PCM)
 =================================
 Model                : PCM.
 Atomic radii         : UFF (Universal Force Field).
 Polarization charges : Total charges.
 Charge compensation  : None.
 Solution method      : Matrix inversion.
 Cavity type          : Scaled VdW (van der Waals Surface) (Alpha=1.100).
 Cavity algorithm     : GePol (No added spheres)
                        Default sphere list used, NSphG=   21.
                        Lebedev-Laikov grids with approx.  5.0 points / Ang**2.
                        Smoothing algorithm: York/Karplus (Gamma=1.0000).
                        Polarization charges: spherical gaussians, with
                                              point-specific exponents (IZeta= 3).
                        Self-potential: point-specific (ISelfS= 7).
                        Self-field    : sphere-specific E.n sum rule (ISelfD= 2).
 1st derivatives      : Analytical E(r).r(x)/FMM algorithm (CHGder, D1EAlg=3).
                        Cavity 1st derivative terms included.
 2nd derivatives      : Analytical E(r).r(xy)/FMM algorithm (CHGder, D2EAlg=3).
                        Cavity 2nd derivative terms included.
 Solvent              : Water, Eps=  78.355300 Eps(inf)=   1.777849
 ------------------------------------------------------------------------------
 One-electron integrals computed using PRISM.
 NBasis=   175 RedAO= T EigKep=  3.65D-03  NBF=   175
 NBsUse=   175 1.00D-06 EigRej= -1.00D+00 NBFU=   175
 ExpMin= 1.61D-01 ExpMax= 4.17D+03 ExpMxC= 6.27D+02 IAcc=3 IRadAn=         5 AccDes= 0.00D+00
 Harris functional with IExCor=  402 and IRadAn=       5 diagonalized for initial guess.
 HarFok:  IExCor=  402 AccDes= 0.00D+00 IRadAn=         5 IDoV= 1 UseB2=F ITyADJ=14
 ICtDFT=  3500011 ScaDFX=  1.000000  1.000000  1.000000  1.000000
 FoFCou: FMM=F IPFlag=           0 FMFlag=      100000 FMFlg1=           0
         NFxFlg=           0 DoJE=T BraDBF=F KetDBF=T FulRan=T
         wScrn=  0.000000 ICntrl=       500 IOpCl=  0 I1Cent=   200000004 NGrid=           0
         NMat0=    1 NMatS0=      1 NMatT0=    0 NMatD0=    1 NMtDS0=    0 NMtDT0=    0
 Petite list used in FoFCou.
 Keep R1 ints in memory in canonical form, NReq=121590815.
 Requested convergence on RMS density matrix=1.00D-08 within  32 cycles.
 Requested convergence on MAX density matrix=1.00D-06.
 Requested convergence on             energy=1.00D-06.
 No special actions if energy rises.
 Inv3:  Mode=1 IEnd=     6759003.
 Iteration    1 A*A^-1 deviation from unit magnitude is 5.77D-15 for   1486.
 Iteration    1 A*A^-1 deviation from orthogonality  is 3.87D-15 for   1184    278.
 Iteration    1 A^-1*A deviation from unit magnitude is 5.55D-15 for   1486.
 Iteration    1 A^-1*A deviation from orthogonality  is 3.70D-15 for   1060    334.
 Error on total polarization charges =  0.00906
 SCF Done:  E(RB3LYP) =  -308.463487380     A.U. after   11 cycles
            NFock= 11  Conv=0.30D-08     -V/T= 2.0097
 QCSCF skips out because SCF is already converged.
 DoSCS=F DFT=T ScalE2(SS,OS)=  1.000000  1.000000
 Range of M.O.s used for correlation:     1   175
 NBasis=   175 NAE=    29 NBE=    29 NFC=     0 NFV=     0
 NROrb=    175 NOA=    29 NOB=    29 NVA=   146 NVB=   146
 Symmetrizing basis deriv contribution to polar:
 IMax=3 JMax=2 DiffMx= 0.00D+00
 G2DrvN: will do    22 centers at a time, making    1 passes.
 Calling FoFCou, ICntrl=  3107 FMM=F I1Cent=   0 AccDes= 0.00D+00.
 NEqPCM:  Using equilibrium solvation (IEInf=0, Eps=  78.3553, EpsInf=   1.7778)
 G2PCM: DoFxE=T DoFxN=T DoGrad=T DoDP/DQ/DG/TGxP=FFFF NFrqRd=   0 IEInf=0 SqF1=F DoCFld=F IF1Alg=4.
 End of G2Drv F.D. properties file   721 does not exist.
 End of G2Drv F.D. properties file   722 does not exist.
 End of G2Drv F.D. properties file   788 does not exist.
          IDoAtm=111111111111111111111
 NEqPCM:  Using equilibrium solvation (IEInf=0, Eps=  78.3553, EpsInf=   1.7778)
          Differentiating once with respect to nuclear coordinates.
 Keep R1 ints in memory in canonical form, NReq=125082440.
          There are    66 degrees of freedom in the 1st order CPHF.  IDoFFX=6 NUNeed=     0.
     60 vectors produced by pass  0 Test12= 6.42D-15 1.52D-09 XBig12= 7.32D-02 5.34D-02.
 AX will form    60 AO Fock derivatives at one time.
     60 vectors produced by pass  1 Test12= 6.42D-15 1.52D-09 XBig12= 4.27D-03 1.21D-02.
     60 vectors produced by pass  2 Test12= 6.42D-15 1.52D-09 XBig12= 5.54D-05 8.71D-04.
     60 vectors produced by pass  3 Test12= 6.42D-15 1.52D-09 XBig12= 9.34D-08 3.47D-05.
     60 vectors produced by pass  4 Test12= 6.42D-15 1.52D-09 XBig12= 8.69D-11 1.01D-06.
     22 vectors produced by pass  5 Test12= 6.42D-15 1.52D-09 XBig12= 4.99D-14 2.35D-08.
 InvSVY:  IOpt=1 It=  1 EMax= 5.55D-16
 Solved reduced A of dimension   322 with    66 vectors.
 End of Minotr F.D. properties file   721 does not exist.
 End of Minotr F.D. properties file   722 does not exist.
 End of Minotr F.D. properties file   788 does not exist.

 **********************************************************************

            Population analysis using the SCF density.

 **********************************************************************

 Orbital symmetries:
       Occupied  (A) (A) (A) (A) (A) (A) (A) (A) (A) (A) (A) (A)
                 (A) (A) (A) (A) (A) (A) (A) (A) (A) (A) (A) (A)
                 (A) (A) (A) (A) (A)
       Virtual   (A) (A) (A) (A) (A) (A) (A) (A) (A) (A) (A) (A)
                 (A) (A) (A) (A) (A) (A) (A) (A) (A) (A) (A) (A)
                 (A) (A) (A) (A) (A) (A) (A) (A) (A) (A) (A) (A)
                 (A) (A) (A) (A) (A) (A) (A) (A) (A) (A) (A) (A)
                 (A) (A) (A) (A) (A) (A) (A) (A) (A) (A) (A) (A)
                 (A) (A) (A) (A) (A) (A) (A) (A) (A) (A) (A) (A)
                 (A) (A) (A) (A) (A) (A) (A) (A) (A) (A) (A) (A)
                 (A) (A) (A) (A) (A) (A) (A) (A) (A) (A) (A) (A)
                 (A) (A) (A) (A) (A) (A) (A) (A) (A) (A) (A) (A)
                 (A) (A) (A) (A) (A) (A) (A) (A) (A) (A) (A) (A)
                 (A) (A) (A) (A) (A) (A) (A) (A) (A) (A) (A) (A)
                 (A) (A) (A) (A) (A) (A) (A) (A) (A) (A) (A) (A)
                 (A) (A)
 The electronic state is 1-A.
 Alpha  occ. eigenvalues --  -14.31283 -14.30891 -10.19918 -10.19641 -10.19466
 Alpha  occ. eigenvalues --  -10.19349 -10.17316  -0.89706  -0.88855  -0.75535
 Alpha  occ. eigenvalues --   -0.68808  -0.65773  -0.61396  -0.56864  -0.49507
 Alpha  occ. eigenvalues --   -0.47909  -0.44787  -0.43861  -0.42506  -0.41218
 Alpha  occ. eigenvalues --   -0.39852  -0.37962  -0.36291  -0.35964  -0.34415
 Alpha  occ. eigenvalues --   -0.33741  -0.32301  -0.22115  -0.20663
 Alpha virt. eigenvalues --    0.08065   0.09720   0.11357   0.13174   0.14307
 Alpha virt. eigenvalues --    0.15379   0.15751   0.16567   0.17297   0.18497
 Alpha virt. eigenvalues --    0.18900   0.20000   0.21065   0.21473   0.22833
 Alpha virt. eigenvalues --    0.24534   0.25748   0.26759   0.27664   0.30290
 Alpha virt. eigenvalues --    0.50946   0.51657   0.53041   0.53848   0.54783
 Alpha virt. eigenvalues --    0.56779   0.58608   0.59940   0.60517   0.64358
 Alpha virt. eigenvalues --    0.68775   0.69429   0.70650   0.73268   0.76304
 Alpha virt. eigenvalues --    0.78235   0.79880   0.81489   0.82814   0.83340
 Alpha virt. eigenvalues --    0.85287   0.86634   0.88371   0.88986   0.89479
 Alpha virt. eigenvalues --    0.92489   0.93354   0.93798   0.94604   0.95393
 Alpha virt. eigenvalues --    0.96433   0.97353   0.99830   1.02735   1.06579
 Alpha virt. eigenvalues --    1.14828   1.17765   1.27919   1.30096   1.32611
 Alpha virt. eigenvalues --    1.35734   1.38139   1.43316   1.50087   1.55492
 Alpha virt. eigenvalues --    1.57464   1.60110   1.67281   1.69827   1.76938
 Alpha virt. eigenvalues --    1.78628   1.79928   1.81885   1.85893   1.87853
 Alpha virt. eigenvalues --    1.90127   1.93998   1.94734   1.97188   1.99529
 Alpha virt. eigenvalues --    2.01689   2.04452   2.05059   2.05805   2.08154
 Alpha virt. eigenvalues --    2.08568   2.11234   2.11340   2.13576   2.15436
 Alpha virt. eigenvalues --    2.16813   2.21071   2.23262   2.26458   2.28375
 Alpha virt. eigenvalues --    2.30270   2.32680   2.36873   2.37600   2.39960
 Alpha virt. eigenvalues --    2.40808   2.45751   2.49829   2.51333   2.54966
 Alpha virt. eigenvalues --    2.58493   2.62968   2.63928   2.66521   2.69469
 Alpha virt. eigenvalues --    2.71417   2.72969   2.73589   2.75584   2.77277
 Alpha virt. eigenvalues --    2.82661   2.84183   2.88613   2.90386   2.90768
 Alpha virt. eigenvalues --    2.93667   2.94806   2.96260   2.96578   2.98205
 Alpha virt. eigenvalues --    3.19171   3.20296   3.27669   3.30384   3.33240
 Alpha virt. eigenvalues --    3.37191   3.38156   3.43731   3.45252   3.45817
 Alpha virt. eigenvalues --    3.50413   3.52199   3.55273   3.58389   4.03775
 Alpha virt. eigenvalues --    4.12063   4.37558   4.46957   4.48103   4.57576
 Alpha virt. eigenvalues --    4.71055
          Condensed to atoms (all electrons):
               1          2          3          4          5          6
     1  C    4.810908   0.316778  -0.056801  -0.004477  -0.000929   0.000009
     2  N    0.316778   6.810483   0.314857  -0.059118   0.001059   0.000114
     3  C   -0.056801   0.314857   4.836334   0.336949  -0.035137   0.004884
     4  C   -0.004477  -0.059118   0.336949   5.050102   0.357929  -0.063382
     5  C   -0.000929   0.001059  -0.035137   0.357929   4.804446   0.324689
     6  N    0.000009   0.000114   0.004884  -0.063382   0.324689   6.807616
     7  C   -0.000019  -0.000011   0.000114  -0.003640  -0.059474   0.317759
     8  H    0.387432  -0.032854   0.005655   0.000141  -0.000013  -0.000000
     9  H    0.393020  -0.039619  -0.005474   0.004455   0.000125  -0.000090
    10  H    0.372173  -0.054211  -0.006362  -0.002151   0.000196   0.000001
    11  H   -0.040618   0.345502  -0.034489   0.005930   0.000029   0.000000
    12  H   -0.008389  -0.055573   0.369156  -0.049459   0.005682  -0.000118
    13  H    0.006338  -0.038503   0.385501  -0.037487  -0.008132   0.000079
    14  H   -0.000008   0.003709  -0.028390   0.377061  -0.037258  -0.003098
    15  H    0.003201  -0.004783  -0.033671   0.383113  -0.040334  -0.001328
    16  H    0.000176   0.010309  -0.003980  -0.044039   0.387505  -0.034222
    17  H    0.000069  -0.000364  -0.000664  -0.054595   0.383860  -0.041962
    18  H   -0.000001   0.000000   0.000043  -0.005416  -0.043488   0.348071
    19  H   -0.000040   0.000019  -0.000504   0.004742  -0.000413  -0.057268
    20  H    0.000000  -0.000000   0.000003  -0.000025   0.004891  -0.036656
    21  H   -0.000007  -0.000016   0.000028  -0.001089  -0.006331  -0.037793
               7          8          9         10         11         12
     1  C   -0.000019   0.387432   0.393020   0.372173  -0.040618  -0.008389
     2  N   -0.000011  -0.032854  -0.039619  -0.054211   0.345502  -0.055573
     3  C    0.000114   0.005655  -0.005474  -0.006362  -0.034489   0.369156
     4  C   -0.003640   0.000141   0.004455  -0.002151   0.005930  -0.049459
     5  C   -0.059474  -0.000013   0.000125   0.000196   0.000029   0.005682
     6  N    0.317759  -0.000000  -0.000090   0.000001   0.000000  -0.000118
     7  C    4.806632  -0.000000   0.000109  -0.000001   0.000000   0.000002
     8  H   -0.000000   0.604642  -0.028642  -0.038481  -0.004535  -0.000161
     9  H    0.000109  -0.028642   0.598937  -0.046016   0.005859  -0.001612
    10  H   -0.000001  -0.038481  -0.046016   0.677370  -0.004555   0.015663
    11  H    0.000000  -0.004535   0.005859  -0.004555   0.482638  -0.003270
    12  H    0.000002  -0.000161  -0.001612   0.015663  -0.003270   0.707167
    13  H    0.000004  -0.000268   0.000013  -0.000177  -0.005499  -0.045052
    14  H   -0.000280  -0.000002  -0.000107   0.000028  -0.000184  -0.000957
    15  H    0.001838  -0.000133   0.001262  -0.000013  -0.000042  -0.005191
    16  H   -0.007903  -0.000070  -0.000054   0.000093  -0.000173   0.000184
    17  H    0.006088   0.000001  -0.000038  -0.000001  -0.000059  -0.000097
    18  H   -0.040919   0.000000   0.000003  -0.000000   0.000000  -0.000013
    19  H    0.375699  -0.000000   0.000100   0.000001  -0.000000   0.000024
    20  H    0.387951  -0.000000  -0.000001  -0.000000   0.000000  -0.000000
    21  H    0.391692   0.000000   0.000075  -0.000001   0.000000  -0.000001
              13         14         15         16         17         18
     1  C    0.006338  -0.000008   0.003201   0.000176   0.000069  -0.000001
     2  N   -0.038503   0.003709  -0.004783   0.010309  -0.000364   0.000000
     3  C    0.385501  -0.028390  -0.033671  -0.003980  -0.000664   0.000043
     4  C   -0.037487   0.377061   0.383113  -0.044039  -0.054595  -0.005416
     5  C   -0.008132  -0.037258  -0.040334   0.387505   0.383860  -0.043488
     6  N    0.000079  -0.003098  -0.001328  -0.034222  -0.041962   0.348071
     7  C    0.000004  -0.000280   0.001838  -0.007903   0.006088  -0.040919
     8  H   -0.000268  -0.000002  -0.000133  -0.000070   0.000001   0.000000
     9  H    0.000013  -0.000107   0.001262  -0.000054  -0.000038   0.000003
    10  H   -0.000177   0.000028  -0.000013   0.000093  -0.000001  -0.000000
    11  H   -0.005499  -0.000184  -0.000042  -0.000173  -0.000059   0.000000
    12  H   -0.045052  -0.000957  -0.005191   0.000184  -0.000097  -0.000013
    13  H    0.640646  -0.004037   0.005903  -0.000362   0.006220   0.000017
    14  H   -0.004037   0.627497  -0.037420   0.005460  -0.005602   0.006303
    15  H    0.005903  -0.037420   0.622896  -0.005862   0.006005  -0.000293
    16  H   -0.000362   0.005460  -0.005862   0.608153  -0.036088   0.006043
    17  H    0.006220  -0.005602   0.006005  -0.036088   0.651436  -0.001606
    18  H    0.000017   0.006303  -0.000293   0.006043  -0.001606   0.486931
    19  H   -0.000007   0.000288   0.001020  -0.000608  -0.000376  -0.005324
    20  H    0.000000  -0.000019  -0.000110   0.000151  -0.000254  -0.002615
    21  H    0.000002   0.000052   0.000308   0.006661   0.000301   0.005862
              19         20         21
     1  C   -0.000040   0.000000  -0.000007
     2  N    0.000019  -0.000000  -0.000016
     3  C   -0.000504   0.000003   0.000028
     4  C    0.004742  -0.000025  -0.001089
     5  C   -0.000413   0.004891  -0.006331
     6  N   -0.057268  -0.036656  -0.037793
     7  C    0.375699   0.387951   0.391692
     8  H   -0.000000  -0.000000   0.000000
     9  H    0.000100  -0.000001   0.000075
    10  H    0.000001  -0.000000  -0.000001
    11  H   -0.000000   0.000000   0.000000
    12  H    0.000024  -0.000000  -0.000001
    13  H   -0.000007   0.000000   0.000002
    14  H    0.000288  -0.000019   0.000052
    15  H    0.001020  -0.000110   0.000308
    16  H   -0.000608   0.000151   0.006661
    17  H   -0.000376  -0.000254   0.000301
    18  H   -0.005324  -0.002615   0.005862
    19  H    0.678199  -0.041825  -0.044233
    20  H   -0.041825   0.612910  -0.028206
    21  H   -0.044233  -0.028206   0.600017
 Mulliken charges:
               1
     1  C   -0.178815
     2  N   -0.517780
     3  C   -0.048052
     4  C   -0.195545
     5  C   -0.038902
     6  N   -0.527304
     7  C   -0.175642
     8  H    0.107287
     9  H    0.117693
    10  H    0.086443
    11  H    0.253465
    12  H    0.072015
    13  H    0.094799
    14  H    0.096962
    15  H    0.103635
    16  H    0.108626
    17  H    0.087726
    18  H    0.246400
    19  H    0.090505
    20  H    0.103804
    21  H    0.112679
 Sum of Mulliken charges =  -0.00000
 Mulliken charges with hydrogens summed into heavy atoms:
               1
     1  C    0.132609
     2  N   -0.264315
     3  C    0.118762
     4  C    0.005052
     5  C    0.157450
     6  N   -0.280904
     7  C    0.131347
 APT charges:
               1
     1  C   -1.000252
     2  N   -0.956975
     3  C   -0.715330
     4  C   -0.601188
     5  C   -0.565112
     6  N   -0.700662
     7  C   -1.059370
     8  H    0.567083
     9  H    0.131426
    10  H    0.403857
    11  H    0.764184
    12  H    0.380024
    13  H    0.392818
    14  H    0.395962
    15  H    0.267353
    16  H    0.244289
    17  H    0.377937
    18  H    0.535627
    19  H    0.166259
    20  H    0.667310
    21  H    0.304761
 Sum of APT charges =  -0.00000
 APT charges with hydrogens summed into heavy atoms:
               1
     1  C    0.102114
     2  N   -0.192791
     3  C    0.057513
     4  C    0.062126
     5  C    0.057113
     6  N   -0.165035
     7  C    0.078959
 Electronic spatial extent (au):  <R**2>=           1165.3307
 Charge=              0.0000 electrons
 Dipole moment (field-independent basis, Debye):
    X=             -1.5761    Y=             -0.1284    Z=              1.9900  Tot=              2.5418
 Quadrupole moment (field-independent basis, Debye-Ang):
   XX=            -43.9738   YY=            -43.6306   ZZ=            -48.6270
   XY=              1.0419   XZ=              3.9074   YZ=             -0.9876
 Traceless Quadrupole moment (field-independent basis, Debye-Ang):
   XX=              1.4367   YY=              1.7799   ZZ=             -3.2165
   XY=              1.0419   XZ=              3.9074   YZ=             -0.9876
 Octapole moment (field-independent basis, Debye-Ang**2):
  XXX=            -25.9939  YYY=             -2.4243  ZZZ=              1.3701  XYY=              0.1114
  XXY=              0.1993  XXZ=              7.9663  XZZ=             -0.8010  YZZ=             -0.3557
  YYZ=             -1.1825  XYZ=             -4.2449
 Hexadecapole moment (field-independent basis, Debye-Ang**3):
 XXXX=          -1061.2044 YYYY=           -285.9227 ZZZZ=           -147.5273 XXXY=             12.0687
 XXXZ=             57.9925 YYYX=             -5.3629 YYYZ=             -2.3016 ZZZX=              3.9811
 ZZZY=             -1.2923 XXYY=           -223.1680 XXZZ=           -217.7446 YYZZ=            -70.7353
 XXYZ=             -8.2318 YYXZ=              5.9594 ZZXY=              0.5778
 N-N= 3.277713649228D+02 E-N=-1.370617362951D+03  KE= 3.055043460294D+02
  Exact polarizability:   0.000   0.000   0.000   0.000   0.000   0.000
 Approx polarizability:  92.306  -0.185  93.372   3.755  -0.441  86.676
 D2PCM: PCM CHGder 2nd derivatives, FixD1E=F FixD2E=F DoIter=F DoCFld=F I1PDM=0
 Calling FoFJK, ICntrl=    100147 FMM=F ISym2X=0 I1Cent= 0 IOpClX= 0 NMat=1 NMatS=1 NMatT=0.
 ***** Axes restored to original set *****
 -------------------------------------------------------------------
 Center     Atomic                   Forces (Hartrees/Bohr)
 Number     Number              X              Y              Z
 -------------------------------------------------------------------
      1        6          -0.004515423    0.000852291   -0.006969597
      2        7           0.008933804   -0.000023369   -0.005120654
      3        6          -0.004929403   -0.004872793   -0.000617151
      4        6          -0.007821851    0.003839342   -0.006480948
      5        6           0.002829522   -0.009444564    0.008436688
      6        7           0.004058028    0.003552008   -0.015408617
      7        6           0.005417234   -0.003943522    0.008189869
      8        1          -0.000121790    0.000326050    0.000016014
      9        1          -0.000032402   -0.001881683    0.000884480
     10        1          -0.001925797    0.004466519    0.006946918
     11        1           0.003418859    0.000400833    0.002066190
     12        1          -0.002036028   -0.001086273    0.007337740
     13        1          -0.000149165   -0.000197313   -0.001235610
     14        1          -0.000206954   -0.000299766   -0.000570799
     15        1           0.000913699    0.000311251    0.000284050
     16        1           0.001961522    0.000364739    0.002582758
     17        1          -0.002399687   -0.001304438   -0.001506319
     18        1          -0.001145236    0.001496423   -0.001169118
     19        1          -0.001151789    0.008315306    0.002683474
     20        1           0.000813600    0.000880991    0.000664087
     21        1          -0.001910744   -0.001752031   -0.001013454
 -------------------------------------------------------------------
 Cartesian Forces:  Max     0.015408617 RMS     0.004284050
 FormGI is forming the generalized inverse of G from B-inverse, IUseBI=4.

 GradGradGradGradGradGradGradGradGradGradGradGradGradGradGradGradGradGrad
 Berny optimization.
 Internal  Forces:  Max     0.012352435 RMS     0.003267220
 Search for a local minimum.
 Step number   1 out of a maximum of  108
 All quantities printed in internal units (Hartrees-Bohrs-Radians)
 Mixed Optimization -- RFO/linear search
 Second derivative matrix not updated -- analytic derivatives used.
 ITU=  0
     Eigenvalues ---    0.00110   0.00226   0.00267   0.00321   0.00385
     Eigenvalues ---    0.00475   0.02201   0.02305   0.03505   0.03946
     Eigenvalues ---    0.04483   0.04589   0.04834   0.05132   0.06261
     Eigenvalues ---    0.06295   0.06435   0.06456   0.06985   0.08183
     Eigenvalues ---    0.08748   0.09951   0.10348   0.10885   0.12639
     Eigenvalues ---    0.13142   0.13184   0.13489   0.16556   0.16674
     Eigenvalues ---    0.17801   0.17943   0.18872   0.22774   0.24607
     Eigenvalues ---    0.24937   0.25278   0.27180   0.29114   0.31727
     Eigenvalues ---    0.32429   0.32551   0.32801   0.32889   0.32940
     Eigenvalues ---    0.33527   0.33575   0.33683   0.33789   0.34016
     Eigenvalues ---    0.34255   0.36391   0.36554   0.38629   0.39448
     Eigenvalues ---    0.43175   0.43771
 RFO step:  Lambda=-5.14694859D-03 EMin= 1.10253465D-03
 Linear search not attempted -- first point.
 Iteration  1 RMS(Cart)=  0.03706351 RMS(Int)=  0.00089923
 Iteration  2 RMS(Cart)=  0.00252283 RMS(Int)=  0.00023218
 Iteration  3 RMS(Cart)=  0.00000494 RMS(Int)=  0.00023216
 Iteration  4 RMS(Cart)=  0.00000000 RMS(Int)=  0.00023216
 Variable       Old X    -DE/DX   Delta X   Delta X   Delta X     New X
                                 (Linear)    (Quad)   (Total)
    R1        2.75432   0.00455   0.00000   0.00909   0.00909   2.76341
    R2        2.06872   0.00022   0.00000  -0.00113  -0.00113   2.06759
    R3        2.06702  -0.00042   0.00000   0.00099   0.00099   2.06802
    R4        2.06876   0.00652   0.00000   0.01865   0.01865   2.08740
    R5        2.76720   0.00299   0.00000   0.00738   0.00738   2.77458
    R6        1.92879  -0.00394   0.00000  -0.00716  -0.00716   1.92164
    R7        2.89878   0.00013   0.00000   0.00063   0.00063   2.89940
    R8        2.07297   0.00667   0.00000   0.01754   0.01754   2.09051
    R9        2.07278   0.00068   0.00000   0.00078   0.00078   2.07357
   R10        2.89653   0.00401   0.00000   0.01011   0.01011   2.90665
   R11        2.07446  -0.00021   0.00000   0.00160   0.00160   2.07606
   R12        2.06996   0.00046   0.00000   0.00191   0.00191   2.07187
   R13        2.77365   0.00316   0.00000  -0.00200  -0.00200   2.77165
   R14        2.07164  -0.00168   0.00000  -0.00171  -0.00171   2.06993
   R15        2.07209   0.00210   0.00000   0.00484   0.00484   2.07693
   R16        2.75045   0.00714   0.00000   0.01312   0.01312   2.76357
   R17        1.92514  -0.00188   0.00000  -0.00069  -0.00069   1.92445
   R18        2.06713   0.00559   0.00000   0.01602   0.01602   2.08315
   R19        2.06848   0.00096   0.00000   0.00048   0.00048   2.06896
   R20        2.06882  -0.00032   0.00000   0.00203   0.00203   2.07085
    A1        1.90596   0.00030   0.00000   0.00270   0.00243   1.90840
    A2        1.95052  -0.00413   0.00000  -0.02426  -0.02414   1.92637
    A3        1.94823   0.00728   0.00000   0.03835   0.03824   1.98647
    A4        1.86731   0.00099   0.00000   0.00752   0.00749   1.87480
    A5        1.88074  -0.00146   0.00000   0.00564   0.00519   1.88593
    A6        1.90802  -0.00314   0.00000  -0.03004  -0.02981   1.87821
    A7        1.96677   0.00489   0.00000   0.01593   0.01597   1.98274
    A8        1.89342  -0.00146   0.00000  -0.00826  -0.00820   1.88523
    A9        1.89628  -0.00230   0.00000  -0.01443  -0.01439   1.88190
   A10        2.00611  -0.00648   0.00000  -0.02898  -0.02903   1.97708
   A11        1.92045   0.00525   0.00000   0.03309   0.03296   1.95341
   A12        1.87875   0.00069   0.00000  -0.00688  -0.00704   1.87171
   A13        1.91160  -0.00067   0.00000  -0.01219  -0.01196   1.89963
   A14        1.88845   0.00209   0.00000   0.00809   0.00790   1.89635
   A15        1.85164  -0.00048   0.00000   0.00953   0.00949   1.86113
   A16        1.96640   0.00377   0.00000   0.01349   0.01349   1.97989
   A17        1.88292  -0.00135   0.00000  -0.00140  -0.00139   1.88153
   A18        1.91760  -0.00056   0.00000   0.00209   0.00211   1.91971
   A19        1.90588  -0.00114   0.00000  -0.00479  -0.00482   1.90106
   A20        1.93185  -0.00159   0.00000  -0.00737  -0.00741   1.92444
   A21        1.85514   0.00070   0.00000  -0.00290  -0.00293   1.85221
   A22        1.97403   0.01235   0.00000   0.05227   0.05206   2.02609
   A23        1.94174  -0.00350   0.00000  -0.02799  -0.02756   1.91418
   A24        1.89700  -0.00382   0.00000  -0.00331  -0.00429   1.89271
   A25        1.92142  -0.00651   0.00000  -0.03677  -0.03625   1.88517
   A26        1.86999  -0.00102   0.00000   0.01191   0.01123   1.88122
   A27        1.85412   0.00202   0.00000   0.00309   0.00304   1.85716
   A28        1.96459   0.00996   0.00000   0.03018   0.03027   1.99486
   A29        1.91725  -0.00396   0.00000  -0.01838  -0.01825   1.89900
   A30        1.91503  -0.00320   0.00000  -0.01638  -0.01623   1.89880
   A31        1.95670   0.01008   0.00000   0.05401   0.05389   2.01058
   A32        1.90631   0.00106   0.00000   0.00231   0.00183   1.90813
   A33        1.94307  -0.00642   0.00000  -0.03715  -0.03694   1.90613
   A34        1.87685  -0.00282   0.00000   0.00135   0.00064   1.87749
   A35        1.90497  -0.00320   0.00000  -0.02792  -0.02743   1.87755
   A36        1.87289   0.00107   0.00000   0.00691   0.00676   1.87965
    D1       -3.06522  -0.00054   0.00000   0.02559   0.02543  -3.03978
    D2       -0.96480  -0.00133   0.00000   0.01195   0.01178  -0.95302
    D3        1.15546   0.00056   0.00000   0.02933   0.02924   1.18470
    D4       -3.02731  -0.00022   0.00000   0.01569   0.01559  -3.01173
    D5       -0.98747   0.00234   0.00000   0.05806   0.05833  -0.92914
    D6        1.11294   0.00156   0.00000   0.04441   0.04468   1.15762
    D7       -1.19951  -0.00061   0.00000  -0.06712  -0.06691  -1.26642
    D8        0.96802  -0.00216   0.00000  -0.07856  -0.07875   0.88926
    D9        2.97840   0.00040   0.00000  -0.05375  -0.05381   2.92459
   D10        2.98491  -0.00031   0.00000  -0.05704  -0.05680   2.92811
   D11       -1.13075  -0.00186   0.00000  -0.06847  -0.06864  -1.19939
   D12        0.87963   0.00070   0.00000  -0.04367  -0.04370   0.83593
   D13       -1.03104   0.00102   0.00000  -0.00644  -0.00637  -1.03741
   D14       -3.13612   0.00102   0.00000  -0.00789  -0.00782   3.13925
   D15        1.13173   0.00124   0.00000  -0.00478  -0.00468   1.12704
   D16        3.07995  -0.00058   0.00000  -0.01900  -0.01910   3.06085
   D17        0.97488  -0.00059   0.00000  -0.02045  -0.02055   0.95433
   D18       -1.04046  -0.00037   0.00000  -0.01734  -0.01742  -1.05788
   D19        1.06891  -0.00080   0.00000  -0.02826  -0.02826   1.04065
   D20       -1.03617  -0.00081   0.00000  -0.02972  -0.02971  -1.06588
   D21       -3.05151  -0.00059   0.00000  -0.02661  -0.02658  -3.07809
   D22       -3.03055  -0.00178   0.00000  -0.03621  -0.03637  -3.06692
   D23        1.07945   0.00018   0.00000  -0.00535  -0.00524   1.07421
   D24       -0.95612   0.00204   0.00000   0.00895   0.00898  -0.94715
   D25       -0.93869  -0.00184   0.00000  -0.03260  -0.03276  -0.97145
   D26       -3.11188   0.00011   0.00000  -0.00173  -0.00164  -3.11351
   D27        1.13574   0.00198   0.00000   0.01256   0.01258   1.14832
   D28        1.09776  -0.00260   0.00000  -0.04325  -0.04337   1.05439
   D29       -1.07542  -0.00065   0.00000  -0.01239  -0.01225  -1.08767
   D30       -3.11099   0.00122   0.00000   0.00191   0.00197  -3.10902
   D31       -1.31631   0.00120   0.00000   0.08402   0.08445  -1.23186
   D32        0.82318   0.00113   0.00000   0.07059   0.07097   0.89415
   D33        0.86790   0.00074   0.00000   0.05751   0.05746   0.92535
   D34        3.00739   0.00067   0.00000   0.04408   0.04398   3.05136
   D35        2.87689  -0.00077   0.00000   0.04886   0.04857   2.92545
   D36       -1.26681  -0.00084   0.00000   0.03544   0.03509  -1.23172
   D37        1.13515  -0.00233   0.00000  -0.05910  -0.05958   1.07557
   D38       -3.06964   0.00114   0.00000  -0.02214  -0.02194  -3.09158
   D39       -1.00454  -0.00076   0.00000  -0.03469  -0.03447  -1.03901
   D40       -1.00558  -0.00182   0.00000  -0.04452  -0.04496  -1.05054
   D41        1.07282   0.00165   0.00000  -0.00756  -0.00733   1.06549
   D42        3.13791  -0.00025   0.00000  -0.02011  -0.01985   3.11806
         Item               Value     Threshold  Converged?
 Maximum Force            0.012352     0.000450     NO 
 RMS     Force            0.003267     0.000300     NO 
 Maximum Displacement     0.120911     0.001800     NO 
 RMS     Displacement     0.037981     0.001200     NO 
 Predicted change in Energy=-2.796657D-03
 GradGradGradGradGradGradGradGradGradGradGradGradGradGradGradGradGradGrad

                          Input orientation:                          
 ---------------------------------------------------------------------
 Center     Atomic      Atomic             Coordinates (Angstroms)
 Number     Number       Type             X           Y           Z
 ---------------------------------------------------------------------
      1          6           0       -2.077507    1.483865   -0.486059
      2          7           0       -1.848713    0.128931   -0.986283
      3          6           0       -1.562930   -0.847952    0.071908
      4          6           0       -0.167248   -0.683920    0.687732
      5          6           0        0.973276   -0.829720   -0.333930
      6          7           0        2.335143   -0.780400    0.208364
      7          6           0        2.747248    0.540851    0.680732
      8          1           0       -2.384669    2.129018   -1.314629
      9          1           0       -1.152833    1.898767   -0.073223
     10          1           0       -2.851202    1.544418    0.299995
     11          1           0       -2.690132   -0.173834   -1.470438
     12          1           0       -2.316711   -0.812959    0.880844
     13          1           0       -1.632403   -1.845787   -0.379237
     14          1           0       -0.050323   -1.452191    1.464271
     15          1           0       -0.095468    0.281881    1.201678
     16          1           0        0.884912   -0.050773   -1.098940
     17          1           0        0.853579   -1.790557   -0.853941
     18          1           0        2.405356   -1.441294    0.979973
     19          1           0        2.145691    0.952255    1.507813
     20          1           0        3.787618    0.496538    1.018905
     21          1           0        2.697315    1.252863   -0.150788
 ---------------------------------------------------------------------
                    Distance matrix (angstroms):
                    1          2          3          4          5
     1  C    0.000000
     2  N    1.462332   0.000000
     3  C    2.452241   1.468245   0.000000
     4  C    3.118680   2.508063   1.534299   0.000000
     5  C    3.831853   3.050935   2.568536   1.538131   0.000000
     6  N    5.008053   4.445078   3.901045   2.549718   1.466695
     7  C    5.052616   4.906269   4.569143   3.161392   2.460687
     8  H    1.094120   2.096523   3.385276   4.103539   4.581670
     9  H    1.094349   2.109561   2.780954   2.867177   3.468854
    10  H    1.104606   2.159421   2.726739   3.509906   4.545881
    11  H    2.022937   1.016886   2.025797   3.358992   3.891323
    12  H    2.683476   2.142976   1.106250   2.161975   3.507132
    13  H    3.360968   2.077212   1.097284   2.152914   2.797143
    14  H    4.066163   3.426277   2.142839   1.098601   2.160729
    15  H    2.867351   2.807925   2.169412   1.096388   2.176227
    16  H    3.392147   2.741841   2.828128   2.167975   1.095358
    17  H    4.410039   3.317279   2.754128   2.154876   1.099067
    18  H    5.549942   4.942558   4.113870   2.697649   2.037453
    19  H    4.700376   4.780548   4.365367   2.949455   2.818157
    20  H    6.135097   5.993675   5.597572   4.140546   3.392586
    21  H    4.792149   4.756853   4.755282   3.558085   2.709798
                    6          7          8          9         10
     6  N    0.000000
     7  C    1.462418   0.000000
     8  H    5.749856   5.730647   0.000000
     9  H    4.407176   4.197978   1.763952   0.000000
    10  H    5.684307   5.700417   1.779444   1.774630   0.000000
    11  H    5.332887   5.890959   2.328242   2.934480   2.472401
    12  H    4.700323   5.245620   3.671505   3.101340   2.486020
    13  H    4.149909   5.099110   4.152101   3.787521   3.666104
    14  H    2.778318   3.523145   5.098678   3.848160   4.263816
    15  H    2.832487   2.901635   3.870938   2.314673   3.162452
    16  H    2.084363   2.643019   3.935502   3.000868   4.296534
    17  H    2.084212   3.372932   5.105053   4.271572   5.116546
    18  H    1.018377   2.033552   6.399740   4.992588   6.083441
    19  H    2.174064   1.102355   5.465813   3.778335   5.174787
    20  H    2.096957   1.094849   6.797610   5.250433   6.759350
    21  H    2.096262   1.095847   5.286657   3.904722   5.574429
                   11         12         13         14         15
    11  H    0.000000
    12  H    2.465046   0.000000
    13  H    2.259411   1.767149   0.000000
    14  H    4.149134   2.426009   2.460979   0.000000
    15  H    3.752354   2.497105   3.064055   1.754423   0.000000
    16  H    3.596400   3.840686   3.174417   3.067359   2.522826
    17  H    3.943571   3.743784   2.531503   2.511104   3.069408
    18  H    5.794391   4.764719   4.279552   2.503003   3.045096
    19  H    5.789925   4.839639   5.065964   3.256644   2.359218
    20  H    6.971905   6.244732   6.067777   4.327318   3.893307
    21  H    5.727262   5.520176   5.329192   4.180340   3.251401
                   16         17         18         19         20
    16  H    0.000000
    17  H    1.757230   0.000000
    18  H    2.926974   2.427599   0.000000
    19  H    3.064440   3.843235   2.464775   0.000000
    20  H    3.634628   4.164966   2.380621   1.772747   0.000000
    21  H    2.425544   3.627147   2.936382   1.773587   1.768889
                   21
    21  H    0.000000
 Stoichiometry    C5H14N2
 Framework group  C1[X(C5H14N2)]
 Deg. of freedom    57
 Full point group                 C1      NOp   1
 Largest Abelian subgroup         C1      NOp   1
 Largest concise Abelian subgroup C1      NOp   1
                         Standard orientation:                         
 ---------------------------------------------------------------------
 Center     Atomic      Atomic             Coordinates (Angstroms)
 Number     Number       Type             X           Y           Z
 ---------------------------------------------------------------------
      1          6           0       -2.377893    1.254956    0.070047
      2          7           0       -2.069255   -0.021335   -0.573566
      3          6           0       -1.433493   -0.993834    0.324096
      4          6           0        0.022453   -0.646397    0.661114
      5          6           0        0.933351   -0.562219   -0.575423
      6          7           0        2.357450   -0.329522   -0.312764
      7          6           0        2.667931    1.014320    0.173402
      8          1           0       -2.939450    1.885345   -0.625915
      9          1           0       -1.455612    1.787032    0.322813
     10          1           0       -2.970970    1.155355    0.996596
     11          1           0       -2.941735   -0.426291   -0.903485
     12          1           0       -1.998905   -1.116711    1.266963
     13          1           0       -1.453753   -1.966512   -0.183369
     14          1           0        0.406479   -1.425153    1.334159
     15          1           0        0.062592    0.291888    1.226866
     16          1           0        0.577860    0.230923   -1.242027
     17          1           0        0.844875   -1.502733   -1.137163
     18          1           0        2.680052   -1.009333    0.373440
     19          1           0        2.200351    1.285519    1.134134
     20          1           0        3.751550    1.115000    0.293100
     21          1           0        2.345209    1.750711   -0.571218
 ---------------------------------------------------------------------
 Rotational constants (GHZ):           4.7151395           1.1956669           1.0702122
 Standard basis: 6-31G(d,p) (6D, 7F)
 There are   175 symmetry adapted cartesian basis functions of A   symmetry.
 There are   175 symmetry adapted basis functions of A   symmetry.
   175 basis functions,   294 primitive gaussians,   175 cartesian basis functions
    29 alpha electrons       29 beta electrons
       nuclear repulsion energy       326.2640743970 Hartrees.
 NAtoms=   21 NActive=   21 NUniq=   21 SFac= 1.00D+00 NAtFMM=   60 NAOKFM=F Big=F
 Integral buffers will be    131072 words long.
 Raffenetti 2 integral format.
 Two-electron integral symmetry is turned on.
 ------------------------------------------------------------------------------
 Polarizable Continuum Model (PCM)
 =================================
 Model                : PCM.
 Atomic radii         : UFF (Universal Force Field).
 Polarization charges : Total charges.
 Charge compensation  : None.
 Solution method      : Matrix inversion.
 Cavity type          : Scaled VdW (van der Waals Surface) (Alpha=1.100).
 Cavity algorithm     : GePol (No added spheres)
                        Default sphere list used, NSphG=   21.
                        Lebedev-Laikov grids with approx.  5.0 points / Ang**2.
                        Smoothing algorithm: York/Karplus (Gamma=1.0000).
                        Polarization charges: spherical gaussians, with
                                              point-specific exponents (IZeta= 3).
                        Self-potential: point-specific (ISelfS= 7).
                        Self-field    : sphere-specific E.n sum rule (ISelfD= 2).
 1st derivatives      : Analytical E(r).r(x)/FMM algorithm (CHGder, D1EAlg=3).
                        Cavity 1st derivative terms included.
 Solvent              : Water, Eps=  78.355300 Eps(inf)=   1.777849
 ------------------------------------------------------------------------------
 One-electron integrals computed using PRISM.
 NBasis=   175 RedAO= T EigKep=  3.73D-03  NBF=   175
 NBsUse=   175 1.00D-06 EigRej= -1.00D+00 NBFU=   175
 Initial guess from the checkpoint file:  "UQUPIHHYKUEXQD-UHFFFAOYSA-N_conf_0_0.chk"
 B after Tr=     0.000000   -0.000000    0.000000
         Rot=    0.999995    0.002721    0.001486   -0.001009 Ang=   0.37 deg.
 ExpMin= 1.61D-01 ExpMax= 4.17D+03 ExpMxC= 6.27D+02 IAcc=2 IRadAn=         4 AccDes= 0.00D+00
 Harris functional with IExCor=  402 and IRadAn=       4 diagonalized for initial guess.
 HarFok:  IExCor=  402 AccDes= 0.00D+00 IRadAn=         4 IDoV= 1 UseB2=F ITyADJ=14
 ICtDFT=  3500011 ScaDFX=  1.000000  1.000000  1.000000  1.000000
 FoFCou: FMM=F IPFlag=           0 FMFlag=      100000 FMFlg1=           0
         NFxFlg=           0 DoJE=T BraDBF=F KetDBF=T FulRan=T
         wScrn=  0.000000 ICntrl=       500 IOpCl=  0 I1Cent=   200000004 NGrid=           0
         NMat0=    1 NMatS0=      1 NMatT0=    0 NMatD0=    1 NMtDS0=    0 NMtDT0=    0
 Petite list used in FoFCou.
 Keep R1 ints in memory in canonical form, NReq=121590815.
 Requested convergence on RMS density matrix=1.00D-08 within  32 cycles.
 Requested convergence on MAX density matrix=1.00D-06.
 Requested convergence on             energy=1.00D-06.
 No special actions if energy rises.
 Inv3:  Mode=1 IEnd=     6831243.
 Iteration    1 A*A^-1 deviation from unit magnitude is 6.00D-15 for    797.
 Iteration    1 A*A^-1 deviation from orthogonality  is 3.30D-15 for   1154    222.
 Iteration    1 A^-1*A deviation from unit magnitude is 6.44D-15 for    793.
 Iteration    1 A^-1*A deviation from orthogonality  is 4.83D-14 for   1280   1250.
 Error on total polarization charges =  0.00911
 SCF Done:  E(RB3LYP) =  -308.466322386     A.U. after    9 cycles
            NFock=  9  Conv=0.61D-08     -V/T= 2.0100
 QCSCF skips out because SCF is already converged.
 D1PCM: PCM CHGder 1st derivatives, ID1Alg=3 FixD1E=F DoIter=F DoCFld=F I1PDM=0.
 Calling FoFJK, ICntrl=      2127 FMM=F ISym2X=0 I1Cent= 0 IOpClX= 0 NMat=1 NMatS=1 NMatT=0.
 ***** Axes restored to original set *****
 -------------------------------------------------------------------
 Center     Atomic                   Forces (Hartrees/Bohr)
 Number     Number              X              Y              Z
 -------------------------------------------------------------------
      1        6          -0.000829227   -0.000057897   -0.000431678
      2        7           0.000880056    0.000454759    0.000252848
      3        6          -0.000615608   -0.000375870   -0.000067150
      4        6          -0.000375370    0.000371758   -0.000437660
      5        6          -0.000034959   -0.001356633    0.000970673
      6        7           0.000285760    0.000819184   -0.001166877
      7        6           0.000188857   -0.000382740    0.001004335
      8        1          -0.000078037    0.000037537    0.000032721
      9        1           0.000020698    0.000020870   -0.000055377
     10        1           0.000098503    0.000207392    0.000475597
     11        1           0.000314886   -0.000144776   -0.000424432
     12        1           0.000208043    0.000025971    0.000507118
     13        1          -0.000183751    0.000037373   -0.000120866
     14        1          -0.000126079    0.000054893    0.000057750
     15        1           0.000136519    0.000027755    0.000012306
     16        1          -0.000004224   -0.000159770   -0.000164825
     17        1          -0.000148548    0.000010285   -0.000083357
     18        1           0.000297491   -0.000255641   -0.000311164
     19        1          -0.000167650    0.000567105   -0.000090277
     20        1           0.000025900    0.000107787    0.000074861
     21        1           0.000106741   -0.000009343   -0.000034546
 -------------------------------------------------------------------
 Cartesian Forces:  Max     0.001356633 RMS     0.000412355

 GradGradGradGradGradGradGradGradGradGradGradGradGradGradGradGradGradGrad
 Berny optimization.
 Using GEDIIS/GDIIS optimizer.
 FormGI is forming the generalized inverse of G from B-inverse, IUseBI=4.
 Internal  Forces:  Max     0.000718955 RMS     0.000230397
 Search for a local minimum.
 Step number   2 out of a maximum of  108
 All quantities printed in internal units (Hartrees-Bohrs-Radians)
 Mixed Optimization -- En-DIIS/RFO-DIIS
 Update second derivatives using D2CorX and points    1    2
 DE= -2.84D-03 DEPred=-2.80D-03 R= 1.01D+00
 TightC=F SS=  1.41D+00  RLast= 2.94D-01 DXNew= 5.0454D-01 8.8349D-01
 Trust test= 1.01D+00 RLast= 2.94D-01 DXMaxT set to 5.05D-01
 ITU=  1  0
 Use linear search instead of GDIIS.
     Eigenvalues ---    0.00110   0.00225   0.00267   0.00321   0.00386
     Eigenvalues ---    0.00475   0.02201   0.02305   0.03505   0.03946
     Eigenvalues ---    0.04485   0.04591   0.04837   0.05090   0.06263
     Eigenvalues ---    0.06296   0.06429   0.06447   0.06986   0.08177
     Eigenvalues ---    0.08742   0.09948   0.10347   0.10888   0.12626
     Eigenvalues ---    0.13129   0.13169   0.13494   0.16551   0.16657
     Eigenvalues ---    0.17767   0.17914   0.18855   0.22763   0.24597
     Eigenvalues ---    0.24965   0.25275   0.27141   0.29110   0.31745
     Eigenvalues ---    0.32431   0.32525   0.32807   0.32890   0.32930
     Eigenvalues ---    0.33522   0.33577   0.33682   0.33781   0.34013
     Eigenvalues ---    0.34255   0.36386   0.36554   0.38369   0.39071
     Eigenvalues ---    0.43191   0.43766
 RFO step:  Lambda=-3.54508417D-04 EMin= 1.10290437D-03
 Quartic linear search produced a step of  0.12654.
 Iteration  1 RMS(Cart)=  0.05902929 RMS(Int)=  0.00143912
 Iteration  2 RMS(Cart)=  0.00226185 RMS(Int)=  0.00003181
 Iteration  3 RMS(Cart)=  0.00000297 RMS(Int)=  0.00003176
 Iteration  4 RMS(Cart)=  0.00000000 RMS(Int)=  0.00003176
 Variable       Old X    -DE/DX   Delta X   Delta X   Delta X     New X
                                 (Linear)    (Quad)   (Total)
    R1        2.76341   0.00032   0.00115  -0.00142  -0.00027   2.76314
    R2        2.06759   0.00002  -0.00014  -0.00012  -0.00026   2.06732
    R3        2.06802   0.00000   0.00013   0.00065   0.00078   2.06880
    R4        2.08740   0.00028   0.00236  -0.00141   0.00095   2.08835
    R5        2.77458   0.00038   0.00093  -0.00127  -0.00034   2.77424
    R6        1.92164  -0.00002  -0.00091   0.00045  -0.00046   1.92118
    R7        2.89940   0.00008   0.00008   0.00096   0.00104   2.90045
    R8        2.09051   0.00023   0.00222  -0.00154   0.00068   2.09119
    R9        2.07357   0.00003   0.00010  -0.00033  -0.00023   2.07334
   R10        2.90665   0.00032   0.00128  -0.00063   0.00065   2.90729
   R11        2.07606  -0.00001   0.00020   0.00004   0.00024   2.07629
   R12        2.07187   0.00004   0.00024  -0.00026  -0.00002   2.07185
   R13        2.77165   0.00052  -0.00025  -0.00097  -0.00122   2.77043
   R14        2.06993   0.00000  -0.00022   0.00101   0.00079   2.07072
   R15        2.07693   0.00005   0.00061  -0.00078  -0.00017   2.07677
   R16        2.76357   0.00061   0.00166  -0.00192  -0.00026   2.76331
   R17        1.92445  -0.00005  -0.00009   0.00009   0.00000   1.92446
   R18        2.08315   0.00024   0.00203  -0.00177   0.00026   2.08341
   R19        2.06896   0.00004   0.00006  -0.00036  -0.00030   2.06866
   R20        2.07085   0.00001   0.00026   0.00064   0.00090   2.07175
    A1        1.90840   0.00007   0.00031   0.00128   0.00155   1.90995
    A2        1.92637  -0.00015  -0.00306   0.00273  -0.00031   1.92606
    A3        1.98647   0.00037   0.00484  -0.00470   0.00012   1.98659
    A4        1.87480  -0.00003   0.00095  -0.00112  -0.00018   1.87462
    A5        1.88593  -0.00005   0.00066   0.00113   0.00173   1.88766
    A6        1.87821  -0.00023  -0.00377   0.00079  -0.00295   1.87525
    A7        1.98274   0.00027   0.00202  -0.00234  -0.00032   1.98242
    A8        1.88523  -0.00013  -0.00104   0.00363   0.00260   1.88783
    A9        1.88190  -0.00011  -0.00182   0.00530   0.00348   1.88538
   A10        1.97708  -0.00013  -0.00367  -0.00027  -0.00395   1.97314
   A11        1.95341   0.00024   0.00417  -0.00387   0.00027   1.95368
   A12        1.87171  -0.00001  -0.00089   0.00229   0.00139   1.87310
   A13        1.89963  -0.00016  -0.00151   0.00095  -0.00054   1.89909
   A14        1.89635   0.00003   0.00100   0.00126   0.00224   1.89859
   A15        1.86113   0.00004   0.00120  -0.00020   0.00099   1.86212
   A16        1.97989   0.00014   0.00171  -0.00505  -0.00334   1.97654
   A17        1.88153  -0.00004  -0.00018   0.00358   0.00342   1.88495
   A18        1.91971  -0.00004   0.00027  -0.00366  -0.00340   1.91632
   A19        1.90106  -0.00003  -0.00061   0.00376   0.00315   1.90421
   A20        1.92444  -0.00004  -0.00094   0.00143   0.00047   1.92491
   A21        1.85221  -0.00000  -0.00037   0.00044   0.00007   1.85228
   A22        2.02609   0.00072   0.00659   0.00380   0.01036   2.03645
   A23        1.91418  -0.00035  -0.00349  -0.00335  -0.00678   1.90740
   A24        1.89271  -0.00006  -0.00054   0.00083   0.00015   1.89286
   A25        1.88517  -0.00032  -0.00459   0.00385  -0.00065   1.88452
   A26        1.88122  -0.00003   0.00142  -0.00407  -0.00276   1.87846
   A27        1.85716  -0.00001   0.00038  -0.00153  -0.00116   1.85600
   A28        1.99486   0.00042   0.00383   0.00101   0.00484   1.99969
   A29        1.89900  -0.00016  -0.00231   0.00391   0.00160   1.90060
   A30        1.89880  -0.00017  -0.00205   0.00464   0.00258   1.90139
   A31        2.01058   0.00055   0.00682  -0.00245   0.00436   2.01494
   A32        1.90813   0.00013   0.00023  -0.00084  -0.00067   1.90746
   A33        1.90613  -0.00020  -0.00467   0.00345  -0.00120   1.90493
   A34        1.87749  -0.00014   0.00008   0.00083   0.00081   1.87830
   A35        1.87755  -0.00029  -0.00347   0.00059  -0.00282   1.87473
   A36        1.87965  -0.00009   0.00086  -0.00161  -0.00078   1.87887
    D1       -3.03978   0.00009   0.00322   0.02368   0.02688  -3.01291
    D2       -0.95302   0.00003   0.00149   0.03138   0.03285  -0.92017
    D3        1.18470   0.00017   0.00370   0.02265   0.02634   1.21103
    D4       -3.01173   0.00011   0.00197   0.03035   0.03231  -2.97941
    D5       -0.92914   0.00031   0.00738   0.02290   0.03031  -0.89883
    D6        1.15762   0.00026   0.00565   0.03060   0.03629   1.19391
    D7       -1.26642  -0.00032  -0.00847  -0.06995  -0.07839  -1.34481
    D8        0.88926  -0.00044  -0.00997  -0.07192  -0.08191   0.80735
    D9        2.92459  -0.00027  -0.00681  -0.07290  -0.07972   2.84487
   D10        2.92811  -0.00026  -0.00719  -0.07670  -0.08386   2.84425
   D11       -1.19939  -0.00038  -0.00869  -0.07867  -0.08738  -1.28678
   D12        0.83593  -0.00021  -0.00553  -0.07965  -0.08519   0.75074
   D13       -1.03741  -0.00004  -0.00081  -0.04955  -0.05034  -1.08775
   D14        3.13925  -0.00006  -0.00099  -0.05359  -0.05457   3.08468
   D15        1.12704  -0.00002  -0.00059  -0.05417  -0.05475   1.07230
   D16        3.06085  -0.00014  -0.00242  -0.04502  -0.04746   3.01340
   D17        0.95433  -0.00016  -0.00260  -0.04907  -0.05168   0.90265
   D18       -1.05788  -0.00012  -0.00220  -0.04965  -0.05186  -1.10974
   D19        1.04065  -0.00011  -0.00358  -0.04598  -0.04956   0.99109
   D20       -1.06588  -0.00013  -0.00376  -0.05002  -0.05378  -1.11966
   D21       -3.07809  -0.00009  -0.00336  -0.05061  -0.05396  -3.13205
   D22       -3.06692  -0.00028  -0.00460  -0.02876  -0.03339  -3.10031
   D23        1.07421  -0.00010  -0.00066  -0.03400  -0.03464   1.03956
   D24       -0.94715   0.00013   0.00114  -0.03083  -0.02968  -0.97683
   D25       -0.97145  -0.00026  -0.00415  -0.02485  -0.02902  -1.00048
   D26       -3.11351  -0.00008  -0.00021  -0.03009  -0.03028   3.13939
   D27        1.14832   0.00015   0.00159  -0.02692  -0.02532   1.12300
   D28        1.05439  -0.00030  -0.00549  -0.02133  -0.02684   1.02755
   D29       -1.08767  -0.00012  -0.00155  -0.02658  -0.02810  -1.11577
   D30       -3.10902   0.00011   0.00025  -0.02340  -0.02314  -3.13217
   D31       -1.23186   0.00049   0.01069   0.05127   0.06200  -1.16986
   D32        0.89415   0.00044   0.00898   0.06084   0.06987   0.96402
   D33        0.92535   0.00028   0.00727   0.05265   0.05992   0.98527
   D34        3.05136   0.00023   0.00556   0.06223   0.06779   3.11915
   D35        2.92545   0.00010   0.00615   0.05075   0.05686   2.98231
   D36       -1.23172   0.00005   0.00444   0.06033   0.06473  -1.16700
   D37        1.07557  -0.00035  -0.00754  -0.02670  -0.03430   1.04127
   D38       -3.09158  -0.00005  -0.00278  -0.02796  -0.03071  -3.12229
   D39       -1.03901  -0.00020  -0.00436  -0.02840  -0.03273  -1.07173
   D40       -1.05054  -0.00030  -0.00569  -0.03588  -0.04163  -1.09218
   D41        1.06549  -0.00000  -0.00093  -0.03714  -0.03804   1.02745
   D42        3.11806  -0.00016  -0.00251  -0.03758  -0.04006   3.07801
         Item               Value     Threshold  Converged?
 Maximum Force            0.000719     0.000450     NO 
 RMS     Force            0.000230     0.000300     YES
 Maximum Displacement     0.201866     0.001800     NO 
 RMS     Displacement     0.058751     0.001200     NO 
 Predicted change in Energy=-2.157903D-04
 GradGradGradGradGradGradGradGradGradGradGradGradGradGradGradGradGradGrad

                          Input orientation:                          
 ---------------------------------------------------------------------
 Center     Atomic      Atomic             Coordinates (Angstroms)
 Number     Number       Type             X           Y           Z
 ---------------------------------------------------------------------
      1          6           0       -2.143609    1.500974   -0.461953
      2          7           0       -1.817368    0.175165   -0.985205
      3          6           0       -1.545290   -0.818460    0.060693
      4          6           0       -0.151439   -0.667328    0.685274
      5          6           0        0.991655   -0.874673   -0.323310
      6          7           0        2.357201   -0.800173    0.204928
      7          6           0        2.755868    0.525841    0.675057
      8          1           0       -2.460364    2.149029   -1.284441
      9          1           0       -1.259656    1.958584   -0.006187
     10          1           0       -2.943989    1.495582    0.300036
     11          1           0       -2.608656   -0.153016   -1.532680
     12          1           0       -2.302733   -0.788101    0.866883
     13          1           0       -1.618741   -1.809850   -0.403546
     14          1           0       -0.058486   -1.408078    1.491407
     15          1           0       -0.063233    0.315491    1.163114
     16          1           0        0.900500   -0.138678   -1.129989
     17          1           0        0.868817   -1.861939   -0.790178
     18          1           0        2.451192   -1.464570    0.970979
     19          1           0        2.139421    0.945731    1.486953
     20          1           0        3.790529    0.487526    1.030517
     21          1           0        2.718381    1.230943   -0.163603
 ---------------------------------------------------------------------
                    Distance matrix (angstroms):
                    1          2          3          4          5
     1  C    0.000000
     2  N    1.462188   0.000000
     3  C    2.451717   1.468067   0.000000
     4  C    3.160127   2.505118   1.534849   0.000000
     5  C    3.936089   3.070973   2.566458   1.538473   0.000000
     6  N    5.098754   4.449127   3.905198   2.557665   1.466050
     7  C    5.123334   4.877903   4.548027   3.142640   2.463864
     8  H    1.093981   2.097409   3.384189   4.140384   4.688600
     9  H    1.094761   2.109527   2.792496   2.932862   3.632673
    10  H    1.105108   2.159773   2.714486   3.553157   4.636374
    11  H    2.024452   1.016645   2.027906   3.349889   3.865954
    12  H    2.651601   2.143290   1.106609   2.162321   3.503861
    13  H    3.352678   2.077995   1.097163   2.154963   2.774016
    14  H    4.077491   3.425483   2.145968   1.098727   2.163450
    15  H    2.893817   2.777041   2.167411   1.096378   2.176864
    16  H    3.521552   2.739757   2.803875   2.163614   1.095777
    17  H    4.526768   3.376895   2.764190   2.155221   1.098977
    18  H    5.653313   4.973530   4.149452   2.736953   2.037993
    19  H    4.738236   4.728797   4.327087   2.914222   2.812168
    20  H    6.202301   5.967346   5.578272   4.122134   3.394426
    21  H    4.878614   4.728924   4.735953   3.543993   2.727766
                    6          7          8          9         10
     6  N    0.000000
     7  C    1.462282   0.000000
     8  H    5.841655   5.803744   0.000000
     9  H    4.553785   4.317555   1.764058   0.000000
    10  H    5.777729   5.793911   1.780857   1.773449   0.000000
    11  H    5.300738   5.840639   2.320134   2.934082   2.487805
    12  H    4.706730   5.229979   3.644142   3.065051   2.438798
    13  H    4.147024   5.075041   4.142104   3.806302   3.630040
    14  H    2.803590   3.510990   5.111492   3.875566   4.263418
    15  H    2.832194   2.868758   3.885694   2.344877   3.230522
    16  H    2.083640   2.672483   4.068521   3.213676   4.415413
    17  H    2.081555   3.377776   5.235992   4.443134   5.196057
    18  H    1.018378   2.035223   6.501415   5.142299   6.190367
    19  H    2.176969   1.102492   5.503324   3.848255   5.249016
    20  H    2.096234   1.094689   6.869737   5.361263   6.848614
    21  H    2.095638   1.096324   5.377597   4.047100   5.687480
[...]
    20  H    0.107544   0.000000   0.000046   0.000000   0.000000   0.000001
    21  H    0.243437   0.000021   0.000901   0.000005   0.000012   0.000010
              13         14         15         16         17         18
     1  C    0.006764  -0.001049  -0.021272  -0.002761  -0.000002  -0.000018
     2  N   -0.089047   0.002033  -0.009765   0.006656  -0.001750   0.000016
     3  C    0.206789  -0.070810  -0.031115  -0.006671  -0.016130  -0.000102
     4  C   -0.056948   0.022415   0.059623  -0.065825  -0.063330  -0.057979
     5  C   -0.040897  -0.069370  -0.064753   0.185960   0.128443  -0.054464
     6  N   -0.000511  -0.037331  -0.027108  -0.059590  -0.089184  -0.118329
     7  C    0.000047  -0.001129  -0.014794  -0.013558   0.007647  -0.081060
     8  H    0.000805   0.000100   0.001993   0.000946   0.000045   0.000001
     9  H    0.002526   0.002942   0.044844   0.006627   0.000513   0.000128
    10  H    0.002532   0.000712   0.005609   0.000348   0.000041   0.000002
    11  H    0.046409   0.001594   0.004160   0.004885   0.002053   0.000016
    12  H    0.006567   0.021944   0.014169   0.001545   0.001870   0.000176
    13  H    0.766728   0.028955   0.016601   0.008452   0.029631   0.000890
    14  H    0.028955   0.898790   0.065520   0.018448   0.033048   0.055771
    15  H    0.016601   0.065520   0.812895   0.021670   0.019159   0.020105
    16  H    0.008452   0.018448   0.021670   0.711362   0.032399   0.025912
    17  H    0.029631   0.033048   0.019159   0.032399   0.796111   0.052711
    18  H    0.000890   0.055771   0.020105   0.025912   0.052711   0.904039
    19  H    0.000089   0.009615   0.043004   0.008803   0.002553   0.044159
    20  H    0.000004   0.000992   0.002812   0.003426   0.001092   0.059180
    21  H    0.000028   0.000923   0.006350   0.023015   0.002607   0.020660
              19         20         21
     1  C   -0.000491  -0.000004  -0.000174
     2  N   -0.000016   0.000001   0.000034
     3  C    0.000438   0.000018   0.000120
     4  C   -0.034254  -0.002608  -0.004530
     5  C    0.002359   0.006816  -0.010648
     6  N   -0.092727  -0.107196  -0.059401
     7  C    0.144698   0.107544   0.243437
     8  H    0.000025   0.000000   0.000021
     9  H    0.002696   0.000046   0.000901
    10  H    0.000026   0.000000   0.000005
    11  H    0.000016   0.000000   0.000012
    12  H    0.000088   0.000001   0.000010
    13  H    0.000089   0.000004   0.000028
    14  H    0.009615   0.000992   0.000923
    15  H    0.043004   0.002812   0.006350
    16  H    0.008803   0.003426   0.023015
    17  H    0.002553   0.001092   0.002607
    18  H    0.044159   0.059180   0.020660
    19  H    0.712648   0.046058   0.013647
    20  H    0.046058   0.788801   0.023225
    21  H    0.013647   0.023225   0.624275
 Mulliken charges:
               1
     1  C   -0.146760
     2  N   -0.373151
     3  C   -0.048919
     4  C   -0.109512
     5  C   -0.026256
     6  N   -0.288663
     7  C   -0.156802
     8  H    0.066370
     9  H    0.061567
    10  H    0.089367
    11  H    0.158077
    12  H    0.106458
    13  H    0.063588
    14  H    0.015887
    15  H    0.030294
    16  H    0.087952
    17  H    0.060475
    18  H    0.128189
    19  H    0.096565
    20  H    0.069791
    21  H    0.115483
 Sum of Mulliken charges =  -0.00000
 Mulliken charges with hydrogens summed into heavy atoms:
               1
     1  C    0.070544
     2  N   -0.215075
     3  C    0.121127
     4  C   -0.063331
     5  C    0.122171
     6  N   -0.160474
     7  C    0.125038
 Electronic spatial extent (au):  <R**2>=           1198.0453
 Charge=             -0.0000 electrons
 Dipole moment (field-independent basis, Debye):
    X=             -0.0174    Y=             -0.0622    Z=              0.4027  Tot=              0.4079
 Quadrupole moment (field-independent basis, Debye-Ang):
   XX=            -45.6116   YY=            -48.3646   ZZ=            -49.8463
   XY=              2.4330   XZ=             -0.3871   YZ=              0.2950
 Traceless Quadrupole moment (field-independent basis, Debye-Ang):
   XX=              2.3292   YY=             -0.4238   ZZ=             -1.9054
   XY=              2.4330   XZ=             -0.3871   YZ=              0.2950
 Octapole moment (field-independent basis, Debye-Ang**2):
  XXX=             -5.5376  YYY=              2.9664  ZZZ=             -2.6310  XYY=              0.3206
  XXY=              0.7133  XXZ=              3.0599  XZZ=             -1.4190  YZZ=              0.1659
  YYZ=             -1.7377  XYZ=             -0.5363
 Hexadecapole moment (field-independent basis, Debye-Ang**3):
 XXXX=          -1206.1901 YYYY=           -320.3754 ZZZZ=           -157.6249 XXXY=             11.9364
 XXXZ=              6.4035 YYYX=              7.3135 YYYZ=              1.6309 ZZZX=             -4.8516
 ZZZY=              0.9198 XXYY=           -247.4545 XXZZ=           -229.2432 YYZZ=            -78.7860
 XXYZ=              1.0269 YYXZ=             -1.9641 ZZXY=              3.5933
 N-N= 3.254720224526D+02 E-N=-1.364420524886D+03  KE= 3.055395385531D+02
 Evaluate density.
 Using the total density.
 Monte-Carlo method of calculating molar volume:
 based on  0.001 e/bohr**3 density envelope.
 Number of points per bohr**3 =   20 CutOff= 1.00D-04
 Using the CI density.
 There are       362 points.  Will hold       362 in memory.
 LenV=   805210770 MDV=   805306368.
 Box volume = 5966.185 fraction occupied=0.204
 Integrated density= 4.2785340286285845D+01 error=-1.5214659713714155D+01
 Molar volume = 1219.607 bohr**3/mol (108.836 cm**3/mol)
 Recommended a0 for SCRF calculation =  4.36 angstrom (  8.24 bohr)
 ******************************Gaussian NBO Version 3.1******************************
             N A T U R A L   A T O M I C   O R B I T A L   A N D
          N A T U R A L   B O N D   O R B I T A L   A N A L Y S I S
 ******************************Gaussian NBO Version 3.1******************************
       /RESON  / : Allow strongly delocalized NBO set

 Analyzing the CI density

 Job title: UQUPIHHYKUEXQD-UHFFFAOYSA-N_conf_0                              

 Storage needed:     93394 in NPA ( 805303953 available)
 GSVD:  LWork=       15841 too small for GESVD, short by       12971 words or       12971 for optimal perf.


 NATURAL POPULATIONS:  Natural atomic orbital occupancies 
                                                          
   NAO  Atom  No  lang   Type(AO)    Occupancy
 --------------------------------------------
     1    C    1  S      Cor( 1S)     1.99948
     2    C    1  S      Val( 2S)     1.11086
     3    C    1  S      Ryd( 3S)     0.00147
     4    C    1  S      Ryd( 4S)     0.00003
     5    C    1  px     Val( 2p)     1.20849
     6    C    1  px     Ryd( 3p)     0.00136
     7    C    1  py     Val( 2p)     1.01385
     8    C    1  py     Ryd( 3p)     0.00702
     9    C    1  pz     Val( 2p)     1.17262
    10    C    1  pz     Ryd( 3p)     0.00349
    11    C    1  dxy    Ryd( 3d)     0.00099
    12    C    1  dxz    Ryd( 3d)     0.00102
    13    C    1  dyz    Ryd( 3d)     0.00108
    14    C    1  dx2y2  Ryd( 3d)     0.00068
    15    C    1  dz2    Ryd( 3d)     0.00049

    16    N    2  S      Cor( 1S)     1.99949
    17    N    2  S      Val( 2S)     1.37688
    18    N    2  S      Ryd( 3S)     0.00176
    19    N    2  S      Ryd( 4S)     0.00012
    20    N    2  px     Val( 2p)     1.44016
    21    N    2  px     Ryd( 3p)     0.00362
    22    N    2  py     Val( 2p)     1.26861
    23    N    2  py     Ryd( 3p)     0.00183
    24    N    2  pz     Val( 2p)     1.43579
    25    N    2  pz     Ryd( 3p)     0.00265
    26    N    2  dxy    Ryd( 3d)     0.00084
    27    N    2  dxz    Ryd( 3d)     0.00080
    28    N    2  dyz    Ryd( 3d)     0.00091
    29    N    2  dx2y2  Ryd( 3d)     0.00067
    30    N    2  dz2    Ryd( 3d)     0.00075

    31    C    3  S      Cor( 1S)     1.99931
    32    C    3  S      Val( 2S)     1.02990
    33    C    3  S      Ryd( 3S)     0.00179
    34    C    3  S      Ryd( 4S)     0.00004
    35    C    3  px     Val( 2p)     1.03804
    36    C    3  px     Ryd( 3p)     0.00210
    37    C    3  py     Val( 2p)     1.09093
    38    C    3  py     Ryd( 3p)     0.00330
    39    C    3  pz     Val( 2p)     1.11114
    40    C    3  pz     Ryd( 3p)     0.00532
    41    C    3  dxy    Ryd( 3d)     0.00070
    42    C    3  dxz    Ryd( 3d)     0.00098
    43    C    3  dyz    Ryd( 3d)     0.00118
    44    C    3  dx2y2  Ryd( 3d)     0.00100
    45    C    3  dz2    Ryd( 3d)     0.00075

    46    C    4  S      Cor( 1S)     1.99928
    47    C    4  S      Val( 2S)     1.07002
    48    C    4  S      Ryd( 3S)     0.00120
    49    C    4  S      Ryd( 4S)     0.00005
    50    C    4  px     Val( 2p)     1.01247
    51    C    4  px     Ryd( 3p)     0.00275
    52    C    4  py     Val( 2p)     1.24906
    53    C    4  py     Ryd( 3p)     0.00369
    54    C    4  pz     Val( 2p)     1.14371
    55    C    4  pz     Ryd( 3p)     0.00434
    56    C    4  dxy    Ryd( 3d)     0.00035
    57    C    4  dxz    Ryd( 3d)     0.00069
    58    C    4  dyz    Ryd( 3d)     0.00088
    59    C    4  dx2y2  Ryd( 3d)     0.00075
    60    C    4  dz2    Ryd( 3d)     0.00033

    61    C    5  S      Cor( 1S)     1.99933
    62    C    5  S      Val( 2S)     1.04086
    63    C    5  S      Ryd( 3S)     0.00182
    64    C    5  S      Ryd( 4S)     0.00005
    65    C    5  px     Val( 2p)     0.86461
    66    C    5  px     Ryd( 3p)     0.00590
    67    C    5  py     Val( 2p)     1.24680
    68    C    5  py     Ryd( 3p)     0.00475
    69    C    5  pz     Val( 2p)     1.13866
    70    C    5  pz     Ryd( 3p)     0.00439
    71    C    5  dxy    Ryd( 3d)     0.00060
    72    C    5  dxz    Ryd( 3d)     0.00089
    73    C    5  dyz    Ryd( 3d)     0.00098
    74    C    5  dx2y2  Ryd( 3d)     0.00139
    75    C    5  dz2    Ryd( 3d)     0.00064

    76    N    6  S      Cor( 1S)     1.99946
    77    N    6  S      Val( 2S)     1.37017
    78    N    6  S      Ryd( 3S)     0.00299
    79    N    6  S      Ryd( 4S)     0.00008
    80    N    6  px     Val( 2p)     1.29730
    81    N    6  px     Ryd( 3p)     0.00122
    82    N    6  py     Val( 2p)     1.30374
    83    N    6  py     Ryd( 3p)     0.00084
    84    N    6  pz     Val( 2p)     1.39442
    85    N    6  pz     Ryd( 3p)     0.00445
    86    N    6  dxy    Ryd( 3d)     0.00051
    87    N    6  dxz    Ryd( 3d)     0.00056
    88    N    6  dyz    Ryd( 3d)     0.00102
    89    N    6  dx2y2  Ryd( 3d)     0.00081
    90    N    6  dz2    Ryd( 3d)     0.00062

    91    C    7  S      Cor( 1S)     1.99946
    92    C    7  S      Val( 2S)     1.11787
    93    C    7  S      Ryd( 3S)     0.00147
    94    C    7  S      Ryd( 4S)     0.00002
    95    C    7  px     Val( 2p)     1.24572
    96    C    7  px     Ryd( 3p)     0.00311
    97    C    7  py     Val( 2p)     0.93303
    98    C    7  py     Ryd( 3p)     0.00698
    99    C    7  pz     Val( 2p)     1.22543
   100    C    7  pz     Ryd( 3p)     0.00117
   101    C    7  dxy    Ryd( 3d)     0.00053
   102    C    7  dxz    Ryd( 3d)     0.00049
   103    C    7  dyz    Ryd( 3d)     0.00105
   104    C    7  dx2y2  Ryd( 3d)     0.00133
   105    C    7  dz2    Ryd( 3d)     0.00066

   106    H    8  S      Val( 1S)     0.78569
   107    H    8  S      Ryd( 2S)     0.01509
   108    H    8  px     Ryd( 2p)     0.00015
   109    H    8  py     Ryd( 2p)     0.00017
   110    H    8  pz     Ryd( 2p)     0.00017

   111    H    9  S      Val( 1S)     0.79074
   112    H    9  S      Ryd( 2S)     0.02328
   113    H    9  px     Ryd( 2p)     0.00026
   114    H    9  py     Ryd( 2p)     0.00017
   115    H    9  pz     Ryd( 2p)     0.00010

   116    H   10  S      Val( 1S)     0.77942
   117    H   10  S      Ryd( 2S)     0.01107
   118    H   10  px     Ryd( 2p)     0.00018
   119    H   10  py     Ryd( 2p)     0.00008
   120    H   10  pz     Ryd( 2p)     0.00026

   121    H   11  S      Val( 1S)     0.64377
   122    H   11  S      Ryd( 2S)     0.04401
   123    H   11  px     Ryd( 2p)     0.00057
   124    H   11  py     Ryd( 2p)     0.00033
   125    H   11  pz     Ryd( 2p)     0.00039

   126    H   12  S      Val( 1S)     0.74954
   127    H   12  S      Ryd( 2S)     0.01171
   128    H   12  px     Ryd( 2p)     0.00018
   129    H   12  py     Ryd( 2p)     0.00009
   130    H   12  pz     Ryd( 2p)     0.00029

   131    H   13  S      Val( 1S)     0.77611
   132    H   13  S      Ryd( 2S)     0.01986
   133    H   13  px     Ryd( 2p)     0.00009
   134    H   13  py     Ryd( 2p)     0.00032
   135    H   13  pz     Ryd( 2p)     0.00013

   136    H   14  S      Val( 1S)     0.78804
   137    H   14  S      Ryd( 2S)     0.03115
   138    H   14  px     Ryd( 2p)     0.00013
   139    H   14  py     Ryd( 2p)     0.00019
   140    H   14  pz     Ryd( 2p)     0.00022

   141    H   15  S      Val( 1S)     0.78277
   142    H   15  S      Ryd( 2S)     0.03371
   143    H   15  px     Ryd( 2p)     0.00008
   144    H   15  py     Ryd( 2p)     0.00031
   145    H   15  pz     Ryd( 2p)     0.00015

   146    H   16  S      Val( 1S)     0.76117
   147    H   16  S      Ryd( 2S)     0.01782
   148    H   16  px     Ryd( 2p)     0.00013
   149    H   16  py     Ryd( 2p)     0.00019
   150    H   16  pz     Ryd( 2p)     0.00023

   151    H   17  S      Val( 1S)     0.76967
   152    H   17  S      Ryd( 2S)     0.02273
   153    H   17  px     Ryd( 2p)     0.00006
   154    H   17  py     Ryd( 2p)     0.00032
   155    H   17  pz     Ryd( 2p)     0.00016

   156    H   18  S      Val( 1S)     0.64935
   157    H   18  S      Ryd( 2S)     0.06440
   158    H   18  px     Ryd( 2p)     0.00029
   159    H   18  py     Ryd( 2p)     0.00039
   160    H   18  pz     Ryd( 2p)     0.00054

   161    H   19  S      Val( 1S)     0.76525
   162    H   19  S      Ryd( 2S)     0.02085
   163    H   19  px     Ryd( 2p)     0.00015
   164    H   19  py     Ryd( 2p)     0.00009
   165    H   19  pz     Ryd( 2p)     0.00027

   166    H   20  S      Val( 1S)     0.78108
   167    H   20  S      Ryd( 2S)     0.01947
   168    H   20  px     Ryd( 2p)     0.00035
   169    H   20  py     Ryd( 2p)     0.00006
   170    H   20  pz     Ryd( 2p)     0.00008

   171    H   21  S      Val( 1S)     0.76026
   172    H   21  S      Ryd( 2S)     0.01114
   173    H   21  px     Ryd( 2p)     0.00010
   174    H   21  py     Ryd( 2p)     0.00019
   175    H   21  pz     Ryd( 2p)     0.00023


 Summary of Natural Population Analysis:                  
                                                          
                                       Natural Population 
                Natural  -----------------------------------------------
    Atom  No    Charge         Core      Valence    Rydberg      Total
 -----------------------------------------------------------------------
      C    1   -0.52293      1.99948     4.50582    0.01763     6.52293
      N    2   -0.53487      1.99949     5.52143    0.01395     7.53487
      C    3   -0.28648      1.99931     4.27002    0.01715     6.28648
      C    4   -0.48958      1.99928     4.47527    0.01503     6.48958
      C    5   -0.31165      1.99933     4.29093    0.02140     6.31165
      N    6   -0.37820      1.99946     5.36562    0.01311     7.37820
      C    7   -0.53831      1.99946     4.52204    0.01681     6.53831
      H    8    0.19872      0.00000     0.78569    0.01559     0.80128
      H    9    0.18545      0.00000     0.79074    0.02381     0.81455
      H   10    0.20899      0.00000     0.77942    0.01159     0.79101
      H   11    0.31093      0.00000     0.64377    0.04530     0.68907
      H   12    0.23819      0.00000     0.74954    0.01226     0.76181
      H   13    0.20349      0.00000     0.77611    0.02040     0.79651
      H   14    0.18027      0.00000     0.78804    0.03170     0.81973
      H   15    0.18298      0.00000     0.78277    0.03425     0.81702
      H   16    0.22046      0.00000     0.76117    0.01837     0.77954
      H   17    0.20706      0.00000     0.76967    0.02327     0.79294
      H   18    0.28502      0.00000     0.64935    0.06563     0.71498
      H   19    0.21338      0.00000     0.76525    0.02137     0.78662
      H   20    0.19897      0.00000     0.78108    0.01995     0.80103
      H   21    0.22808      0.00000     0.76026    0.01166     0.77192
 =======================================================================
   * Total *   -0.00000     13.99581    43.53397    0.47022    58.00000

                                 Natural Population      
 --------------------------------------------------------
   Core                      13.99581 ( 99.9701% of  14)
   Valence                   43.53397 ( 98.9408% of  44)
   Natural Minimal Basis     57.52978 ( 99.1893% of  58)
   Natural Rydberg Basis      0.47022 (  0.8107% of  58)
 --------------------------------------------------------

    Atom  No          Natural Electron Configuration
 ----------------------------------------------------------------------------
      C    1      [core]2S( 1.11)2p( 3.39)3p( 0.01)
      N    2      [core]2S( 1.38)2p( 4.14)3p( 0.01)
      C    3      [core]2S( 1.03)2p( 3.24)3p( 0.01)
      C    4      [core]2S( 1.07)2p( 3.41)3p( 0.01)
      C    5      [core]2S( 1.04)2p( 3.25)3p( 0.02)
      N    6      [core]2S( 1.37)2p( 4.00)3p( 0.01)
      C    7      [core]2S( 1.12)2p( 3.40)3p( 0.01)
      H    8            1S( 0.79)2S( 0.02)
      H    9            1S( 0.79)2S( 0.02)
      H   10            1S( 0.78)2S( 0.01)
      H   11            1S( 0.64)2S( 0.04)
      H   12            1S( 0.75)2S( 0.01)
      H   13            1S( 0.78)2S( 0.02)
      H   14            1S( 0.79)2S( 0.03)
      H   15            1S( 0.78)2S( 0.03)
      H   16            1S( 0.76)2S( 0.02)
      H   17            1S( 0.77)2S( 0.02)
      H   18            1S( 0.65)2S( 0.06)
      H   19            1S( 0.77)2S( 0.02)
      H   20            1S( 0.78)2S( 0.02)
      H   21            1S( 0.76)2S( 0.01)


 NBO analysis skipped by request.
 1\1\GINC-CN33\SP\RB3LYP TD-FC\6-31G(d,p)\C5H14N2\QDUEZ\11-Jul-2024\0\\
 # TD(NStates=10, Root=1) B3LYP/6-31G** SCRF=(Solvent=water) volume pop
 =NPA density=current Geom=AllCheck Guess=Read\\UQUPIHHYKUEXQD-UHFFFAOY
 SA-N_conf_0\\0,1\C,0,-2.1543500779,1.5117723084,-0.4338352689\N,0,-1.7
 972630215,0.2040759755,-0.981863989\C,0,-1.5403262657,-0.8146276235,0.
 0442281709\C,0,-0.1522825289,-0.680238966,0.6857398489\C,0,0.998674771
 8,-0.9080307232,-0.3094288165\N,0,2.3607113046,-0.8085291577,0.2251726
 784\C,0,2.7520642879,0.535696685,0.6478836599\H,0,-2.4485338601,2.1800
 327902,-1.2485894702\H,0,-1.291418208,1.9642454445,0.0653743647\H,0,-2
 .9805723999,1.4782382679,0.2991478939\H,0,-2.5678842103,-0.1179468727,
 -1.5612214855\H,0,-2.3066347615,-0.7990339985,0.8418123169\H,0,-1.6121
 609629,-1.7958648973,-0.4414698067\H,0,-0.0776713228,-1.4167386735,1.4
 975074099\H,0,-0.0570789224,0.3050378482,1.1573655209\H,0,0.9068806515
 ,-0.1940205484,-1.1358573969\H,0,0.8854045261,-1.9083751042,-0.7500226
 473\H,0,2.4506828773,-1.4421835201,1.0171881046\H,0,2.1226399429,0.987
 1213761,1.4325517499\H,0,3.7807923655,0.5120793832,1.0213252852\H,0,2.
 728325814,1.2072900058,-0.2182600689\\Version=EM64L-G16RevA.03\State=1
 -A\HF=-308.4665626\RMSD=6.313e-10\Dipole=-0.0417621,-0.0152255,0.15418
 81\Quadrupole=2.2473141,-0.8275016,-1.4198125,1.2871022,0.4206465,0.49
 63604\PG=C01 [X(C5H14N2)]\\@


 A MATHEMATICIAN IS A MACHINE FOR TURNING COFFEE INTO THEOREMS.
     -- QUOTED BY PAUL ERDOS
 Job cpu time:       0 days  0 hours 43 minutes 23.9 seconds.
 Elapsed time:       0 days  0 hours 21 minutes 49.0 seconds.
 File lengths (MBytes):  RWF=    307 Int=      0 D2E=      0 Chk=     19 Scr=      1
 Normal termination of Gaussian 16 at Thu Jul 11 19:41:48 2024.
