 Entering Gaussian System, Link 0=g16
 Initial command:
 /opt/sw/arch/manual/gaussian/G16_A03/g16/l1.exe "/scratch/1032106.jesse.materianova.be/Gau-36056.inp" -scrdir="/scratch/1032106.jesse.materianova.be/"
 Entering Link 1 = /opt/sw/arch/manual/gaussian/G16_A03/g16/l1.exe PID=     36057.
  
 Copyright (c) 1988,1990,1992,1993,1995,1998,2003,2009,2016,
            Gaussian, Inc.  All Rights Reserved.
  
 This is part of the Gaussian(R) 16 program.  It is based on
 the Gaussian(R) 09 system (copyright 2009, Gaussian, Inc.),
 the Gaussian(R) 03 system (copyright 2003, Gaussian, Inc.),
 the Gaussian(R) 98 system (copyright 1998, Gaussian, Inc.),
 the Gaussian(R) 94 system (copyright 1995, Gaussian, Inc.),
 the Gaussian 92(TM) system (copyright 1992, Gaussian, Inc.),
 the Gaussian 90(TM) system (copyright 1990, Gaussian, Inc.),
 the Gaussian 88(TM) system (copyright 1988, Gaussian, Inc.),
 the Gaussian 86(TM) system (copyright 1986, Carnegie Mellon
 University), and the Gaussian 82(TM) system (copyright 1983,
 Carnegie Mellon University). Gaussian is a federally registered
 trademark of Gaussian, Inc.
  
 This software contains proprietary and confidential information,
 including trade secrets, belonging to Gaussian, Inc.
  
 This software is provided under written license and may be
 used, copied, transmitted, or stored only in accord with that
 written license.
  
 The following legend is applicable only to US Government
 contracts under FAR:
  
                    RESTRICTED RIGHTS LEGEND
  
 Use, reproduction and disclosure by the US Government is
 subject to restrictions as set forth in subparagraphs (a)
 and (c) of the Commercial Computer Software - Restricted
 Rights clause in FAR 52.227-19.
  
 Gaussian, Inc.
 340 Quinnipiac St., Bldg. 40, Wallingford CT 06492
  
  
 ---------------------------------------------------------------
 Warning -- This program may not be used in any manner that
 competes with the business of Gaussian, Inc. or will provide
 assistance to any competitor of Gaussian, Inc.  The licensee
 of this program is prohibited from giving any competitor of
 Gaussian, Inc. access to this program.  By using this program,
 the user acknowledges that Gaussian, Inc. is engaged in the
 business of creating and licensing software in the field of
 computational chemistry and represents and warrants to the
 licensee that it is not a competitor of Gaussian, Inc. and that
 it will not use this program in any manner prohibited above.
 ---------------------------------------------------------------
  

 Cite this work as:
 Gaussian 16, Revision A.03,
 M. J. Frisch, G. W. Trucks, H. B. Schlegel, G. E. Scuseria, 
 M. A. Robb, J. R. Cheeseman, G. Scalmani, V. Barone, 
 G. A. Petersson, H. Nakatsuji, X. Li, M. Caricato, A. V. Marenich, 
 J. Bloino, B. G. Janesko, R. Gomperts, B. Mennucci, H. P. Hratchian, 
 J. V. Ortiz, A. F. Izmaylov, J. L. Sonnenberg, D. Williams-Young, 
 F. Ding, F. Lipparini, F. Egidi, J. Goings, B. Peng, A. Petrone, 
 T. Henderson, D. Ranasinghe, V. G. Zakrzewski, J. Gao, N. Rega, 
 G. Zheng, W. Liang, M. Hada, M. Ehara, K. Toyota, R. Fukuda, 
 J. Hasegawa, M. Ishida, T. Nakajima, Y. Honda, O. Kitao, H. Nakai, 
 T. Vreven, K. Throssell, J. A. Montgomery, Jr., J. E. Peralta, 
 F. Ogliaro, M. J. Bearpark, J. J. Heyd, E. N. Brothers, K. N. Kudin, 
 V. N. Staroverov, T. A. Keith, R. Kobayashi, J. Normand, 
 K. Raghavachari, A. P. Rendell, J. C. Burant, S. S. Iyengar, 
 J. Tomasi, M. Cossi, J. M. Millam, M. Klene, C. Adamo, R. Cammi, 
 J. W. Ochterski, R. L. Martin, K. Morokuma, O. Farkas, 
 J. B. Foresman, and D. J. Fox, Gaussian, Inc., Wallingford CT, 2016.
 
 ******************************************
 Gaussian 16:  EM64L-G16RevA.03 25-Dec-2016
                11-Jul-2024 
 ******************************************
 %nprocshared=3
 Will use up to    3 processors via shared memory.
 %mem=6GB
 %Chk=UQUPIHHYKUEXQD-UHFFFAOYSA-N_conf_2_0.chk
 -------------------------------------------------------
 # opt=CalcFc B3LYP/6-31G** SCRF=(Solvent=water) scf=xqc
 -------------------------------------------------------
 1/10=4,18=20,19=15,26=3,38=1/1,3;
 2/9=110,12=2,17=6,18=5,40=1/2;
 3/5=1,6=6,7=101,11=2,25=1,30=1,70=2201,71=2,72=1,74=-5,140=1/1,2,3;
 4//1;
 5/5=2,8=3,13=1,38=5,53=1/2,8;
 8/6=4,10=90,11=11/1;
 11/6=1,8=1,9=11,15=111,16=1/1,2,10;
 10/6=1,13=1/2;
 6/7=2,8=2,9=2,10=2,28=1/1;
 7/10=1,18=20,25=1/1,2,3,16;
 1/10=4,18=20,19=15,26=3/3(2);
 2/9=110/2;
 99//99;
 2/9=110/2;
 3/5=1,6=6,7=101,11=2,25=1,30=1,70=2205,71=1,72=1,74=-5/1,2,3;
 4/5=5,16=3,69=1/1;
 5/5=2,8=3,13=1,38=5,53=1/2,8;
 7//1,2,3,16;
 1/18=20,19=15,26=3/3(-5);
 2/9=110/2;
 6/7=2,8=2,9=2,10=2,19=2,28=1/1;
 99/9=1/99;
 ----------------------------------
 UQUPIHHYKUEXQD-UHFFFAOYSA-N_conf_2
 ----------------------------------
 Symbolic Z-matrix:
 Charge =  0 Multiplicity = 1
 C                     3.55001   0.02694  -0.17684 
 N                     2.25648   0.46839   0.32542 
 C                     1.17956  -0.40166  -0.14955 
 C                    -0.1719    0.10609   0.36217 
 C                    -1.30825  -0.80108  -0.12129 
 N                    -2.62052  -0.42352   0.41112 
 C                    -3.12754   0.81558  -0.16423 
 H                     3.78101  -0.98818   0.1619 
 H                     4.33428   0.68768   0.2053 
 H                     3.58755   0.05714  -1.27062 
 H                     2.08343   1.42667   0.02312 
 H                     1.16785  -0.42441  -1.24607 
 H                     1.34359  -1.42462   0.2096 
 H                    -0.16527   0.13591   1.45935 
 H                    -0.32803   1.13229   0.00905 
 H                    -1.10155  -1.82441   0.215 
 H                    -1.33645  -0.83447  -1.21736 
 H                    -3.28357  -1.17119   0.20552 
 H                    -4.13962   0.99879   0.21079 
 H                    -3.18163   0.76072  -1.25628 
 H                    -2.51942   1.67735   0.12489 
 

 GradGradGradGradGradGradGradGradGradGradGradGradGradGradGradGradGradGrad
 Berny optimization.
 Initialization pass.
                           ----------------------------
                           !    Initial Parameters    !
                           ! (Angstroms and Degrees)  !
 --------------------------                            --------------------------
 ! Name  Definition              Value          Derivative Info.                !
 --------------------------------------------------------------------------------
 ! R1    R(1,2)                  1.4561         calculate D2E/DX2 analytically  !
 ! R2    R(1,8)                  1.0948         calculate D2E/DX2 analytically  !
 ! R3    R(1,9)                  1.0944         calculate D2E/DX2 analytically  !
 ! R4    R(1,10)                 1.0948         calculate D2E/DX2 analytically  !
 ! R5    R(2,3)                  1.4637         calculate D2E/DX2 analytically  !
 ! R6    R(2,11)                 1.0196         calculate D2E/DX2 analytically  !
 ! R7    R(3,4)                  1.5317         calculate D2E/DX2 analytically  !
 ! R8    R(3,12)                 1.0968         calculate D2E/DX2 analytically  !
 ! R9    R(3,13)                 1.0965         calculate D2E/DX2 analytically  !
 ! R10   R(4,5)                  1.5323         calculate D2E/DX2 analytically  !
 ! R11   R(4,14)                 1.0976         calculate D2E/DX2 analytically  !
 ! R12   R(4,15)                 1.0964         calculate D2E/DX2 analytically  !
 ! R13   R(5,6)                  1.4656         calculate D2E/DX2 analytically  !
 ! R14   R(5,16)                 1.0968         calculate D2E/DX2 analytically  !
 ! R15   R(5,17)                 1.0969         calculate D2E/DX2 analytically  !
 ! R16   R(6,7)                  1.4572         calculate D2E/DX2 analytically  !
 ! R17   R(6,18)                 1.0203         calculate D2E/DX2 analytically  !
 ! R18   R(7,19)                 1.0948         calculate D2E/DX2 analytically  !
 ! R19   R(7,20)                 1.0948         calculate D2E/DX2 analytically  !
 ! R20   R(7,21)                 1.0936         calculate D2E/DX2 analytically  !
 ! A1    A(2,1,8)              111.2121         calculate D2E/DX2 analytically  !
 ! A2    A(2,1,9)              109.4583         calculate D2E/DX2 analytically  !
 ! A3    A(2,1,10)             111.5114         calculate D2E/DX2 analytically  !
 ! A4    A(8,1,9)              107.4913         calculate D2E/DX2 analytically  !
 ! A5    A(8,1,10)             109.1141         calculate D2E/DX2 analytically  !
 ! A6    A(9,1,10)             107.9155         calculate D2E/DX2 analytically  !
 ! A7    A(1,2,3)              111.1901         calculate D2E/DX2 analytically  !
 ! A8    A(1,2,11)             109.4774         calculate D2E/DX2 analytically  !
 ! A9    A(3,2,11)             109.7295         calculate D2E/DX2 analytically  !
 ! A10   A(2,3,4)              110.1042         calculate D2E/DX2 analytically  !
 ! A11   A(2,3,12)             110.1571         calculate D2E/DX2 analytically  !
 ! A12   A(2,3,13)             109.7673         calculate D2E/DX2 analytically  !
 ! A13   A(4,3,12)             109.3567         calculate D2E/DX2 analytically  !
 ! A14   A(4,3,13)             109.3795         calculate D2E/DX2 analytically  !
 ! A15   A(12,3,13)            108.0409         calculate D2E/DX2 analytically  !
 ! A16   A(3,4,5)              110.6503         calculate D2E/DX2 analytically  !
 ! A17   A(3,4,14)             109.7326         calculate D2E/DX2 analytically  !
 ! A18   A(3,4,15)             109.1658         calculate D2E/DX2 analytically  !
 ! A19   A(5,4,14)             109.6304         calculate D2E/DX2 analytically  !
 ! A20   A(5,4,15)             110.2977         calculate D2E/DX2 analytically  !
 ! A21   A(14,4,15)            107.2997         calculate D2E/DX2 analytically  !
 ! A22   A(4,5,6)              113.3826         calculate D2E/DX2 analytically  !
 ! A23   A(4,5,16)             108.4134         calculate D2E/DX2 analytically  !
 ! A24   A(4,5,17)             110.631          calculate D2E/DX2 analytically  !
 ! A25   A(6,5,16)             107.32           calculate D2E/DX2 analytically  !
 ! A26   A(6,5,17)             110.3522         calculate D2E/DX2 analytically  !
 ! A27   A(16,5,17)            106.4275         calculate D2E/DX2 analytically  !
 ! A28   A(5,6,7)              112.7778         calculate D2E/DX2 analytically  !
 ! A29   A(5,6,18)             108.657          calculate D2E/DX2 analytically  !
 ! A30   A(7,6,18)             108.5092         calculate D2E/DX2 analytically  !
 ! A31   A(6,7,19)             109.1908         calculate D2E/DX2 analytically  !
 ! A32   A(6,7,20)             111.6187         calculate D2E/DX2 analytically  !
 ! A33   A(6,7,21)             111.8512         calculate D2E/DX2 analytically  !
 ! A34   A(19,7,20)            107.7226         calculate D2E/DX2 analytically  !
 ! A35   A(19,7,21)            106.9549         calculate D2E/DX2 analytically  !
 ! A36   A(20,7,21)            109.3096         calculate D2E/DX2 analytically  !
 ! D1    D(8,1,2,3)            -60.6303         calculate D2E/DX2 analytically  !
 ! D2    D(8,1,2,11)           177.9603         calculate D2E/DX2 analytically  !
 ! D3    D(9,1,2,3)           -179.2541         calculate D2E/DX2 analytically  !
 ! D4    D(9,1,2,11)            59.3365         calculate D2E/DX2 analytically  !
 ! D5    D(10,1,2,3)            61.4103         calculate D2E/DX2 analytically  !
 ! D6    D(10,1,2,11)          -59.999          calculate D2E/DX2 analytically  !
 ! D7    D(1,2,3,4)           -178.5042         calculate D2E/DX2 analytically  !
 ! D8    D(1,2,3,12)           -57.8174         calculate D2E/DX2 analytically  !
 ! D9    D(1,2,3,13)            61.0301         calculate D2E/DX2 analytically  !
 ! D10   D(11,2,3,4)           -57.2423         calculate D2E/DX2 analytically  !
 ! D11   D(11,2,3,12)           63.4445         calculate D2E/DX2 analytically  !
 ! D12   D(11,2,3,13)         -177.708          calculate D2E/DX2 analytically  !
 ! D13   D(2,3,4,5)           -179.6673         calculate D2E/DX2 analytically  !
 ! D14   D(2,3,4,14)           -58.5629         calculate D2E/DX2 analytically  !
 ! D15   D(2,3,4,15)            58.7681         calculate D2E/DX2 analytically  !
 ! D16   D(12,3,4,5)            59.1661         calculate D2E/DX2 analytically  !
 ! D17   D(12,3,4,14)         -179.7296         calculate D2E/DX2 analytically  !
 ! D18   D(12,3,4,15)          -62.3986         calculate D2E/DX2 analytically  !
 ! D19   D(13,3,4,5)           -58.9682         calculate D2E/DX2 analytically  !
 ! D20   D(13,3,4,14)           62.1362         calculate D2E/DX2 analytically  !
 ! D21   D(13,3,4,15)          179.4671         calculate D2E/DX2 analytically  !
 ! D22   D(3,4,5,6)            175.9896         calculate D2E/DX2 analytically  !
 ! D23   D(3,4,5,16)            56.9251         calculate D2E/DX2 analytically  !
 ! D24   D(3,4,5,17)           -59.4232         calculate D2E/DX2 analytically  !
 ! D25   D(14,4,5,6)            54.8247         calculate D2E/DX2 analytically  !
 ! D26   D(14,4,5,16)          -64.2397         calculate D2E/DX2 analytically  !
 ! D27   D(14,4,5,17)          179.4119         calculate D2E/DX2 analytically  !
 ! D28   D(15,4,5,6)           -63.1153         calculate D2E/DX2 analytically  !
 ! D29   D(15,4,5,16)          177.8202         calculate D2E/DX2 analytically  !
 ! D30   D(15,4,5,17)           61.4719         calculate D2E/DX2 analytically  !
 ! D31   D(4,5,6,7)             71.0755         calculate D2E/DX2 analytically  !
 ! D32   D(4,5,6,18)          -168.581          calculate D2E/DX2 analytically  !
 ! D33   D(16,5,6,7)          -169.234          calculate D2E/DX2 analytically  !
 ! D34   D(16,5,6,18)          -48.8904         calculate D2E/DX2 analytically  !
 ! D35   D(17,5,6,7)           -53.6625         calculate D2E/DX2 analytically  !
 ! D36   D(17,5,6,18)           66.6811         calculate D2E/DX2 analytically  !
 ! D37   D(5,6,7,19)           175.4436         calculate D2E/DX2 analytically  !
 ! D38   D(5,6,7,20)            56.4542         calculate D2E/DX2 analytically  !
 ! D39   D(5,6,7,21)           -66.3757         calculate D2E/DX2 analytically  !
 ! D40   D(18,6,7,19)           55.0153         calculate D2E/DX2 analytically  !
 ! D41   D(18,6,7,20)          -63.9741         calculate D2E/DX2 analytically  !
 ! D42   D(18,6,7,21)          173.196          calculate D2E/DX2 analytically  !
 --------------------------------------------------------------------------------
 Trust Radius=3.00D-01 FncErr=1.00D-07 GrdErr=1.00D-06 EigMax=2.50D+02 EigMin=1.00D-04
 Number of steps in this run=    108 maximum allowed number of steps=    126.
 GradGradGradGradGradGradGradGradGradGradGradGradGradGradGradGradGradGrad

                          Input orientation:                          
 ---------------------------------------------------------------------
 Center     Atomic      Atomic             Coordinates (Angstroms)
 Number     Number       Type             X           Y           Z
 ---------------------------------------------------------------------
      1          6           0        3.550006    0.026938   -0.176839
      2          7           0        2.256481    0.468389    0.325417
      3          6           0        1.179558   -0.401659   -0.149546
      4          6           0       -0.171904    0.106090    0.362171
      5          6           0       -1.308247   -0.801083   -0.121286
      6          7           0       -2.620516   -0.423525    0.411116
      7          6           0       -3.127536    0.815580   -0.164229
      8          1           0        3.781013   -0.988184    0.161898
      9          1           0        4.334277    0.687677    0.205304
     10          1           0        3.587551    0.057143   -1.270624
     11          1           0        2.083425    1.426673    0.023120
     12          1           0        1.167849   -0.424407   -1.246070
     13          1           0        1.343590   -1.424616    0.209602
     14          1           0       -0.165274    0.135910    1.459351
     15          1           0       -0.328029    1.132287    0.009054
     16          1           0       -1.101548   -1.824407    0.214998
     17          1           0       -1.336453   -0.834475   -1.217360
     18          1           0       -3.283566   -1.171194    0.205518
     19          1           0       -4.139623    0.998794    0.210788
     20          1           0       -3.181630    0.760720   -1.256280
     21          1           0       -2.519424    1.677348    0.124890
 ---------------------------------------------------------------------
                    Distance matrix (angstroms):
                    1          2          3          4          5
     1  C    0.000000
     2  N    1.456141   0.000000
     3  C    2.409038   1.463672   0.000000
     4  C    3.761571   2.455538   1.531703   0.000000
     5  C    4.928623   3.810301   2.519824   1.532308   0.000000
     6  N    6.214818   4.958625   3.841274   2.505711   1.465624
     7  C    6.723963   5.417373   4.475817   3.084839   2.434185
     8  H    1.094796   2.114838   2.684879   4.106470   5.100565
     9  H    1.094390   2.092785   3.356311   4.546264   5.844753
    10  H    1.094847   2.118541   2.695505   4.099015   5.101604
    11  H    2.037180   1.019627   2.046848   2.635414   4.060442
    12  H    2.649838   2.109923   1.096823   2.159353   2.745556
    13  H    2.669198   2.104817   1.096511   2.159412   2.744179
    14  H    4.061071   2.694671   2.164741   1.097605   2.163967
    15  H    4.036770   2.687107   2.156609   1.096425   2.171575
    16  H    5.021749   4.067612   2.713033   2.147723   1.096815
    17  H    5.069734   4.121504   2.767286   2.176179   1.096946
    18  H    6.948340   5.778818   4.542877   3.367259   2.036092
    19  H    7.760487   6.419082   5.512240   4.069721   3.371427
    20  H    6.857008   5.671003   4.647144   3.479421   2.690168
    21  H    6.297053   4.930625   4.252065   2.834785   2.769508
                    6          7          8          9         10
     6  N    0.000000
     7  C    1.457213   0.000000
     8  H    6.431215   7.147584   0.000000
     9  H    7.046012   7.472052   1.765360   0.000000
    10  H    6.449759   6.847753   1.783888   1.770180   0.000000
    11  H    5.069600   5.250014   2.955097   2.376055   2.410764
    12  H    4.134970   4.599812   3.021398   3.656431   2.467276
    13  H    4.093523   5.014897   2.476646   3.661422   3.069534
    14  H    2.727632   3.445715   4.303504   4.703514   4.641408
    15  H    2.799589   2.822688   4.626444   4.687568   4.257380
    16  H    2.075620   3.349324   4.953936   5.988226   5.266398
    17  H    2.114151   2.653251   5.302305   6.041365   5.004361
    18  H    1.020252   2.026901   7.067084   7.841360   7.134428
    19  H    2.090647   1.094772   8.166207   8.479611   7.924046
    20  H    2.120730   1.094766   7.317669   7.657050   6.805662
    21  H    2.122690   1.093634   6.841194   6.925253   6.470523
                   11         12         13         14         15
    11  H    0.000000
    12  H    2.423968   0.000000
    13  H    2.951607   1.774905   0.000000
    14  H    2.964031   3.067650   2.504752   0.000000
    15  H    2.429398   2.497255   3.061419   1.767093   0.000000
    16  H    4.555260   3.040540   2.477612   2.503570   3.063133
    17  H    4.283357   2.537816   3.093076   3.078650   2.527679
    18  H    5.965466   4.741297   4.634093   3.606156   3.752309
    19  H    6.240563   5.684821   5.994877   4.254283   3.819262
    20  H    5.459044   4.508059   5.234704   4.106512   3.143592
    21  H    4.610793   4.460144   4.955022   3.114296   2.261132
                   16         17         18         19         20
    16  H    0.000000
    17  H    1.756928   0.000000
    18  H    2.277714   2.434997   0.000000
    19  H    4.147334   3.641187   2.332747   0.000000
    20  H    3.629639   2.439434   2.424775   1.768253   0.000000
    21  H    3.778992   3.083879   2.950357   1.758653   1.785037
                   21
    21  H    0.000000
 Stoichiometry    C5H14N2
 Framework group  C1[X(C5H14N2)]
 Deg. of freedom    57
 Full point group                 C1      NOp   1
 Largest Abelian subgroup         C1      NOp   1
 Largest concise Abelian subgroup C1      NOp   1
                         Standard orientation:                         
 ---------------------------------------------------------------------
 Center     Atomic      Atomic             Coordinates (Angstroms)
 Number     Number       Type             X           Y           Z
 ---------------------------------------------------------------------
      1          6           0        3.579511   -0.045387    0.155199
      2          7           0        2.278639   -0.497504   -0.317739
      3          6           0        1.209541    0.386659    0.148760
      4          6           0       -0.149489   -0.131874   -0.331111
      5          6           0       -1.277831    0.789732    0.143709
      6          7           0       -2.597762    0.400730   -0.360785
      7          6           0       -3.098734   -0.821936    0.253695
      8          1           0        3.807381    0.960080   -0.213161
      9          1           0        4.357551   -0.717347   -0.220052
     10          1           0        3.631863   -0.046966    1.248792
     11          1           0        2.108302   -1.447214    0.011921
     12          1           0        1.212758    0.438176    1.244368
     13          1           0        1.370177    1.399546   -0.239301
     14          1           0       -0.157804   -0.190469   -1.427119
     15          1           0       -0.302306   -1.148172    0.050900
     16          1           0       -1.074220    1.803507   -0.222085
     17          1           0       -1.291100    0.851907    1.238811
     18          1           0       -3.256863    1.154739   -0.165924
     19          1           0       -4.116088   -1.013079   -0.102647
     20          1           0       -3.137911   -0.738358    1.344563
     21          1           0       -2.495867   -1.692095   -0.020912
 ---------------------------------------------------------------------
 Rotational constants (GHZ):           9.1754366           0.8561217           0.8208622
 Standard basis: 6-31G(d,p) (6D, 7F)
 There are   175 symmetry adapted cartesian basis functions of A   symmetry.
 There are   175 symmetry adapted basis functions of A   symmetry.
   175 basis functions,   294 primitive gaussians,   175 cartesian basis functions
    29 alpha electrons       29 beta electrons
       nuclear repulsion energy       317.9135959114 Hartrees.
 NAtoms=   21 NActive=   21 NUniq=   21 SFac= 1.00D+00 NAtFMM=   60 NAOKFM=F Big=F
 Integral buffers will be    131072 words long.
 Raffenetti 2 integral format.
 Two-electron integral symmetry is turned on.
 Force inversion solution in PCM.
 ------------------------------------------------------------------------------
 Polarizable Continuum Model (PCM)
 =================================
 Model                : PCM.
 Atomic radii         : UFF (Universal Force Field).
 Polarization charges : Total charges.
 Charge compensation  : None.
 Solution method      : Matrix inversion.
 Cavity type          : Scaled VdW (van der Waals Surface) (Alpha=1.100).
 Cavity algorithm     : GePol (No added spheres)
                        Default sphere list used, NSphG=   21.
                        Lebedev-Laikov grids with approx.  5.0 points / Ang**2.
                        Smoothing algorithm: York/Karplus (Gamma=1.0000).
                        Polarization charges: spherical gaussians, with
                                              point-specific exponents (IZeta= 3).
                        Self-potential: point-specific (ISelfS= 7).
                        Self-field    : sphere-specific E.n sum rule (ISelfD= 2).
 1st derivatives      : Analytical E(r).r(x)/FMM algorithm (CHGder, D1EAlg=3).
                        Cavity 1st derivative terms included.
 2nd derivatives      : Analytical E(r).r(xy)/FMM algorithm (CHGder, D2EAlg=3).
                        Cavity 2nd derivative terms included.
 Solvent              : Water, Eps=  78.355300 Eps(inf)=   1.777849
 ------------------------------------------------------------------------------
 One-electron integrals computed using PRISM.
 NBasis=   175 RedAO= T EigKep=  2.90D-03  NBF=   175
 NBsUse=   175 1.00D-06 EigRej= -1.00D+00 NBFU=   175
 ExpMin= 1.61D-01 ExpMax= 4.17D+03 ExpMxC= 6.27D+02 IAcc=3 IRadAn=         5 AccDes= 0.00D+00
 Harris functional with IExCor=  402 and IRadAn=       5 diagonalized for initial guess.
 HarFok:  IExCor=  402 AccDes= 0.00D+00 IRadAn=         5 IDoV= 1 UseB2=F ITyADJ=14
 ICtDFT=  3500011 ScaDFX=  1.000000  1.000000  1.000000  1.000000
 FoFCou: FMM=F IPFlag=           0 FMFlag=      100000 FMFlg1=           0
         NFxFlg=           0 DoJE=T BraDBF=F KetDBF=T FulRan=T
         wScrn=  0.000000 ICntrl=       500 IOpCl=  0 I1Cent=   200000004 NGrid=           0
         NMat0=    1 NMatS0=      1 NMatT0=    0 NMatD0=    1 NMtDS0=    0 NMtDT0=    0
 Petite list used in FoFCou.
 Keep R1 ints in memory in canonical form, NReq=121590815.
 Requested convergence on RMS density matrix=1.00D-08 within  32 cycles.
 Requested convergence on MAX density matrix=1.00D-06.
 Requested convergence on             energy=1.00D-06.
 No special actions if energy rises.
 Inv3:  Mode=1 IEnd=     6750000.
 Iteration    1 A*A^-1 deviation from unit magnitude is 5.77D-15 for     33.
 Iteration    1 A*A^-1 deviation from orthogonality  is 3.22D-15 for   1261    756.
 Iteration    1 A^-1*A deviation from unit magnitude is 5.77D-15 for     33.
 Iteration    1 A^-1*A deviation from orthogonality  is 3.96D-15 for   1409    648.
 Error on total polarization charges =  0.00942
 SCF Done:  E(RB3LYP) =  -308.465648864     A.U. after   11 cycles
            NFock= 11  Conv=0.28D-08     -V/T= 2.0097
 QCSCF skips out because SCF is already converged.
 DoSCS=F DFT=T ScalE2(SS,OS)=  1.000000  1.000000
 Range of M.O.s used for correlation:     1   175
 NBasis=   175 NAE=    29 NBE=    29 NFC=     0 NFV=     0
 NROrb=    175 NOA=    29 NOB=    29 NVA=   146 NVB=   146
 Symmetrizing basis deriv contribution to polar:
 IMax=3 JMax=2 DiffMx= 0.00D+00
 G2DrvN: will do    22 centers at a time, making    1 passes.
 Calling FoFCou, ICntrl=  3107 FMM=F I1Cent=   0 AccDes= 0.00D+00.
 NEqPCM:  Using equilibrium solvation (IEInf=0, Eps=  78.3553, EpsInf=   1.7778)
 G2PCM: DoFxE=T DoFxN=T DoGrad=T DoDP/DQ/DG/TGxP=FFFF NFrqRd=   0 IEInf=0 SqF1=F DoCFld=F IF1Alg=4.
 End of G2Drv F.D. properties file   721 does not exist.
 End of G2Drv F.D. properties file   722 does not exist.
 End of G2Drv F.D. properties file   788 does not exist.
          IDoAtm=111111111111111111111
 NEqPCM:  Using equilibrium solvation (IEInf=0, Eps=  78.3553, EpsInf=   1.7778)
          Differentiating once with respect to nuclear coordinates.
 Keep R1 ints in memory in canonical form, NReq=125071086.
          There are    66 degrees of freedom in the 1st order CPHF.  IDoFFX=6 NUNeed=     0.
     60 vectors produced by pass  0 Test12= 6.42D-15 1.52D-09 XBig12= 7.51D-02 5.25D-02.
 AX will form    60 AO Fock derivatives at one time.
     60 vectors produced by pass  1 Test12= 6.42D-15 1.52D-09 XBig12= 4.85D-03 9.84D-03.
     60 vectors produced by pass  2 Test12= 6.42D-15 1.52D-09 XBig12= 5.10D-05 8.04D-04.
     60 vectors produced by pass  3 Test12= 6.42D-15 1.52D-09 XBig12= 1.02D-07 3.57D-05.
     60 vectors produced by pass  4 Test12= 6.42D-15 1.52D-09 XBig12= 8.96D-11 8.67D-07.
     25 vectors produced by pass  5 Test12= 6.42D-15 1.52D-09 XBig12= 4.85D-14 3.12D-08.
 InvSVY:  IOpt=1 It=  1 EMax= 4.16D-16
 Solved reduced A of dimension   325 with    66 vectors.
 End of Minotr F.D. properties file   721 does not exist.
 End of Minotr F.D. properties file   722 does not exist.
 End of Minotr F.D. properties file   788 does not exist.

 **********************************************************************

            Population analysis using the SCF density.

 **********************************************************************

 Orbital symmetries:
       Occupied  (A) (A) (A) (A) (A) (A) (A) (A) (A) (A) (A) (A)
                 (A) (A) (A) (A) (A) (A) (A) (A) (A) (A) (A) (A)
                 (A) (A) (A) (A) (A)
       Virtual   (A) (A) (A) (A) (A) (A) (A) (A) (A) (A) (A) (A)
                 (A) (A) (A) (A) (A) (A) (A) (A) (A) (A) (A) (A)
                 (A) (A) (A) (A) (A) (A) (A) (A) (A) (A) (A) (A)
                 (A) (A) (A) (A) (A) (A) (A) (A) (A) (A) (A) (A)
                 (A) (A) (A) (A) (A) (A) (A) (A) (A) (A) (A) (A)
                 (A) (A) (A) (A) (A) (A) (A) (A) (A) (A) (A) (A)
                 (A) (A) (A) (A) (A) (A) (A) (A) (A) (A) (A) (A)
                 (A) (A) (A) (A) (A) (A) (A) (A) (A) (A) (A) (A)
                 (A) (A) (A) (A) (A) (A) (A) (A) (A) (A) (A) (A)
                 (A) (A) (A) (A) (A) (A) (A) (A) (A) (A) (A) (A)
                 (A) (A) (A) (A) (A) (A) (A) (A) (A) (A) (A) (A)
                 (A) (A) (A) (A) (A) (A) (A) (A) (A) (A) (A) (A)
                 (A) (A)
 The electronic state is 1-A.
 Alpha  occ. eigenvalues --  -14.31218 -14.31147 -10.20001 -10.19995 -10.19475
 Alpha  occ. eigenvalues --  -10.19447 -10.17533  -0.89757  -0.89104  -0.76132
 Alpha  occ. eigenvalues --   -0.68824  -0.65212  -0.61185  -0.57588  -0.48926
 Alpha  occ. eigenvalues --   -0.48281  -0.45005  -0.44056  -0.43030  -0.41505
 Alpha  occ. eigenvalues --   -0.40688  -0.37791  -0.36442  -0.35701  -0.34569
 Alpha  occ. eigenvalues --   -0.32840  -0.32500  -0.22118  -0.21377
 Alpha virt. eigenvalues --    0.08835   0.09175   0.11342   0.12229   0.14063
 Alpha virt. eigenvalues --    0.14941   0.16402   0.16735   0.17036   0.18488
 Alpha virt. eigenvalues --    0.18790   0.19879   0.20260   0.21355   0.22661
 Alpha virt. eigenvalues --    0.24367   0.24860   0.26504   0.27901   0.31975
 Alpha virt. eigenvalues --    0.49977   0.50860   0.53138   0.55931   0.56212
 Alpha virt. eigenvalues --    0.57363   0.58068   0.59683   0.60666   0.63891
 Alpha virt. eigenvalues --    0.66092   0.69748   0.72894   0.73746   0.75380
 Alpha virt. eigenvalues --    0.78337   0.79910   0.80383   0.82247   0.83041
 Alpha virt. eigenvalues --    0.85179   0.86595   0.88629   0.89601   0.90469
 Alpha virt. eigenvalues --    0.91623   0.92060   0.92914   0.94669   0.94760
 Alpha virt. eigenvalues --    0.96002   0.98196   0.98741   1.01907   1.09477
 Alpha virt. eigenvalues --    1.12999   1.20020   1.29765   1.29968   1.32445
 Alpha virt. eigenvalues --    1.36408   1.40511   1.42767   1.49456   1.52880
 Alpha virt. eigenvalues --    1.57041   1.63576   1.68114   1.70284   1.73256
 Alpha virt. eigenvalues --    1.78333   1.80540   1.81218   1.85849   1.87817
 Alpha virt. eigenvalues --    1.89051   1.94814   1.95348   1.96915   1.99272
 Alpha virt. eigenvalues --    2.00538   2.03992   2.05024   2.06539   2.07545
 Alpha virt. eigenvalues --    2.08322   2.09751   2.11426   2.14023   2.15297
 Alpha virt. eigenvalues --    2.16893   2.19971   2.20779   2.25339   2.29667
 Alpha virt. eigenvalues --    2.32808   2.34489   2.37446   2.37757   2.40786
 Alpha virt. eigenvalues --    2.42809   2.44915   2.50876   2.51896   2.57006
 Alpha virt. eigenvalues --    2.59978   2.62710   2.66540   2.67336   2.70061
 Alpha virt. eigenvalues --    2.70732   2.72220   2.75272   2.76600   2.78795
 Alpha virt. eigenvalues --    2.82866   2.87444   2.88103   2.90026   2.90917
 Alpha virt. eigenvalues --    2.93143   2.95762   2.96579   2.97429   3.00175
 Alpha virt. eigenvalues --    3.19364   3.20482   3.24982   3.29074   3.30910
 Alpha virt. eigenvalues --    3.34778   3.40656   3.42204   3.44861   3.45647
 Alpha virt. eigenvalues --    3.50666   3.52584   3.54249   3.58505   4.04319
 Alpha virt. eigenvalues --    4.08651   4.34108   4.47061   4.47424   4.53571
 Alpha virt. eigenvalues --    4.71792
          Condensed to atoms (all electrons):
               1          2          3          4          5          6
     1  C    4.802705   0.310528  -0.051881   0.005009  -0.000158   0.000001
     2  N    0.310528   6.841714   0.307152  -0.044394   0.003093  -0.000042
     3  C   -0.051881   0.307152   4.800856   0.361207  -0.033671   0.002761
     4  C    0.005009  -0.044394   0.361207   4.988729   0.354510  -0.053787
     5  C   -0.000158   0.003093  -0.033671   0.354510   4.823810   0.309694
     6  N    0.000001  -0.000042   0.002761  -0.053787   0.309694   6.825622
     7  C    0.000000   0.000001   0.000094  -0.005648  -0.054952   0.316769
     8  H    0.392487  -0.039001  -0.004793   0.000153  -0.000006   0.000000
     9  H    0.386306  -0.034450   0.005328  -0.000257   0.000001  -0.000000
    10  H    0.373327  -0.051962  -0.007398   0.000004   0.000029   0.000000
    11  H   -0.038362   0.343493  -0.039172  -0.004289  -0.000122   0.000001
    12  H   -0.004566  -0.056442   0.371259  -0.047269   0.000557  -0.000006
    13  H   -0.003621  -0.043259   0.386245  -0.031683  -0.005289  -0.000030
    14  H    0.000073   0.004389  -0.033127   0.364879  -0.033060   0.005255
    15  H    0.000076  -0.004086  -0.034906   0.385663  -0.037003  -0.002818
    16  H    0.000002   0.000016  -0.005017  -0.035992   0.385408  -0.035906
    17  H    0.000009  -0.000045   0.000209  -0.055936   0.370884  -0.055390
    18  H   -0.000000   0.000001  -0.000167   0.005529  -0.034052   0.343775
    19  H    0.000000  -0.000000  -0.000003   0.000166   0.005502  -0.033014
    20  H    0.000000  -0.000000   0.000057  -0.001542  -0.007436  -0.054135
    21  H   -0.000000   0.000007  -0.000192   0.003603  -0.004114  -0.040291
               7          8          9         10         11         12
     1  C    0.000000   0.392487   0.386306   0.373327  -0.038362  -0.004566
     2  N    0.000001  -0.039001  -0.034450  -0.051962   0.343493  -0.056442
     3  C    0.000094  -0.004793   0.005328  -0.007398  -0.039172   0.371259
     4  C   -0.005648   0.000153  -0.000257   0.000004  -0.004289  -0.047269
     5  C   -0.054952  -0.000006   0.000001   0.000029  -0.000122   0.000557
     6  N    0.316769   0.000000  -0.000000   0.000000   0.000001  -0.000006
     7  C    4.810737  -0.000000   0.000000   0.000000  -0.000003  -0.000010
     8  H   -0.000000   0.600518  -0.028785  -0.044320   0.005850  -0.001986
     9  H    0.000000  -0.028785   0.609683  -0.039616  -0.003088  -0.000244
    10  H    0.000000  -0.044320  -0.039616   0.676089  -0.005504   0.014241
    11  H   -0.000003   0.005850  -0.003088  -0.005504   0.485223  -0.005577
    12  H   -0.000010  -0.001986  -0.000244   0.014241  -0.005577   0.700968
    13  H    0.000004   0.006650   0.000109  -0.002108   0.006505  -0.053101
    14  H   -0.000363  -0.000027  -0.000002   0.000036  -0.000701   0.006925
    15  H    0.002276   0.000009   0.000007  -0.000041   0.005703  -0.007633
    16  H    0.006176  -0.000004   0.000000   0.000001   0.000013  -0.000646
    17  H   -0.008493   0.000001   0.000000  -0.000003   0.000008   0.005186
    18  H   -0.040438  -0.000000   0.000000   0.000000  -0.000000   0.000007
    19  H    0.387310   0.000000  -0.000000   0.000000   0.000000  -0.000000
    20  H    0.372086   0.000000  -0.000000  -0.000000   0.000000   0.000006
    21  H    0.393560  -0.000000   0.000000   0.000000  -0.000007   0.000019
              13         14         15         16         17         18
     1  C   -0.003621   0.000073   0.000076   0.000002   0.000009  -0.000000
     2  N   -0.043259   0.004389  -0.004086   0.000016  -0.000045   0.000001
     3  C    0.386245  -0.033127  -0.034906  -0.005017   0.000209  -0.000167
     4  C   -0.031683   0.364879   0.385663  -0.035992  -0.055936   0.005529
     5  C   -0.005289  -0.033060  -0.037003   0.385408   0.370884  -0.034052
     6  N   -0.000030   0.005255  -0.002818  -0.035906  -0.055390   0.343775
     7  C    0.000004  -0.000363   0.002276   0.006176  -0.008493  -0.040438
     8  H    0.006650  -0.000027   0.000009  -0.000004   0.000001  -0.000000
     9  H    0.000109  -0.000002   0.000007   0.000000   0.000000   0.000000
    10  H   -0.002108   0.000036  -0.000041   0.000001  -0.000003   0.000000
    11  H    0.006505  -0.000701   0.005703   0.000013   0.000008  -0.000000
    12  H   -0.053101   0.006925  -0.007633  -0.000646   0.005186   0.000007
    13  H    0.633468  -0.007512   0.005738   0.005295  -0.000488  -0.000007
    14  H   -0.007512   0.634479  -0.040855  -0.006592   0.006887  -0.000010
    15  H    0.005738  -0.040855   0.626070   0.005813  -0.006503  -0.000063
    16  H    0.005295  -0.006592   0.005813   0.636040  -0.045213  -0.005833
    17  H   -0.000488   0.006887  -0.006503  -0.045213   0.700512  -0.002695
    18  H   -0.000007  -0.000010  -0.000063  -0.005833  -0.002695   0.485512
    19  H    0.000000  -0.000046  -0.000119  -0.000268  -0.000167  -0.004609
    20  H    0.000001   0.000222   0.000125  -0.000138   0.016059  -0.004632
    21  H   -0.000003   0.000017   0.001508   0.000010  -0.001607   0.005945
              19         20         21
     1  C    0.000000   0.000000  -0.000000
     2  N   -0.000000  -0.000000   0.000007
     3  C   -0.000003   0.000057  -0.000192
     4  C    0.000166  -0.001542   0.003603
     5  C    0.005502  -0.007436  -0.004114
     6  N   -0.033014  -0.054135  -0.040291
     7  C    0.387310   0.372086   0.393560
     8  H    0.000000   0.000000  -0.000000
     9  H   -0.000000  -0.000000   0.000000
    10  H    0.000000  -0.000000   0.000000
    11  H    0.000000   0.000000  -0.000007
    12  H   -0.000000   0.000006   0.000019
    13  H    0.000000   0.000001  -0.000003
    14  H   -0.000046   0.000222   0.000017
    15  H   -0.000119   0.000125   0.001508
    16  H   -0.000268  -0.000138   0.000010
    17  H   -0.000167   0.016059  -0.001607
    18  H   -0.004609  -0.004632   0.005945
    19  H    0.605165  -0.038268  -0.028741
    20  H   -0.038268   0.676637  -0.045810
    21  H   -0.028741  -0.045810   0.599069
 Mulliken charges:
               1
     1  C   -0.171932
     2  N   -0.536713
     3  C   -0.024839
     4  C   -0.188656
     5  C   -0.043625
     6  N   -0.528460
     7  C   -0.179107
     8  H    0.113254
     9  H    0.105008
    10  H    0.087223
    11  H    0.250029
    12  H    0.078312
    13  H    0.103084
    14  H    0.099136
    15  H    0.101042
    16  H    0.096834
    17  H    0.076784
    18  H    0.251739
    19  H    0.107092
    20  H    0.086767
    21  H    0.117028
 Sum of Mulliken charges =  -0.00000
 Mulliken charges with hydrogens summed into heavy atoms:
               1
     1  C    0.133553
     2  N   -0.286684
     3  C    0.156558
     4  C    0.011522
     5  C    0.129993
     6  N   -0.276721
     7  C    0.131781
 APT charges:
               1
     1  C   -1.270499
     2  N   -0.632895
     3  C   -0.473956
     4  C   -0.595833
     5  C   -0.525983
     6  N   -0.971395
     7  C   -1.094958
     8  H    0.416932
     9  H    0.640886
    10  H    0.280462
    11  H    0.426111
    12  H    0.271058
    13  H    0.350483
    14  H    0.316198
    15  H    0.290975
    16  H    0.352358
    17  H    0.289803
    18  H    0.744315
    19  H    0.707811
    20  H    0.305859
    21  H    0.172268
 Sum of APT charges =  -0.00000
 APT charges with hydrogens summed into heavy atoms:
               1
     1  C    0.067781
     2  N   -0.206784
     3  C    0.147585
     4  C    0.011339
     5  C    0.116178
     6  N   -0.227079
     7  C    0.090980
 Electronic spatial extent (au):  <R**2>=           1450.6821
 Charge=             -0.0000 electrons
 Dipole moment (field-independent basis, Debye):
    X=             -0.3138    Y=              0.1215    Z=              2.3845  Tot=              2.4082
 Quadrupole moment (field-independent basis, Debye-Ang):
   XX=            -42.6677   YY=            -42.4892   ZZ=            -50.1790
   XY=             -1.6453   XZ=             -0.4890   YZ=             -0.8622
 Traceless Quadrupole moment (field-independent basis, Debye-Ang):
   XX=              2.4443   YY=              2.6228   ZZ=             -5.0670
   XY=             -1.6453   XZ=             -0.4890   YZ=             -0.8622
 Octapole moment (field-independent basis, Debye-Ang**2):
  XXX=            -10.5910  YYY=             -1.0611  ZZZ=              2.7609  XYY=             -1.1297
  XXY=              3.2228  XXZ=             12.2956  XZZ=              0.5216  YZZ=              0.3132
  YYZ=             -0.7297  XYZ=             -3.5866
 Hexadecapole moment (field-independent basis, Debye-Ang**3):
 XXXX=          -1536.2795 YYYY=           -165.3707 ZZZZ=           -107.3854 XXXY=            -29.9914
 XXXZ=             -9.7364 YYYX=            -17.5461 YYYZ=             -2.7696 ZZZX=             -0.5699
 ZZZY=             -0.7275 XXYY=           -279.0844 XXZZ=           -318.9283 YYZZ=            -49.1978
 XXYZ=             -1.5263 YYXZ=              0.9380 ZZXY=              0.5968
 N-N= 3.179135959114D+02 E-N=-1.350867070864D+03  KE= 3.055104860362D+02
  Exact polarizability:   0.000   0.000   0.000   0.000   0.000   0.000
 Approx polarizability:  94.715   0.270  92.177   0.305  -0.585  85.224
 D2PCM: PCM CHGder 2nd derivatives, FixD1E=F FixD2E=F DoIter=F DoCFld=F I1PDM=0
 Calling FoFJK, ICntrl=    100147 FMM=F ISym2X=0 I1Cent= 0 IOpClX= 0 NMat=1 NMatS=1 NMatT=0.
 ***** Axes restored to original set *****
 -------------------------------------------------------------------
 Center     Atomic                   Forces (Hartrees/Bohr)
 Number     Number              X              Y              Z
 -------------------------------------------------------------------
      1        6           0.002236445    0.009603463    0.001301296
      2        7           0.001267838   -0.008925750    0.010225175
      3        6          -0.003854139    0.015495671    0.004234276
      4        6          -0.001690871   -0.005609532   -0.003242260
      5        6          -0.005228651   -0.003192133    0.005594532
      6        7           0.002471107    0.000475946    0.008663880
      7        6          -0.007760021   -0.003156015    0.002066906
      8        1          -0.002305091   -0.000371692   -0.000115694
      9        1           0.001154703   -0.000005198   -0.000354091
     10        1           0.004466191   -0.004040400   -0.006194954
     11        1          -0.000192706   -0.002941390   -0.001226229
     12        1          -0.002167284   -0.005111499   -0.006049687
     13        1           0.002993169    0.000302676    0.000000631
     14        1          -0.000255947   -0.000219891   -0.001216195
     15        1           0.000489948    0.000495290    0.000141087
     16        1          -0.000013996   -0.000402414    0.000034182
     17        1           0.004245633    0.001194513   -0.006451739
     18        1           0.002434090    0.002414020    0.000070715
     19        1          -0.000244356    0.000239439   -0.000098725
     20        1           0.000433162    0.005118440   -0.006802050
     21        1           0.001520777   -0.001363544   -0.000581054
 -------------------------------------------------------------------
 Cartesian Forces:  Max     0.015495671 RMS     0.004268357
 FormGI is forming the generalized inverse of G from B-inverse, IUseBI=4.

 GradGradGradGradGradGradGradGradGradGradGradGradGradGradGradGradGradGrad
 Berny optimization.
 Internal  Forces:  Max     0.008388101 RMS     0.002820227
 Search for a local minimum.
 Step number   1 out of a maximum of  108
 All quantities printed in internal units (Hartrees-Bohrs-Radians)
 Mixed Optimization -- RFO/linear search
 Second derivative matrix not updated -- analytic derivatives used.
 ITU=  0
     Eigenvalues ---    0.00118   0.00250   0.00292   0.00355   0.00370
     Eigenvalues ---    0.00481   0.02204   0.02326   0.03582   0.03994
     Eigenvalues ---    0.04578   0.04650   0.04913   0.05297   0.06234
     Eigenvalues ---    0.06261   0.06421   0.06438   0.06579   0.08205
     Eigenvalues ---    0.08676   0.09649   0.10390   0.10630   0.12983
     Eigenvalues ---    0.13157   0.13276   0.14025   0.16103   0.16406
     Eigenvalues ---    0.17132   0.17852   0.17890   0.21399   0.23748
     Eigenvalues ---    0.24795   0.25396   0.27600   0.29930   0.31683
     Eigenvalues ---    0.32196   0.32518   0.32536   0.32805   0.32945
     Eigenvalues ---    0.33228   0.33658   0.33681   0.33706   0.33928
     Eigenvalues ---    0.34174   0.35981   0.36634   0.38445   0.39280
     Eigenvalues ---    0.43289   0.43514
 RFO step:  Lambda=-4.29436100D-03 EMin= 1.18041632D-03
 Linear search not attempted -- first point.
 Iteration  1 RMS(Cart)=  0.03312773 RMS(Int)=  0.00061356
 Iteration  2 RMS(Cart)=  0.00143367 RMS(Int)=  0.00019642
 Iteration  3 RMS(Cart)=  0.00000190 RMS(Int)=  0.00019642
 Iteration  4 RMS(Cart)=  0.00000000 RMS(Int)=  0.00019642
 Variable       Old X    -DE/DX   Delta X   Delta X   Delta X     New X
                                 (Linear)    (Quad)   (Total)
    R1        2.75171   0.00521   0.00000   0.00903   0.00903   2.76074
    R2        2.06887  -0.00018   0.00000   0.00211   0.00211   2.07098
    R3        2.06810   0.00070   0.00000  -0.00021  -0.00021   2.06789
    R4        2.06896   0.00623   0.00000   0.01792   0.01792   2.08688
    R5        2.76594   0.00209   0.00000   0.00064   0.00064   2.76658
    R6        1.92682  -0.00237   0.00000  -0.00199  -0.00199   1.92483
    R7        2.89450   0.00124   0.00000  -0.00373  -0.00373   2.89077
    R8        2.07270   0.00618   0.00000   0.01921   0.01921   2.09190
    R9        2.07211   0.00017   0.00000   0.00410   0.00410   2.07621
   R10        2.89564   0.00001   0.00000  -0.00029  -0.00029   2.89535
   R11        2.07417  -0.00122   0.00000  -0.00273  -0.00273   2.07144
   R12        2.07194   0.00035   0.00000   0.00292   0.00292   2.07487
   R13        2.76963   0.00319   0.00000   0.00399   0.00399   2.77361
   R14        2.07268   0.00038   0.00000   0.00013   0.00013   2.07281
   R15        2.07293   0.00630   0.00000   0.01849   0.01849   2.09142
   R16        2.75373   0.00496   0.00000   0.01086   0.01086   2.76459
   R17        1.92800  -0.00336   0.00000  -0.00612  -0.00612   1.92188
   R18        2.06882   0.00023   0.00000  -0.00126  -0.00126   2.06756
   R19        2.06881   0.00651   0.00000   0.01848   0.01848   2.08729
   R20        2.06667  -0.00038   0.00000   0.00127   0.00127   2.06794
    A1        1.94102  -0.00534   0.00000  -0.02984  -0.02967   1.91135
    A2        1.91041   0.00126   0.00000   0.00468   0.00431   1.91471
    A3        1.94624   0.00839   0.00000   0.04501   0.04486   1.99111
    A4        1.87608   0.00085   0.00000   0.00573   0.00568   1.88175
    A5        1.90440  -0.00308   0.00000  -0.02892  -0.02859   1.87581
    A6        1.88348  -0.00227   0.00000   0.00290   0.00229   1.88577
    A7        1.94063   0.00817   0.00000   0.02366   0.02373   1.96436
    A8        1.91074  -0.00254   0.00000  -0.01771  -0.01760   1.89314
    A9        1.91514  -0.00391   0.00000  -0.02665  -0.02656   1.88858
   A10        1.92168   0.00491   0.00000   0.02080   0.02036   1.94204
   A11        1.92260   0.00230   0.00000   0.03593   0.03552   1.95812
   A12        1.91580  -0.00481   0.00000  -0.03399  -0.03378   1.88202
   A13        1.90863  -0.00246   0.00000   0.00201   0.00114   1.90977
   A14        1.90903   0.00074   0.00000   0.00499   0.00516   1.91419
   A15        1.88567  -0.00078   0.00000  -0.03073  -0.03045   1.85522
   A16        1.93121   0.00567   0.00000   0.03016   0.03013   1.96134
   A17        1.91519  -0.00153   0.00000  -0.00493  -0.00495   1.91025
   A18        1.90530  -0.00203   0.00000  -0.00658  -0.00663   1.89867
   A19        1.91341  -0.00197   0.00000  -0.00758  -0.00763   1.90578
   A20        1.92506  -0.00118   0.00000  -0.00544  -0.00549   1.91957
   A21        1.87273   0.00086   0.00000  -0.00687  -0.00696   1.86577
   A22        1.97890  -0.00089   0.00000  -0.01125  -0.01123   1.96767
   A23        1.89217   0.00054   0.00000   0.00446   0.00447   1.89664
   A24        1.93088  -0.00327   0.00000  -0.02502  -0.02492   1.90596
   A25        1.87309  -0.00029   0.00000  -0.00001  -0.00007   1.87302
   A26        1.92601   0.00376   0.00000   0.02956   0.02943   1.95544
   A27        1.85751   0.00026   0.00000   0.00356   0.00342   1.86093
   A28        1.96834   0.00523   0.00000   0.01555   0.01558   1.98393
   A29        1.89642  -0.00210   0.00000  -0.01621  -0.01616   1.88026
   A30        1.89384  -0.00200   0.00000  -0.01183  -0.01178   1.88207
   A31        1.90574   0.00028   0.00000   0.00247   0.00219   1.90793
   A32        1.94811   0.00745   0.00000   0.03854   0.03843   1.98654
   A33        1.95217  -0.00422   0.00000  -0.02532  -0.02520   1.92697
   A34        1.88011  -0.00151   0.00000   0.00625   0.00580   1.88591
   A35        1.86672   0.00101   0.00000   0.00825   0.00822   1.87494
   A36        1.90781  -0.00318   0.00000  -0.03017  -0.02994   1.87787
    D1       -1.05820  -0.00097   0.00000  -0.05079  -0.05065  -1.10885
    D2        3.10599   0.00031   0.00000  -0.02090  -0.02073   3.08526
    D3       -3.12857   0.00046   0.00000  -0.04251  -0.04231   3.11230
    D4        1.03562   0.00175   0.00000  -0.01262  -0.01239   1.02323
    D5        1.07181  -0.00279   0.00000  -0.07737  -0.07775   0.99407
    D6       -1.04718  -0.00151   0.00000  -0.04748  -0.04783  -1.09501
    D7       -3.11549   0.00016   0.00000   0.00205   0.00169  -3.11380
    D8       -1.00910   0.00173   0.00000   0.04106   0.04152  -0.96758
    D9        1.06518  -0.00080   0.00000   0.00433   0.00432   1.06949
   D10       -0.99907  -0.00031   0.00000  -0.02260  -0.02301  -1.02208
   D11        1.10732   0.00127   0.00000   0.01642   0.01682   1.12414
   D12       -3.10159  -0.00126   0.00000  -0.02031  -0.02038  -3.12197
   D13       -3.13579   0.00241   0.00000   0.02031   0.02031  -3.11547
   D14       -1.02212   0.00261   0.00000   0.02711   0.02712  -0.99500
   D15        1.02570   0.00158   0.00000   0.01211   0.01214   1.03783
   D16        1.03264  -0.00196   0.00000  -0.03861  -0.03864   0.99401
   D17       -3.13687  -0.00176   0.00000  -0.03181  -0.03183   3.11448
   D18       -1.08906  -0.00278   0.00000  -0.04680  -0.04681  -1.13587
   D19       -1.02919  -0.00000   0.00000  -0.00548  -0.00548  -1.03467
   D20        1.08448   0.00020   0.00000   0.00131   0.00132   1.08580
   D21        3.13229  -0.00082   0.00000  -0.01368  -0.01366   3.11863
   D22        3.07160  -0.00077   0.00000   0.00017   0.00011   3.07170
   D23        0.99353  -0.00022   0.00000   0.00415   0.00414   0.99767
   D24       -1.03713   0.00098   0.00000   0.01121   0.01125  -1.02588
   D25        0.95687  -0.00123   0.00000  -0.00816  -0.00819   0.94868
   D26       -1.12120  -0.00068   0.00000  -0.00418  -0.00416  -1.12535
   D27        3.13133   0.00052   0.00000   0.00289   0.00295   3.13428
   D28       -1.10157  -0.00037   0.00000   0.00812   0.00806  -1.09351
   D29        3.10355   0.00018   0.00000   0.01210   0.01210   3.11564
   D30        1.07289   0.00138   0.00000   0.01916   0.01920   1.09209
   D31        1.24050   0.00019   0.00000   0.05558   0.05552   1.29602
   D32       -2.94229  -0.00043   0.00000   0.03952   0.03943  -2.90286
   D33       -2.95369   0.00013   0.00000   0.05432   0.05427  -2.89942
   D34       -0.85330  -0.00049   0.00000   0.03825   0.03818  -0.81512
   D35       -0.93659   0.00225   0.00000   0.07400   0.07415  -0.86244
   D36        1.16380   0.00163   0.00000   0.05794   0.05806   1.22187
   D37        3.06207   0.00063   0.00000  -0.02664  -0.02648   3.03558
   D38        0.98531  -0.00227   0.00000  -0.05979  -0.06007   0.92524
   D39       -1.15848  -0.00050   0.00000  -0.03028  -0.03018  -1.18865
   D40        0.96020   0.00132   0.00000  -0.00806  -0.00789   0.95231
   D41       -1.11656  -0.00159   0.00000  -0.04121  -0.04147  -1.15803
   D42        3.02284   0.00018   0.00000  -0.01169  -0.01158   3.01126
         Item               Value     Threshold  Converged?
 Maximum Force            0.008388     0.000450     NO 
 RMS     Force            0.002820     0.000300     NO 
 Maximum Displacement     0.124147     0.001800     NO 
 RMS     Displacement     0.033736     0.001200     NO 
 Predicted change in Energy=-2.288097D-03
 GradGradGradGradGradGradGradGradGradGradGradGradGradGradGradGradGradGrad

                          Input orientation:                          
 ---------------------------------------------------------------------
 Center     Atomic      Atomic             Coordinates (Angstroms)
 Number     Number       Type             X           Y           Z
 ---------------------------------------------------------------------
      1          6           0        3.580547    0.038684   -0.167443
      2          7           0        2.272585    0.452451    0.334874
      3          6           0        1.186510   -0.393277   -0.163642
      4          6           0       -0.172001    0.088958    0.348181
      5          6           0       -1.324424   -0.800821   -0.129010
      6          7           0       -2.620039   -0.401098    0.432992
      7          6           0       -3.168847    0.816427   -0.164244
      8          1           0        3.811917   -0.967742    0.199436
      9          1           0        4.351891    0.717691    0.208628
     10          1           0        3.653247    0.014925   -1.269118
     11          1           0        2.097355    1.408309    0.029707
     12          1           0        1.167500   -0.440846   -1.269443
     13          1           0        1.370830   -1.418430    0.185913
     14          1           0       -0.162722    0.109726    1.444105
     15          1           0       -0.330721    1.121649    0.010691
     16          1           0       -1.131074   -1.830341    0.196346
     17          1           0       -1.338605   -0.815851   -1.235547
     18          1           0       -3.278675   -1.156673    0.260889
     19          1           0       -4.176620    0.988244    0.225547
     20          1           0       -3.229037    0.784534   -1.266687
     21          1           0       -2.559618    1.683480    0.108819
 ---------------------------------------------------------------------
                    Distance matrix (angstroms):
                    1          2          3          4          5
     1  C    0.000000
     2  N    1.460921   0.000000
     3  C    2.432698   1.464012   0.000000
     4  C    3.788141   2.471499   1.529727   0.000000
     5  C    4.976444   3.837233   2.544029   1.532155   0.000000
     6  N    6.245094   4.967488   3.853031   2.498047   1.467733
     7  C    6.794058   5.476384   4.520235   3.126160   2.453290
     8  H    1.095913   2.098770   2.711936   4.124360   5.149538
     9  H    1.094281   2.099953   3.375273   4.569505   5.885612
    10  H    1.104327   2.161122   2.733769   4.153752   5.171315
    11  H    2.028448   1.018576   2.027987   2.644256   4.076030
    12  H    2.695765   2.143135   1.106987   2.166025   2.764029
    13  H    2.670373   2.082197   1.098682   2.163071   2.782986
    14  H    4.076052   2.697884   2.158307   1.096161   2.157160
    15  H    4.062335   2.707420   2.151135   1.097972   2.168607
    16  H    5.081828   4.100637   2.750626   2.150950   1.096883
    17  H    5.105795   4.137089   2.775564   2.165142   1.106730
    18  H    6.975764   5.780246   4.549822   3.348230   2.024290
    19  H    7.824944   6.472347   5.551867   4.106182   3.385482
    20  H    6.937944   5.739610   4.701171   3.526626   2.726759
    21  H    6.362649   4.991665   4.291926   2.881060   2.784604
                    6          7          8          9         10
     6  N    0.000000
     7  C    1.462959   0.000000
     8  H    6.461090   7.214332   0.000000
     9  H    7.064689   7.530623   1.769842   0.000000
    10  H    6.513399   6.957307   1.774109   1.779247   0.000000
    11  H    5.068569   5.302907   2.934987   2.364720   2.459525
    12  H    4.152748   4.648237   3.070532   3.696924   2.527185
    13  H    4.125900   5.072067   2.482379   3.667458   3.062849
    14  H    2.705863   3.481810   4.302080   4.719932   4.683181
    15  H    2.781739   2.859847   4.643558   4.704170   4.328365
    16  H    2.077439   3.359751   5.017693   6.046116   5.333134
    17  H    2.144321   2.676156   5.348843   6.067878   5.060622
    18  H    1.017013   2.021367   7.093375   7.857577   7.194797
    19  H    2.096724   1.094104   8.224554   8.532818   8.030453
    20  H    2.159979   1.104546   7.402366   7.723438   6.925181
    21  H    2.110498   1.094305   6.901713   6.979375   6.578942
                   11         12         13         14         15
    11  H    0.000000
    12  H    2.443726   0.000000
    13  H    2.922788   1.764957   0.000000
    14  H    2.965601   3.071802   2.504015   0.000000
    15  H    2.445013   2.514916   3.062349   1.762637   0.000000
    16  H    4.575956   3.059849   2.535607   2.501693   3.064193
    17  H    4.284107   2.534234   3.118444   3.069190   2.514527
    18  H    5.961064   4.756343   4.657472   3.565520   3.734138
    19  H    6.291070   5.730350   6.047136   4.285797   3.854206
    20  H    5.517262   4.564111   5.303006   4.148017   3.185212
    21  H    4.665766   4.505972   5.007615   3.163036   2.300710
                   16         17         18         19         20
    16  H    0.000000
    17  H    1.767081   0.000000
    18  H    2.251708   2.473732   0.000000
    19  H    4.149774   3.666590   2.325558   0.000000
    20  H    3.657798   2.477082   2.470675   1.779374   0.000000
    21  H    3.794119   3.089474   2.933707   1.763994   1.774329
                   21
    21  H    0.000000
 Stoichiometry    C5H14N2
 Framework group  C1[X(C5H14N2)]
 Deg. of freedom    57
 Full point group                 C1      NOp   1
 Largest Abelian subgroup         C1      NOp   1
 Largest concise Abelian subgroup C1      NOp   1
                         Standard orientation:                         
 ---------------------------------------------------------------------
 Center     Atomic      Atomic             Coordinates (Angstroms)
 Number     Number       Type             X           Y           Z
 ---------------------------------------------------------------------
      1          6           0        3.609791   -0.063991    0.147080
      2          7           0        2.293709   -0.485312   -0.326954
      3          6           0        1.217466    0.377033    0.164367
      4          6           0       -0.149531   -0.112778   -0.316746
      5          6           0       -1.292247    0.793320    0.153024
      6          7           0       -2.596739    0.384473   -0.381192
      7          6           0       -3.141745   -0.815330    0.254173
      8          1           0        3.839751    0.931874   -0.248391
      9          1           0        4.373576   -0.755334   -0.221875
     10          1           0        3.697439   -0.012508    1.246719
     11          1           0        2.119228   -1.432412    0.004790
     12          1           0        1.213554    0.452780    1.268752
     13          1           0        1.400682    1.392242   -0.213634
     14          1           0       -0.155121   -0.161443   -1.411812
     15          1           0       -0.307339   -1.135928    0.049043
     16          1           0       -1.099660    1.813474   -0.201019
     17          1           0       -1.291436    0.836538    1.258910
     18          1           0       -3.250310    1.146734   -0.219582
     19          1           0       -4.155291   -0.993085   -0.117569
     20          1           0       -3.186934   -0.755180    1.356154
     21          1           0       -2.539335   -1.691407   -0.004852
 ---------------------------------------------------------------------
 Rotational constants (GHZ):           9.2222131           0.8423567           0.8094999
 Standard basis: 6-31G(d,p) (6D, 7F)
 There are   175 symmetry adapted cartesian basis functions of A   symmetry.
 There are   175 symmetry adapted basis functions of A   symmetry.
   175 basis functions,   294 primitive gaussians,   175 cartesian basis functions
    29 alpha electrons       29 beta electrons
       nuclear repulsion energy       316.6215801003 Hartrees.
 NAtoms=   21 NActive=   21 NUniq=   21 SFac= 1.00D+00 NAtFMM=   60 NAOKFM=F Big=F
 Integral buffers will be    131072 words long.
 Raffenetti 2 integral format.
 Two-electron integral symmetry is turned on.
 ------------------------------------------------------------------------------
 Polarizable Continuum Model (PCM)
 =================================
 Model                : PCM.
 Atomic radii         : UFF (Universal Force Field).
 Polarization charges : Total charges.
 Charge compensation  : None.
 Solution method      : Matrix inversion.
 Cavity type          : Scaled VdW (van der Waals Surface) (Alpha=1.100).
 Cavity algorithm     : GePol (No added spheres)
                        Default sphere list used, NSphG=   21.
                        Lebedev-Laikov grids with approx.  5.0 points / Ang**2.
                        Smoothing algorithm: York/Karplus (Gamma=1.0000).
                        Polarization charges: spherical gaussians, with
                                              point-specific exponents (IZeta= 3).
                        Self-potential: point-specific (ISelfS= 7).
                        Self-field    : sphere-specific E.n sum rule (ISelfD= 2).
 1st derivatives      : Analytical E(r).r(x)/FMM algorithm (CHGder, D1EAlg=3).
                        Cavity 1st derivative terms included.
 Solvent              : Water, Eps=  78.355300 Eps(inf)=   1.777849
 ------------------------------------------------------------------------------
 One-electron integrals computed using PRISM.
 NBasis=   175 RedAO= T EigKep=  2.96D-03  NBF=   175
 NBsUse=   175 1.00D-06 EigRej= -1.00D+00 NBFU=   175
 Initial guess from the checkpoint file:  "UQUPIHHYKUEXQD-UHFFFAOYSA-N_conf_2_0.chk"
 B after Tr=    -0.000000    0.000000   -0.000000
         Rot=    0.999999   -0.001054    0.000218    0.000711 Ang=  -0.15 deg.
 ExpMin= 1.61D-01 ExpMax= 4.17D+03 ExpMxC= 6.27D+02 IAcc=2 IRadAn=         4 AccDes= 0.00D+00
 Harris functional with IExCor=  402 and IRadAn=       4 diagonalized for initial guess.
 HarFok:  IExCor=  402 AccDes= 0.00D+00 IRadAn=         4 IDoV= 1 UseB2=F ITyADJ=14
 ICtDFT=  3500011 ScaDFX=  1.000000  1.000000  1.000000  1.000000
 FoFCou: FMM=F IPFlag=           0 FMFlag=      100000 FMFlg1=           0
         NFxFlg=           0 DoJE=T BraDBF=F KetDBF=T FulRan=T
         wScrn=  0.000000 ICntrl=       500 IOpCl=  0 I1Cent=   200000004 NGrid=           0
         NMat0=    1 NMatS0=      1 NMatT0=    0 NMatD0=    1 NMtDS0=    0 NMtDT0=    0
 Petite list used in FoFCou.
 Keep R1 ints in memory in canonical form, NReq=121590815.
 Requested convergence on RMS density matrix=1.00D-08 within  32 cycles.
 Requested convergence on MAX density matrix=1.00D-06.
 Requested convergence on             energy=1.00D-06.
 No special actions if energy rises.
 Inv3:  Mode=1 IEnd=     6804108.
 Iteration    1 A*A^-1 deviation from unit magnitude is 5.88D-15 for    464.
 Iteration    1 A*A^-1 deviation from orthogonality  is 2.27D-15 for   1433    623.
 Iteration    1 A^-1*A deviation from unit magnitude is 6.66D-15 for     79.
 Iteration    1 A^-1*A deviation from orthogonality  is 2.95D-15 for   1474    592.
 Error on total polarization charges =  0.00946
 SCF Done:  E(RB3LYP) =  -308.467966420     A.U. after    9 cycles
            NFock=  9  Conv=0.46D-08     -V/T= 2.0099
 QCSCF skips out because SCF is already converged.
 D1PCM: PCM CHGder 1st derivatives, ID1Alg=3 FixD1E=F DoIter=F DoCFld=F I1PDM=0.
 Calling FoFJK, ICntrl=      2127 FMM=F ISym2X=0 I1Cent= 0 IOpClX= 0 NMat=1 NMatS=1 NMatT=0.
 ***** Axes restored to original set *****
 -------------------------------------------------------------------
 Center     Atomic                   Forces (Hartrees/Bohr)
 Number     Number              X              Y              Z
 -------------------------------------------------------------------
      1        6           0.000132829    0.000665422   -0.000164563
      2        7          -0.000082765   -0.000689844    0.000745869
      3        6          -0.000284814    0.001340316   -0.000313676
      4        6           0.000011408   -0.000598293   -0.000018157
      5        6          -0.000372829   -0.000470608    0.000006175
      6        7           0.000494665    0.000598520    0.000408226
      7        6          -0.000662152   -0.000401219   -0.000182403
      8        1           0.000058679    0.000044131    0.000096215
      9        1           0.000079657    0.000016272   -0.000109211
     10        1           0.000170361   -0.000438850   -0.000215233
     11        1           0.000123493    0.000055868    0.000109835
     12        1          -0.000035699   -0.000620605   -0.000240167
     13        1           0.000054018   -0.000036135    0.000001966
     14        1          -0.000015718    0.000039556    0.000000519
     15        1           0.000006388    0.000064783    0.000172312
     16        1          -0.000096164   -0.000070312   -0.000145404
     17        1           0.000289911    0.000243179   -0.000244876
     18        1           0.000027910   -0.000087320    0.000380532
     19        1          -0.000042298    0.000018206   -0.000053869
     20        1           0.000188022    0.000324534   -0.000278694
     21        1          -0.000044904    0.000002398    0.000044603
 -------------------------------------------------------------------
 Cartesian Forces:  Max     0.001340316 RMS     0.000334721

 GradGradGradGradGradGradGradGradGradGradGradGradGradGradGradGradGradGrad
 Berny optimization.
 Using GEDIIS/GDIIS optimizer.
 FormGI is forming the generalized inverse of G from B-inverse, IUseBI=4.
 Internal  Forces:  Max     0.000445388 RMS     0.000173744
 Search for a local minimum.
 Step number   2 out of a maximum of  108
 All quantities printed in internal units (Hartrees-Bohrs-Radians)
 Mixed Optimization -- En-DIIS/RFO-DIIS
 Update second derivatives using D2CorX and points    1    2
 DE= -2.32D-03 DEPred=-2.29D-03 R= 1.01D+00
 TightC=F SS=  1.41D+00  RLast= 2.56D-01 DXNew= 5.0454D-01 7.6858D-01
 Trust test= 1.01D+00 RLast= 2.56D-01 DXMaxT set to 5.05D-01
 ITU=  1  0
 Use linear search instead of GDIIS.
     Eigenvalues ---    0.00118   0.00251   0.00292   0.00355   0.00370
     Eigenvalues ---    0.00480   0.02207   0.02326   0.03581   0.03991
     Eigenvalues ---    0.04577   0.04649   0.04910   0.05269   0.06238
     Eigenvalues ---    0.06266   0.06413   0.06433   0.06577   0.08205
     Eigenvalues ---    0.08674   0.09648   0.10390   0.10632   0.13014
     Eigenvalues ---    0.13159   0.13243   0.14022   0.16077   0.16398
     Eigenvalues ---    0.17127   0.17797   0.17865   0.21380   0.23739
     Eigenvalues ---    0.24819   0.25395   0.27600   0.29932   0.31682
     Eigenvalues ---    0.32186   0.32509   0.32531   0.32804   0.32947
     Eigenvalues ---    0.33226   0.33655   0.33677   0.33701   0.33925
     Eigenvalues ---    0.34173   0.35964   0.36617   0.38331   0.38904
     Eigenvalues ---    0.43300   0.43519
 RFO step:  Lambda=-1.55318041D-04 EMin= 1.18038215D-03
 Quartic linear search produced a step of  0.09713.
 Iteration  1 RMS(Cart)=  0.03752719 RMS(Int)=  0.00053655
 Iteration  2 RMS(Cart)=  0.00086133 RMS(Int)=  0.00002081
 Iteration  3 RMS(Cart)=  0.00000050 RMS(Int)=  0.00002081
 Variable       Old X    -DE/DX   Delta X   Delta X   Delta X     New X
                                 (Linear)    (Quad)   (Total)
    R1        2.76074   0.00045   0.00088  -0.00033   0.00055   2.76129
    R2        2.07098   0.00000   0.00021   0.00040   0.00061   2.07159
    R3        2.06789   0.00003  -0.00002  -0.00030  -0.00032   2.06757
    R4        2.08688   0.00023   0.00174  -0.00076   0.00098   2.08786
    R5        2.76658   0.00032   0.00006  -0.00021  -0.00015   2.76644
    R6        1.92483  -0.00000  -0.00019   0.00032   0.00013   1.92496
    R7        2.89077   0.00011  -0.00036  -0.00019  -0.00056   2.89021
    R8        2.09190   0.00027   0.00187  -0.00096   0.00091   2.09281
    R9        2.07621   0.00004   0.00040   0.00039   0.00079   2.07700
   R10        2.89535   0.00010  -0.00003   0.00069   0.00066   2.89601
   R11        2.07144   0.00000  -0.00027   0.00005  -0.00022   2.07123
   R12        2.07487   0.00001   0.00028   0.00038   0.00066   2.07553
   R13        2.77361   0.00028   0.00039  -0.00093  -0.00054   2.77307
   R14        2.07281   0.00001   0.00001  -0.00037  -0.00036   2.07245
   R15        2.09142   0.00024   0.00180  -0.00104   0.00076   2.09217
   R16        2.76459   0.00036   0.00105  -0.00095   0.00011   2.76470
   R17        1.92188  -0.00002  -0.00059   0.00021  -0.00039   1.92149
   R18        2.06756   0.00002  -0.00012  -0.00008  -0.00020   2.06736
   R19        2.08729   0.00026   0.00180  -0.00106   0.00074   2.08803
   R20        2.06794  -0.00001   0.00012   0.00068   0.00080   2.06874
    A1        1.91135  -0.00015  -0.00288   0.00331   0.00045   1.91180
    A2        1.91471   0.00011   0.00042  -0.00065  -0.00027   1.91444
    A3        1.99111   0.00041   0.00436  -0.00271   0.00163   1.99273
    A4        1.88175  -0.00007   0.00055  -0.00109  -0.00055   1.88121
    A5        1.87581  -0.00023  -0.00278   0.00063  -0.00212   1.87370
    A6        1.88577  -0.00010   0.00022   0.00055   0.00071   1.88648
    A7        1.96436   0.00031   0.00230  -0.00161   0.00070   1.96506
    A8        1.89314  -0.00015  -0.00171   0.00044  -0.00126   1.89188
    A9        1.88858  -0.00014  -0.00258   0.00264   0.00007   1.88865
   A10        1.94204   0.00023   0.00198   0.00027   0.00219   1.94424
   A11        1.95812   0.00015   0.00345  -0.00101   0.00239   1.96051
   A12        1.88202  -0.00018  -0.00328   0.00155  -0.00171   1.88031
   A13        1.90977   0.00001   0.00011   0.00264   0.00265   1.91242
   A14        1.91419  -0.00009   0.00050  -0.00231  -0.00179   1.91240
   A15        1.85522  -0.00015  -0.00296  -0.00130  -0.00423   1.85099
   A16        1.96134   0.00028   0.00293  -0.00001   0.00291   1.96425
   A17        1.91025  -0.00007  -0.00048   0.00077   0.00029   1.91053
   A18        1.89867  -0.00007  -0.00064   0.00204   0.00139   1.90006
   A19        1.90578  -0.00007  -0.00074   0.00030  -0.00045   1.90533
   A20        1.91957  -0.00007  -0.00053  -0.00148  -0.00202   1.91755
   A21        1.86577  -0.00002  -0.00068  -0.00170  -0.00239   1.86338
   A22        1.96767  -0.00005  -0.00109  -0.00234  -0.00343   1.96424
   A23        1.89664   0.00001   0.00043   0.00128   0.00172   1.89836
   A24        1.90596  -0.00015  -0.00242   0.00146  -0.00096   1.90500
   A25        1.87302   0.00000  -0.00001   0.00262   0.00261   1.87562
   A26        1.95544   0.00018   0.00286  -0.00287  -0.00003   1.95541
   A27        1.86093   0.00001   0.00033   0.00012   0.00044   1.86137
   A28        1.98393   0.00033   0.00151  -0.00180  -0.00029   1.98364
   A29        1.88026  -0.00014  -0.00157   0.00417   0.00260   1.88286
   A30        1.88207  -0.00014  -0.00114   0.00302   0.00187   1.88394
   A31        1.90793   0.00005   0.00021   0.00105   0.00124   1.90917
   A32        1.98654   0.00034   0.00373  -0.00303   0.00069   1.98723
   A33        1.92697  -0.00012  -0.00245   0.00186  -0.00058   1.92639
   A34        1.88591  -0.00005   0.00056   0.00086   0.00137   1.88729
   A35        1.87494  -0.00004   0.00080  -0.00100  -0.00021   1.87473
   A36        1.87787  -0.00020  -0.00291   0.00031  -0.00257   1.87530
    D1       -1.10885  -0.00021  -0.00492  -0.04345  -0.04835  -1.15720
    D2        3.08526  -0.00014  -0.00201  -0.04603  -0.04803   3.03723
    D3        3.11230  -0.00011  -0.00411  -0.04371  -0.04779   3.06451
    D4        1.02323  -0.00003  -0.00120  -0.04629  -0.04747   0.97575
    D5        0.99407  -0.00034  -0.00755  -0.04206  -0.04965   0.94442
    D6       -1.09501  -0.00026  -0.00465  -0.04465  -0.04933  -1.14434
    D7       -3.11380  -0.00006   0.00016   0.00236   0.00249  -3.11131
    D8       -0.96758   0.00023   0.00403   0.00526   0.00934  -0.95824
    D9        1.06949   0.00003   0.00042   0.00405   0.00447   1.07397
   D10       -1.02208  -0.00014  -0.00223   0.00368   0.00140  -1.02068
   D11        1.12414   0.00015   0.00163   0.00657   0.00825   1.13238
   D12       -3.12197  -0.00005  -0.00198   0.00537   0.00338  -3.11859
   D13       -3.11547   0.00012   0.00197  -0.00599  -0.00401  -3.11948
   D14       -0.99500   0.00018   0.00263  -0.00507  -0.00243  -0.99743
   D15        1.03783   0.00008   0.00118  -0.00553  -0.00435   1.03349
   D16        0.99401  -0.00023  -0.00375  -0.00677  -0.01052   0.98348
   D17        3.11448  -0.00018  -0.00309  -0.00585  -0.00894   3.10554
   D18       -1.13587  -0.00028  -0.00455  -0.00631  -0.01086  -1.14673
   D19       -1.03467  -0.00001  -0.00053  -0.00539  -0.00592  -1.04059
   D20        1.08580   0.00005   0.00013  -0.00447  -0.00434   1.08146
   D21        3.11863  -0.00006  -0.00133  -0.00493  -0.00626   3.11237
   D22        3.07170  -0.00001   0.00001   0.03513   0.03513   3.10684
   D23        0.99767   0.00001   0.00040   0.03246   0.03286   1.03053
   D24       -1.02588   0.00007   0.00109   0.03081   0.03190  -0.99398
   D25        0.94868  -0.00007  -0.00080   0.03394   0.03314   0.98183
   D26       -1.12535  -0.00004  -0.00040   0.03127   0.03087  -1.09448
   D27        3.13428   0.00002   0.00029   0.02962   0.02992  -3.11899
   D28       -1.09351   0.00003   0.00078   0.03668   0.03745  -1.05606
   D29        3.11564   0.00005   0.00117   0.03401   0.03518  -3.13236
   D30        1.09209   0.00012   0.00187   0.03236   0.03422   1.12632
   D31        1.29602   0.00025   0.00539   0.05412   0.05950   1.35552
   D32       -2.90286   0.00018   0.00383   0.05964   0.06346  -2.83940
   D33       -2.89942   0.00023   0.00527   0.05603   0.06129  -2.83813
   D34       -0.81512   0.00016   0.00371   0.06155   0.06525  -0.74987
   D35       -0.86244   0.00034   0.00720   0.05619   0.06341  -0.79903
   D36        1.22187   0.00028   0.00564   0.06171   0.06737   1.28924
   D37        3.03558  -0.00008  -0.00257  -0.01882  -0.02138   3.01421
   D38        0.92524  -0.00028  -0.00583  -0.01864  -0.02451   0.90074
   D39       -1.18865  -0.00016  -0.00293  -0.01830  -0.02122  -1.20988
   D40        0.95231  -0.00001  -0.00077  -0.02500  -0.02575   0.92656
   D41       -1.15803  -0.00021  -0.00403  -0.02482  -0.02888  -1.18691
   D42        3.01126  -0.00009  -0.00112  -0.02448  -0.02560   2.98566
         Item               Value     Threshold  Converged?
 Maximum Force            0.000445     0.000450     YES
 RMS     Force            0.000174     0.000300     YES
 Maximum Displacement     0.142348     0.001800     NO 
 RMS     Displacement     0.037278     0.001200     NO 
 Predicted change in Energy=-9.381343D-05
 GradGradGradGradGradGradGradGradGradGradGradGradGradGradGradGradGradGrad

                          Input orientation:                          
 ---------------------------------------------------------------------
 Center     Atomic      Atomic             Coordinates (Angstroms)
 Number     Number       Type             X           Y           Z
 ---------------------------------------------------------------------
      1          6           0        3.583220    0.038825   -0.183094
      2          7           0        2.282429    0.435205    0.351666
      3          6           0        1.188022   -0.390387   -0.161927
      4          6           0       -0.163980    0.074477    0.381355
      5          6           0       -1.326251   -0.791913   -0.115694
      6          7           0       -2.617710   -0.374692    0.442395
      7          6           0       -3.177858    0.814661   -0.199546
      8          1           0        3.841128   -0.961432    0.183922
      9          1           0        4.353052    0.732443    0.168096
     10          1           0        3.628054    0.006687   -1.286562
     11          1           0        2.105323    1.401666    0.082929
     12          1           0        1.157218   -0.407030   -1.268841
     13          1           0        1.374526   -1.426887    0.152563
     14          1           0       -0.143563    0.055030    1.477038
     15          1           0       -0.324908    1.120035    0.086018
     16          1           0       -1.152219   -1.828685    0.196636
     17          1           0       -1.332362   -0.790932   -1.222808
     18          1           0       -3.275301   -1.139410    0.313239
     19          1           0       -4.190815    0.987011    0.176012
     20          1           0       -3.226478    0.746878   -1.301329
     21          1           0       -2.581527    1.698451    0.048928
 ---------------------------------------------------------------------
                    Distance matrix (angstroms):
                    1          2          3          4          5
     1  C    0.000000
     2  N    1.461213   0.000000
     3  C    2.433443   1.463935   0.000000
     4  C    3.789642   2.473039   1.529433   0.000000
     5  C    4.979717   3.840159   2.546553   1.532503   0.000000
     6  N    6.246100   4.967447   3.853446   2.495249   1.467448
     7  C    6.805466   5.501142   4.529290   3.157337   2.452868
     8  H    1.096236   2.099590   2.735814   4.141616   5.178834
     9  H    1.094112   2.099887   3.374474   4.569680   5.887163
    10  H    1.104846   2.162897   2.715922   4.143196   5.153042
    11  H    2.027876   1.018643   2.028016   2.645794   4.077615
    12  H    2.695018   2.145111   1.107468   2.168078   2.765050
    13  H    2.671948   2.081181   1.099099   2.161815   2.787356
    14  H    4.079855   2.701191   2.158175   1.096045   2.157049
    15  H    4.063854   2.708832   2.152164   1.098323   2.167700
    16  H    5.104525   4.116556   2.770198   2.152385   1.096692
    17  H    5.092391   4.129055   2.763736   2.165038   1.107130
    18  H    6.976668   5.776612   4.550612   3.340431   2.025718
    19  H    7.839875   6.499095   5.562672   4.134040   3.384581
    20  H    6.937130   5.759999   4.698874   3.558433   2.717438
    21  H    6.388450   5.034432   4.314765   2.931267   2.793695
                    6          7          8          9         10
     6  N    0.000000
     7  C    1.463016   0.000000
     8  H    6.490583   7.250360   0.000000
     9  H    7.063463   7.540326   1.769613   0.000000
    10  H    6.491865   6.939371   1.773409   1.779993   0.000000
    11  H    5.058825   5.323192   2.933846   2.346784   2.477939
    12  H    4.144811   4.629126   3.101815   3.684636   2.505296
    13  H    4.138728   5.086524   2.510330   3.678935   3.033909
    14  H    2.715981   3.548932   4.310813   4.731993   4.675994
    15  H    2.760100   2.883422   4.658107   4.694707   4.330062
    16  H    2.078979   3.353722   5.068117   6.071919   5.330992
    17  H    2.144359   2.651575   5.364043   6.048075   5.024539
    18  H    1.016809   2.022582   7.119829   7.855996   7.178385
    19  H    2.097583   1.093998   8.264903   8.547662   8.014666
    20  H    2.160808   1.104936   7.421277   7.720666   6.894397
    21  H    2.110461   1.094731   6.952963   7.002553   6.573012
[...]
    20  H    0.146329   0.000000  -0.000000   0.000000  -0.000001   0.000168
    21  H    0.179604   0.000000  -0.000000   0.000000  -0.000004   0.000162
              13         14         15         16         17         18
     1  C   -0.003387   0.000127   0.000247  -0.000004  -0.000006  -0.000000
     2  N   -0.048517   0.004282  -0.006359  -0.000076  -0.000069   0.000000
     3  C    0.358056  -0.023872  -0.015051  -0.003720  -0.004203   0.000500
     4  C   -0.035237   0.331426   0.287088  -0.002471  -0.019446   0.015039
     5  C   -0.027639  -0.066323  -0.072885  -0.153862   0.080104  -0.150355
     6  N   -0.000314  -0.008661  -0.010532  -0.211337  -0.129097  -0.754506
     7  C    0.000056   0.000831  -0.003423   0.016187  -0.005195  -0.073186
     8  H    0.007958  -0.000001   0.000031   0.000009   0.000003   0.000000
     9  H   -0.000024  -0.000014  -0.000014  -0.000001  -0.000001  -0.000000
    10  H   -0.001480   0.000050   0.000012   0.000004   0.000012   0.000000
    11  H    0.007773  -0.000584   0.007009   0.000009  -0.000011  -0.000000
    12  H   -0.041411   0.008744   0.000283   0.005793   0.017597   0.000224
    13  H    0.657752  -0.003444   0.008504   0.018968   0.003057   0.000269
    14  H   -0.003444   0.640196  -0.020026   0.013610   0.010189   0.004972
    15  H    0.008504  -0.020026   0.677132   0.017252   0.013095   0.004984
    16  H    0.018968   0.013610   0.017252   1.055726   0.086288   0.161250
    17  H    0.003057   0.010189   0.013095   0.086288   0.728860   0.077305
    18  H    0.000269   0.004972   0.004984   0.161250   0.077305   1.557343
    19  H    0.000002   0.000449   0.002070   0.002639   0.006113   0.134842
    20  H    0.000016   0.000409   0.005153   0.005965   0.031050   0.068327
    21  H    0.000032   0.003203   0.020212   0.003326   0.010814   0.033659
              19         20         21
     1  C    0.000000  -0.000000   0.000000
     2  N   -0.000000  -0.000000  -0.000003
     3  C    0.000039   0.000147   0.000696
     4  C   -0.000155   0.000145  -0.008093
     5  C    0.011290  -0.008003   0.001101
     6  N   -0.199636  -0.118086  -0.087562
     7  C   -0.070778   0.146329   0.179604
     8  H    0.000000   0.000000   0.000000
     9  H   -0.000000  -0.000000  -0.000000
    10  H    0.000000   0.000000   0.000000
    11  H   -0.000000  -0.000001  -0.000004
    12  H    0.000007   0.000168   0.000162
    13  H    0.000002   0.000016   0.000032
    14  H    0.000449   0.000409   0.003203
    15  H    0.002070   0.005153   0.020212
    16  H    0.002639   0.005965   0.003326
    17  H    0.006113   0.031050   0.010814
    18  H    0.134842   0.068327   0.033659
    19  H    0.964549   0.070259   0.057312
    20  H    0.070259   0.643287   0.029247
    21  H    0.057312   0.029247   0.635094
 Mulliken charges:
               1
     1  C   -0.174892
     2  N   -0.519104
     3  C   -0.026953
     4  C   -0.182883
     5  C   -0.019952
     6  N   -0.101094
     7  C   -0.169725
     8  H    0.114616
     9  H    0.110684
    10  H    0.091714
    11  H    0.249791
    12  H    0.074036
    13  H    0.099011
    14  H    0.104437
    15  H    0.085217
    16  H   -0.015555
    17  H    0.093539
    18  H   -0.080668
    19  H    0.020996
    20  H    0.125586
    21  H    0.121199
 Sum of Mulliken charges =  -0.00000
 Mulliken charges with hydrogens summed into heavy atoms:
               1
     1  C    0.142122
     2  N   -0.269313
     3  C    0.146095
     4  C    0.006771
     5  C    0.058032
     6  N   -0.181762
     7  C    0.098056
 Electronic spatial extent (au):  <R**2>=           1484.8938
 Charge=              0.0000 electrons
 Dipole moment (field-independent basis, Debye):
    X=              1.3252    Y=             -1.9192    Z=              1.6124  Tot=              2.8354
 Quadrupole moment (field-independent basis, Debye-Ang):
   XX=            -52.1325   YY=            -48.2624   ZZ=            -49.2270
   XY=              3.7512   XZ=              1.2213   YZ=             -0.5392
 Traceless Quadrupole moment (field-independent basis, Debye-Ang):
   XX=             -2.2585   YY=              1.6116   ZZ=              0.6470
   XY=              3.7512   XZ=              1.2213   YZ=             -0.5392
 Octapole moment (field-independent basis, Debye-Ang**2):
  XXX=             55.9235  YYY=            -14.2073  ZZZ=              1.1735  XYY=             13.9130
  XXY=            -18.5813  XXZ=             10.2081  XZZ=             -1.7926  YZZ=             -1.0143
  YYZ=              0.8915  XYZ=             -0.8074
 Hexadecapole moment (field-independent basis, Debye-Ang**3):
 XXXX=          -1873.4187 YYYY=           -196.7362 ZZZZ=           -110.9595 XXXY=             40.7323
 XXXZ=            -10.2195 YYYX=             14.7382 YYYZ=              1.0520 ZZZX=              2.7225
 ZZZY=             -1.2490 XXYY=           -334.2863 XXZZ=           -321.4263 YYZZ=            -52.2229
 XXYZ=             -6.3885 YYXZ=             -4.2276 ZZXY=              4.7078
 N-N= 3.163705621746D+02 E-N=-1.346096324133D+03  KE= 3.055788388401D+02
 Evaluate density.
 Using the total density.
 Monte-Carlo method of calculating molar volume:
 based on  0.001 e/bohr**3 density envelope.
 Number of points per bohr**3 =   20 CutOff= 1.00D-04
 Using the CI density.
 There are       361 points.  Will hold       361 in memory.
 LenV=   805210949 MDV=   805306368.
 Box volume = 5881.961 fraction occupied=0.227
 Integrated density= 3.4437549649657058D+01 error=-2.3562450350342942D+01
 Molar volume = 1336.069 bohr**3/mol (119.229 cm**3/mol)
 Recommended a0 for SCRF calculation =  4.48 angstrom (  8.47 bohr)
 ******************************Gaussian NBO Version 3.1******************************
             N A T U R A L   A T O M I C   O R B I T A L   A N D
          N A T U R A L   B O N D   O R B I T A L   A N A L Y S I S
 ******************************Gaussian NBO Version 3.1******************************
       /RESON  / : Allow strongly delocalized NBO set

 Analyzing the CI density

 Job title: UQUPIHHYKUEXQD-UHFFFAOYSA-N_conf_2                              

 Storage needed:     93394 in NPA ( 805303953 available)
 GSVD:  LWork=       15841 too small for GESVD, short by       12971 words or       12971 for optimal perf.


 NATURAL POPULATIONS:  Natural atomic orbital occupancies 
                                                          
   NAO  Atom  No  lang   Type(AO)    Occupancy
 --------------------------------------------
     1    C    1  S      Cor( 1S)     1.99951
     2    C    1  S      Val( 2S)     1.09209
     3    C    1  S      Ryd( 3S)     0.00120
     4    C    1  S      Ryd( 4S)     0.00003
     5    C    1  px     Val( 2p)     0.96794
     6    C    1  px     Ryd( 3p)     0.00216
     7    C    1  py     Val( 2p)     1.22238
     8    C    1  py     Ryd( 3p)     0.00183
     9    C    1  pz     Val( 2p)     1.19422
    10    C    1  pz     Ryd( 3p)     0.00182
    11    C    1  dxy    Ryd( 3d)     0.00096
    12    C    1  dxz    Ryd( 3d)     0.00104
    13    C    1  dyz    Ryd( 3d)     0.00038
    14    C    1  dx2y2  Ryd( 3d)     0.00091
    15    C    1  dz2    Ryd( 3d)     0.00121

    16    N    2  S      Cor( 1S)     1.99957
    17    N    2  S      Val( 2S)     1.36105
    18    N    2  S      Ryd( 3S)     0.00069
    19    N    2  S      Ryd( 4S)     0.00002
    20    N    2  px     Val( 2p)     1.21347
    21    N    2  px     Ryd( 3p)     0.00155
    22    N    2  py     Val( 2p)     1.33670
    23    N    2  py     Ryd( 3p)     0.00187
    24    N    2  pz     Val( 2p)     1.75914
    25    N    2  pz     Ryd( 3p)     0.00606
    26    N    2  dxy    Ryd( 3d)     0.00035
    27    N    2  dxz    Ryd( 3d)     0.00114
    28    N    2  dyz    Ryd( 3d)     0.00105
    29    N    2  dx2y2  Ryd( 3d)     0.00062
    30    N    2  dz2    Ryd( 3d)     0.00124

    31    C    3  S      Cor( 1S)     1.99935
    32    C    3  S      Val( 2S)     1.01473
    33    C    3  S      Ryd( 3S)     0.00220
    34    C    3  S      Ryd( 4S)     0.00004
    35    C    3  px     Val( 2p)     0.94691
    36    C    3  px     Ryd( 3p)     0.00322
    37    C    3  py     Val( 2p)     1.11879
    38    C    3  py     Ryd( 3p)     0.00248
    39    C    3  pz     Val( 2p)     1.17529
    40    C    3  pz     Ryd( 3p)     0.00353
    41    C    3  dxy    Ryd( 3d)     0.00093
    42    C    3  dxz    Ryd( 3d)     0.00089
    43    C    3  dyz    Ryd( 3d)     0.00055
    44    C    3  dx2y2  Ryd( 3d)     0.00106
    45    C    3  dz2    Ryd( 3d)     0.00136

    46    C    4  S      Cor( 1S)     1.99931
    47    C    4  S      Val( 2S)     1.04802
    48    C    4  S      Ryd( 3S)     0.00105
    49    C    4  S      Ryd( 4S)     0.00002
    50    C    4  px     Val( 2p)     1.02958
    51    C    4  px     Ryd( 3p)     0.00618
    52    C    4  py     Val( 2p)     1.18230
    53    C    4  py     Ryd( 3p)     0.00355
    54    C    4  pz     Val( 2p)     1.21572
    55    C    4  pz     Ryd( 3p)     0.00288
    56    C    4  dxy    Ryd( 3d)     0.00056
    57    C    4  dxz    Ryd( 3d)     0.00043
    58    C    4  dyz    Ryd( 3d)     0.00031
    59    C    4  dx2y2  Ryd( 3d)     0.00079
    60    C    4  dz2    Ryd( 3d)     0.00104

    61    C    5  S      Cor( 1S)     1.99931
    62    C    5  S      Val( 2S)     1.05173
    63    C    5  S      Ryd( 3S)     0.00235
    64    C    5  S      Ryd( 4S)     0.00004
    65    C    5  px     Val( 2p)     0.89240
    66    C    5  px     Ryd( 3p)     0.00801
    67    C    5  py     Val( 2p)     1.19728
    68    C    5  py     Ryd( 3p)     0.00385
    69    C    5  pz     Val( 2p)     1.17914
    70    C    5  pz     Ryd( 3p)     0.00313
    71    C    5  dxy    Ryd( 3d)     0.00083
    72    C    5  dxz    Ryd( 3d)     0.00082
    73    C    5  dyz    Ryd( 3d)     0.00043
    74    C    5  dx2y2  Ryd( 3d)     0.00127
    75    C    5  dz2    Ryd( 3d)     0.00098

    76    N    6  S      Cor( 1S)     1.99935
    77    N    6  S      Val( 2S)     1.42073
    78    N    6  S      Ryd( 3S)     0.00838
    79    N    6  S      Ryd( 4S)     0.00008
    80    N    6  px     Val( 2p)     1.32111
    81    N    6  px     Ryd( 3p)     0.00160
    82    N    6  py     Val( 2p)     1.33731
    83    N    6  py     Ryd( 3p)     0.00191
    84    N    6  pz     Val( 2p)     1.12136
    85    N    6  pz     Ryd( 3p)     0.00058
    86    N    6  dxy    Ryd( 3d)     0.00093
    87    N    6  dxz    Ryd( 3d)     0.00073
    88    N    6  dyz    Ryd( 3d)     0.00060
    89    N    6  dx2y2  Ryd( 3d)     0.00044
    90    N    6  dz2    Ryd( 3d)     0.00040

    91    C    7  S      Cor( 1S)     1.99945
    92    C    7  S      Val( 2S)     1.12996
    93    C    7  S      Ryd( 3S)     0.00170
    94    C    7  S      Ryd( 4S)     0.00002
    95    C    7  px     Val( 2p)     1.22215
    96    C    7  px     Ryd( 3p)     0.00417
    97    C    7  py     Val( 2p)     1.03601
    98    C    7  py     Ryd( 3p)     0.01039
    99    C    7  pz     Val( 2p)     1.17031
   100    C    7  pz     Ryd( 3p)     0.00235
   101    C    7  dxy    Ryd( 3d)     0.00096
   102    C    7  dxz    Ryd( 3d)     0.00049
   103    C    7  dyz    Ryd( 3d)     0.00081
   104    C    7  dx2y2  Ryd( 3d)     0.00091
   105    C    7  dz2    Ryd( 3d)     0.00079

   106    H    8  S      Val( 1S)     0.77533
   107    H    8  S      Ryd( 2S)     0.00150
   108    H    8  px     Ryd( 2p)     0.00008
   109    H    8  py     Ryd( 2p)     0.00033
   110    H    8  pz     Ryd( 2p)     0.00012

   111    H    9  S      Val( 1S)     0.76625
   112    H    9  S      Ryd( 2S)     0.00118
   113    H    9  px     Ryd( 2p)     0.00021
   114    H    9  py     Ryd( 2p)     0.00020
   115    H    9  pz     Ryd( 2p)     0.00012

   116    H   10  S      Val( 1S)     0.79636
   117    H   10  S      Ryd( 2S)     0.00283
   118    H   10  px     Ryd( 2p)     0.00007
   119    H   10  py     Ryd( 2p)     0.00008
   120    H   10  pz     Ryd( 2p)     0.00039

   121    H   11  S      Val( 1S)     0.60791
   122    H   11  S      Ryd( 2S)     0.00415
   123    H   11  px     Ryd( 2p)     0.00028
   124    H   11  py     Ryd( 2p)     0.00057
   125    H   11  pz     Ryd( 2p)     0.00056

   126    H   12  S      Val( 1S)     0.79678
   127    H   12  S      Ryd( 2S)     0.00604
   128    H   12  px     Ryd( 2p)     0.00009
   129    H   12  py     Ryd( 2p)     0.00008
   130    H   12  pz     Ryd( 2p)     0.00040

   131    H   13  S      Val( 1S)     0.77211
   132    H   13  S      Ryd( 2S)     0.00491
   133    H   13  px     Ryd( 2p)     0.00010
   134    H   13  py     Ryd( 2p)     0.00035
   135    H   13  pz     Ryd( 2p)     0.00012

   136    H   14  S      Val( 1S)     0.75187
   137    H   14  S      Ryd( 2S)     0.00589
   138    H   14  px     Ryd( 2p)     0.00008
   139    H   14  py     Ryd( 2p)     0.00009
   140    H   14  pz     Ryd( 2p)     0.00036

   141    H   15  S      Val( 1S)     0.76414
   142    H   15  S      Ryd( 2S)     0.01253
   143    H   15  px     Ryd( 2p)     0.00013
   144    H   15  py     Ryd( 2p)     0.00033
   145    H   15  pz     Ryd( 2p)     0.00011

   146    H   16  S      Val( 1S)     0.81123
   147    H   16  S      Ryd( 2S)     0.04351
   148    H   16  px     Ryd( 2p)     0.00007
   149    H   16  py     Ryd( 2p)     0.00034
   150    H   16  pz     Ryd( 2p)     0.00009

   151    H   17  S      Val( 1S)     0.73715
   152    H   17  S      Ryd( 2S)     0.02775
   153    H   17  px     Ryd( 2p)     0.00008
   154    H   17  py     Ryd( 2p)     0.00010
   155    H   17  pz     Ryd( 2p)     0.00037

   156    H   18  S      Val( 1S)     0.76991
   157    H   18  S      Ryd( 2S)     0.10537
   158    H   18  px     Ryd( 2p)     0.00040
   159    H   18  py     Ryd( 2p)     0.00047
   160    H   18  pz     Ryd( 2p)     0.00019

   161    H   19  S      Val( 1S)     0.80370
   162    H   19  S      Ryd( 2S)     0.03376
   163    H   19  px     Ryd( 2p)     0.00032
   164    H   19  py     Ryd( 2p)     0.00008
   165    H   19  pz     Ryd( 2p)     0.00007

   166    H   20  S      Val( 1S)     0.72894
   167    H   20  S      Ryd( 2S)     0.02110
   168    H   20  px     Ryd( 2p)     0.00009
   169    H   20  py     Ryd( 2p)     0.00008
   170    H   20  pz     Ryd( 2p)     0.00035

   171    H   21  S      Val( 1S)     0.75353
   172    H   21  S      Ryd( 2S)     0.01262
   173    H   21  px     Ryd( 2p)     0.00017
   174    H   21  py     Ryd( 2p)     0.00028
   175    H   21  pz     Ryd( 2p)     0.00009


 Summary of Natural Population Analysis:                  
                                                          
                                       Natural Population 
                Natural  -----------------------------------------------
    Atom  No    Charge         Core      Valence    Rydberg      Total
 -----------------------------------------------------------------------
      C    1   -0.48768      1.99951     4.47664    0.01154     6.48768
      N    2   -0.68452      1.99957     5.67036    0.01460     7.68452
      C    3   -0.27134      1.99935     4.25572    0.01628     6.27134
      C    4   -0.49172      1.99931     4.47562    0.01679     6.49172
      C    5   -0.34157      1.99931     4.32055    0.02171     6.34157
      N    6   -0.21551      1.99935     5.20051    0.01566     7.21551
      C    7   -0.58047      1.99945     4.55843    0.02259     6.58047
      H    8    0.22265      0.00000     0.77533    0.00202     0.77735
      H    9    0.23205      0.00000     0.76625    0.00170     0.76795
      H   10    0.20027      0.00000     0.79636    0.00337     0.79973
      H   11    0.38654      0.00000     0.60791    0.00556     0.61346
      H   12    0.19662      0.00000     0.79678    0.00660     0.80338
      H   13    0.22242      0.00000     0.77211    0.00547     0.77758
      H   14    0.24171      0.00000     0.75187    0.00642     0.75829
      H   15    0.22277      0.00000     0.76414    0.01310     0.77723
      H   16    0.14476      0.00000     0.81123    0.04401     0.85524
      H   17    0.23455      0.00000     0.73715    0.02830     0.76545
      H   18    0.12367      0.00000     0.76991    0.10643     0.87633
      H   19    0.16207      0.00000     0.80370    0.03423     0.83793
      H   20    0.24944      0.00000     0.72894    0.02162     0.75056
      H   21    0.23332      0.00000     0.75353    0.01315     0.76668
 =======================================================================
   * Total *    0.00000     13.99583    43.59302    0.41115    58.00000

                                 Natural Population      
 --------------------------------------------------------
   Core                      13.99583 ( 99.9702% of  14)
   Valence                   43.59302 ( 99.0750% of  44)
   Natural Minimal Basis     57.58885 ( 99.2911% of  58)
   Natural Rydberg Basis      0.41115 (  0.7089% of  58)
 --------------------------------------------------------

    Atom  No          Natural Electron Configuration
 ----------------------------------------------------------------------------
      C    1      [core]2S( 1.09)2p( 3.38)3p( 0.01)
      N    2      [core]2S( 1.36)2p( 4.31)3p( 0.01)
      C    3      [core]2S( 1.01)2p( 3.24)3p( 0.01)
      C    4      [core]2S( 1.05)2p( 3.43)3p( 0.01)
      C    5      [core]2S( 1.05)2p( 3.27)3p( 0.01)
      N    6      [core]2S( 1.42)2p( 3.78)3S( 0.01)
      C    7      [core]2S( 1.13)2p( 3.43)3p( 0.02)
      H    8            1S( 0.78)
      H    9            1S( 0.77)
      H   10            1S( 0.80)
      H   11            1S( 0.61)
      H   12            1S( 0.80)2S( 0.01)
      H   13            1S( 0.77)
      H   14            1S( 0.75)2S( 0.01)
      H   15            1S( 0.76)2S( 0.01)
      H   16            1S( 0.81)2S( 0.04)
      H   17            1S( 0.74)2S( 0.03)
      H   18            1S( 0.77)2S( 0.11)
      H   19            1S( 0.80)2S( 0.03)
      H   20            1S( 0.73)2S( 0.02)
      H   21            1S( 0.75)2S( 0.01)


 NBO analysis skipped by request.
 1\1\GINC-CN33\SP\RB3LYP TD-FC\6-31G(d,p)\C5H14N2\QDUEZ\11-Jul-2024\0\\
 # TD(NStates=10, Root=1) B3LYP/6-31G** SCRF=(Solvent=water) volume pop
 =NPA density=current Geom=AllCheck Guess=Read\\UQUPIHHYKUEXQD-UHFFFAOY
 SA-N_conf_2\\0,1\C,0,3.5835440884,0.0402756158,-0.185730094\N,0,2.2833
 570256,0.4328055261,0.3541588333\C,0,1.1883756076,-0.3919060967,-0.159
 923011\C,0,-0.1632726644,0.0727321733,0.3844513305\C,0,-1.3263428284,-
 0.7920427154,-0.1136325076\N,0,-2.6181370517,-0.3721203192,0.442468677
 5\C,0,-3.1782456059,0.8152411629,-0.2032633085\H,0,3.8429396772,-0.962
 0060383,0.1744813436\H,0,4.3539228075,0.7320943091,0.1678808842\H,0,3.
 625885349,0.0150025077,-1.2893743645\H,0,2.104362265,1.3999389319,0.08
 91420309\H,0,1.1569153075,-0.4072665561,-1.2668364536\H,0,1.3745844031
 ,-1.4288852771,0.1531683569\H,0,-0.1424731915,0.052164277,1.4801512572
 \H,0,-0.3239862256,1.1186877515,0.0903414455\H,0,-1.154241661,-1.82908
 28048,0.1988527048\H,0,-1.3310527911,-0.7913356359,-1.2206300003\H,0,-
 3.2759487935,-1.1370016399,0.3158689116\H,0,-4.1909915322,0.9891396912
 ,0.172236473\H,0,-3.2275635067,0.7438097661,-1.304747627\H,0,-2.581630
 6791,1.6997553707,0.0419304069\\Version=EM64L-G16RevA.03\State=1-A\HF=
 -308.4680606\RMSD=1.959e-09\Dipole=0.5182553,0.7527805,-0.6396413\Quad
 rupole=-1.7338592,1.2323185,0.5015406,-2.7749429,-0.8874902,-0.3613222
 \PG=C01 [X(C5H14N2)]\\@


 KNOWLEDGE IS CHIMERA - FOR BEYOND IT LIES OTHER KNOWLEDGE,
 AND THE INCOMPLETENESS OF WHAT IS KNOWN RENDERS THE KNOWING FALSE.
     -- THE THOMAS COVENANT CHRONICLES
 Job cpu time:       0 days  0 hours 39 minutes 16.8 seconds.
 Elapsed time:       0 days  0 hours 19 minutes 44.5 seconds.
 File lengths (MBytes):  RWF=    306 Int=      0 D2E=      0 Chk=     19 Scr=      1
 Normal termination of Gaussian 16 at Thu Jul 11 19:39:28 2024.
