 Entering Gaussian System, Link 0=g16
 Initial command:
 /opt/sw/arch/manual/gaussian/G16_A03/g16/l1.exe "/scratch/1381409/Gau-252906.inp" -scrdir="/scratch/1381409/"
 Entering Link 1 = /opt/sw/arch/manual/gaussian/G16_A03/g16/l1.exe PID=    252907.
  
 Copyright (c) 1988,1990,1992,1993,1995,1998,2003,2009,2016,
            Gaussian, Inc.  All Rights Reserved.
  
 This is part of the Gaussian(R) 16 program.  It is based on
 the Gaussian(R) 09 system (copyright 2009, Gaussian, Inc.),
 the Gaussian(R) 03 system (copyright 2003, Gaussian, Inc.),
 the Gaussian(R) 98 system (copyright 1998, Gaussian, Inc.),
 the Gaussian(R) 94 system (copyright 1995, Gaussian, Inc.),
 the Gaussian 92(TM) system (copyright 1992, Gaussian, Inc.),
 the Gaussian 90(TM) system (copyright 1990, Gaussian, Inc.),
 the Gaussian 88(TM) system (copyright 1988, Gaussian, Inc.),
 the Gaussian 86(TM) system (copyright 1986, Carnegie Mellon
 University), and the Gaussian 82(TM) system (copyright 1983,
 Carnegie Mellon University). Gaussian is a federally registered
 trademark of Gaussian, Inc.
  
 This software contains proprietary and confidential information,
 including trade secrets, belonging to Gaussian, Inc.
  
 This software is provided under written license and may be
 used, copied, transmitted, or stored only in accord with that
 written license.
  
 The following legend is applicable only to US Government
 contracts under FAR:
  
                    RESTRICTED RIGHTS LEGEND
  
 Use, reproduction and disclosure by the US Government is
 subject to restrictions as set forth in subparagraphs (a)
 and (c) of the Commercial Computer Software - Restricted
 Rights clause in FAR 52.227-19.
  
 Gaussian, Inc.
 340 Quinnipiac St., Bldg. 40, Wallingford CT 06492
  
  
 ---------------------------------------------------------------
 Warning -- This program may not be used in any manner that
 competes with the business of Gaussian, Inc. or will provide
 assistance to any competitor of Gaussian, Inc.  The licensee
 of this program is prohibited from giving any competitor of
 Gaussian, Inc. access to this program.  By using this program,
 the user acknowledges that Gaussian, Inc. is engaged in the
 business of creating and licensing software in the field of
 computational chemistry and represents and warrants to the
 licensee that it is not a competitor of Gaussian, Inc. and that
 it will not use this program in any manner prohibited above.
 ---------------------------------------------------------------
  

 Cite this work as:
 Gaussian 16, Revision A.03,
 M. J. Frisch, G. W. Trucks, H. B. Schlegel, G. E. Scuseria, 
 M. A. Robb, J. R. Cheeseman, G. Scalmani, V. Barone, 
 G. A. Petersson, H. Nakatsuji, X. Li, M. Caricato, A. V. Marenich, 
 J. Bloino, B. G. Janesko, R. Gomperts, B. Mennucci, H. P. Hratchian, 
 J. V. Ortiz, A. F. Izmaylov, J. L. Sonnenberg, D. Williams-Young, 
 F. Ding, F. Lipparini, F. Egidi, J. Goings, B. Peng, A. Petrone, 
 T. Henderson, D. Ranasinghe, V. G. Zakrzewski, J. Gao, N. Rega, 
 G. Zheng, W. Liang, M. Hada, M. Ehara, K. Toyota, R. Fukuda, 
 J. Hasegawa, M. Ishida, T. Nakajima, Y. Honda, O. Kitao, H. Nakai, 
 T. Vreven, K. Throssell, J. A. Montgomery, Jr., J. E. Peralta, 
 F. Ogliaro, M. J. Bearpark, J. J. Heyd, E. N. Brothers, K. N. Kudin, 
 V. N. Staroverov, T. A. Keith, R. Kobayashi, J. Normand, 
 K. Raghavachari, A. P. Rendell, J. C. Burant, S. S. Iyengar, 
 J. Tomasi, M. Cossi, J. M. Millam, M. Klene, C. Adamo, R. Cammi, 
 J. W. Ochterski, R. L. Martin, K. Morokuma, O. Farkas, 
 J. B. Foresman, and D. J. Fox, Gaussian, Inc., Wallingford CT, 2016.
 
 ******************************************
 Gaussian 16:  ES64L-G16RevA.03 25-Dec-2016
                19-Jul-2024 
 ******************************************
 %nprocshared=6
 Will use up to    6 processors via shared memory.
 %mem=12GB
 %Chk=WUPRYUDHUFLKFL-UHFFFAOYSA-N_conf_0_0.chk
 -------------------------------------------------------
 # opt=CalcFc B3LYP/6-31G** SCRF=(Solvent=water) scf=xqc
 -------------------------------------------------------
 1/10=4,18=20,19=15,26=3,38=1/1,3;
 2/9=110,12=2,17=6,18=5,40=1/2;
 3/5=1,6=6,7=101,11=2,25=1,30=1,70=2201,71=2,72=1,74=-5,140=1/1,2,3;
 4//1;
 5/5=2,8=3,13=1,38=5,53=1/2,8;
 8/6=4,10=90,11=11/1;
 11/6=1,8=1,9=11,15=111,16=1/1,2,10;
 10/6=1,13=1/2;
 6/7=2,8=2,9=2,10=2,28=1/1;
 7/10=1,18=20,25=1/1,2,3,16;
 1/10=4,18=20,19=15,26=3/3(2);
 2/9=110/2;
 99//99;
 2/9=110/2;
 3/5=1,6=6,7=101,11=2,25=1,30=1,70=2205,71=1,72=1,74=-5/1,2,3;
 4/5=5,16=3,69=1/1;
 5/5=2,8=3,13=1,38=5,53=1/2,8;
 7//1,2,3,16;
 1/18=20,19=15,26=3/3(-5);
 2/9=110/2;
 6/7=2,8=2,9=2,10=2,19=2,28=1/1;
 99/9=1/99;
 ----------------------------------
 WUPRYUDHUFLKFL-UHFFFAOYSA-N_conf_0
 ----------------------------------
 Symbolic Z-matrix:
 Charge =  0 Multiplicity = 1
 N                     7.41489   0.1483   -0.21043 
 C                     6.066    -0.03796   0.11227 
 C                     5.10864  -0.14456  -0.9008 
 C                     3.77778  -0.44742  -0.59827 
 C                     3.40307  -0.67302   0.72653 
 O                     2.12068  -1.01262   1.09185 
 C                     1.09501  -0.2627    0.56226 
 C                     0.00067  -0.95786   0.0492 
 C                    -1.08871  -0.25064  -0.45807 
 O                    -2.11858  -0.99098  -0.99354 
 C                    -3.40102  -0.62816  -0.65236 
 C                    -4.33448  -0.55025  -1.6835 
 C                    -5.66064  -0.21489  -1.39778 
 C                    -6.07736  -0.01375  -0.07873 
 N                    -7.37453   0.43846   0.18897 
 C                    -5.12392  -0.06084   0.94266 
 C                    -3.79537  -0.39581   0.66556 
 C                    -1.07642   1.14753  -0.4745 
 C                     0.01097   1.83923   0.0616 
 C                     1.09334   1.13513   0.59132 
 C                     4.36427  -0.65005   1.73449 
 C                     5.69261  -0.34665   1.42343 
 H                     7.97325   0.51592   0.55338 
 H                     7.56359   0.65623  -1.07664 
 H                     5.39219   0.002    -1.93955 
 H                     3.05081  -0.52486  -1.40157 
 H                    -0.00292  -2.04372   0.0445 
 H                    -4.02852  -0.73084  -2.70994 
 H                    -6.36806  -0.11682  -2.21665 
 H                    -7.68366   0.25679   1.13874 
 H                    -8.06024   0.14795  -0.50094 
 H                    -5.40921   0.15669   1.96837 
 H                    -3.07951  -0.46413   1.47955 
 H                    -1.90833   1.70305  -0.89939 
 H                     0.01429   2.92615   0.0667 
 H                     1.92929   1.67979   1.02179 
 H                     4.08458  -0.87736   2.75914 
 H                     6.43556  -0.35734   2.21626 
 

 GradGradGradGradGradGradGradGradGradGradGradGradGradGradGradGradGradGrad
 Berny optimization.
 Initialization pass.
                           ----------------------------
                           !    Initial Parameters    !
                           ! (Angstroms and Degrees)  !
 --------------------------                            --------------------------
 ! Name  Definition              Value          Derivative Info.                !
 --------------------------------------------------------------------------------
 ! R1    R(1,2)                  1.3994         calculate D2E/DX2 analytically  !
 ! R2    R(1,23)                 1.015          calculate D2E/DX2 analytically  !
 ! R3    R(1,24)                 1.0151         calculate D2E/DX2 analytically  !
 ! R4    R(2,3)                  1.3979         calculate D2E/DX2 analytically  !
 ! R5    R(2,22)                 1.3978         calculate D2E/DX2 analytically  !
 ! R6    R(3,4)                  1.398          calculate D2E/DX2 analytically  !
 ! R7    R(3,25)                 1.0867         calculate D2E/DX2 analytically  !
 ! R8    R(4,5)                  1.3951         calculate D2E/DX2 analytically  !
 ! R9    R(4,26)                 1.0862         calculate D2E/DX2 analytically  !
 ! R10   R(5,6)                  1.376          calculate D2E/DX2 analytically  !
 ! R11   R(5,21)                 1.393          calculate D2E/DX2 analytically  !
 ! R12   R(6,7)                  1.3765         calculate D2E/DX2 analytically  !
 ! R13   R(7,8)                  1.3943         calculate D2E/DX2 analytically  !
 ! R14   R(7,20)                 1.3981         calculate D2E/DX2 analytically  !
 ! R15   R(8,9)                  1.3944         calculate D2E/DX2 analytically  !
 ! R16   R(8,27)                 1.0859         calculate D2E/DX2 analytically  !
 ! R17   R(9,10)                 1.3768         calculate D2E/DX2 analytically  !
 ! R18   R(9,18)                 1.3983         calculate D2E/DX2 analytically  !
 ! R19   R(10,11)                1.3758         calculate D2E/DX2 analytically  !
 ! R20   R(11,12)                1.3931         calculate D2E/DX2 analytically  !
 ! R21   R(11,17)                1.3951         calculate D2E/DX2 analytically  !
 ! R22   R(12,13)                1.3974         calculate D2E/DX2 analytically  !
 ! R23   R(12,28)                1.0862         calculate D2E/DX2 analytically  !
 ! R24   R(13,14)                1.3979         calculate D2E/DX2 analytically  !
 ! R25   R(13,29)                1.0866         calculate D2E/DX2 analytically  !
 ! R26   R(14,15)                1.3996         calculate D2E/DX2 analytically  !
 ! R27   R(14,16)                1.398          calculate D2E/DX2 analytically  !
 ! R28   R(15,30)                1.0152         calculate D2E/DX2 analytically  !
 ! R29   R(15,31)                1.0152         calculate D2E/DX2 analytically  !
 ! R30   R(16,17)                1.3979         calculate D2E/DX2 analytically  !
 ! R31   R(16,32)                1.0866         calculate D2E/DX2 analytically  !
 ! R32   R(17,33)                1.0861         calculate D2E/DX2 analytically  !
 ! R33   R(18,19)                1.3958         calculate D2E/DX2 analytically  !
 ! R34   R(18,34)                1.0868         calculate D2E/DX2 analytically  !
 ! R35   R(19,20)                1.3957         calculate D2E/DX2 analytically  !
 ! R36   R(19,35)                1.0869         calculate D2E/DX2 analytically  !
 ! R37   R(20,36)                1.0866         calculate D2E/DX2 analytically  !
 ! R38   R(21,22)                1.3976         calculate D2E/DX2 analytically  !
 ! R39   R(21,37)                1.0862         calculate D2E/DX2 analytically  !
 ! R40   R(22,38)                1.0866         calculate D2E/DX2 analytically  !
 ! A1    A(2,1,23)             113.8854         calculate D2E/DX2 analytically  !
 ! A2    A(2,1,24)             113.8647         calculate D2E/DX2 analytically  !
 ! A3    A(23,1,24)            112.3534         calculate D2E/DX2 analytically  !
 ! A4    A(1,2,3)              120.2088         calculate D2E/DX2 analytically  !
 ! A5    A(1,2,22)             120.2106         calculate D2E/DX2 analytically  !
 ! A6    A(3,2,22)             118.6854         calculate D2E/DX2 analytically  !
 ! A7    A(2,3,4)              120.7727         calculate D2E/DX2 analytically  !
 ! A8    A(2,3,25)             120.2484         calculate D2E/DX2 analytically  !
 ! A9    A(4,3,25)             118.978          calculate D2E/DX2 analytically  !
 ! A10   A(3,4,5)              119.7495         calculate D2E/DX2 analytically  !
 ! A11   A(3,4,26)             119.5076         calculate D2E/DX2 analytically  !
 ! A12   A(5,4,26)             120.7303         calculate D2E/DX2 analytically  !
 ! A13   A(4,5,6)              122.8431         calculate D2E/DX2 analytically  !
 ! A14   A(4,5,21)             119.9415         calculate D2E/DX2 analytically  !
 ! A15   A(6,5,21)             117.0686         calculate D2E/DX2 analytically  !
 ! A16   A(5,6,7)              117.2474         calculate D2E/DX2 analytically  !
 ! A17   A(6,7,8)              117.0499         calculate D2E/DX2 analytically  !
 ! A18   A(6,7,20)             122.5178         calculate D2E/DX2 analytically  !
 ! A19   A(8,7,20)             120.3432         calculate D2E/DX2 analytically  !
 ! A20   A(7,8,9)              119.6162         calculate D2E/DX2 analytically  !
 ! A21   A(7,8,27)             120.1827         calculate D2E/DX2 analytically  !
 ! A22   A(9,8,27)             120.2011         calculate D2E/DX2 analytically  !
 ! A23   A(8,9,10)             116.9477         calculate D2E/DX2 analytically  !
 ! A24   A(8,9,18)             120.3025         calculate D2E/DX2 analytically  !
 ! A25   A(10,9,18)            122.6619         calculate D2E/DX2 analytically  !
 ! A26   A(9,10,11)            117.325          calculate D2E/DX2 analytically  !
 ! A27   A(10,11,12)           117.117          calculate D2E/DX2 analytically  !
 ! A28   A(10,11,17)           122.7979         calculate D2E/DX2 analytically  !
 ! A29   A(12,11,17)           120.0334         calculate D2E/DX2 analytically  !
 ! A30   A(11,12,13)           119.8666         calculate D2E/DX2 analytically  !
 ! A31   A(11,12,28)           120.0945         calculate D2E/DX2 analytically  !
 ! A32   A(13,12,28)           120.0283         calculate D2E/DX2 analytically  !
 ! A33   A(12,13,14)           120.6887         calculate D2E/DX2 analytically  !
 ! A34   A(12,13,29)           119.0407         calculate D2E/DX2 analytically  !
 ! A35   A(14,13,29)           120.2699         calculate D2E/DX2 analytically  !
 ! A36   A(13,14,15)           120.2171         calculate D2E/DX2 analytically  !
 ! A37   A(13,14,16)           118.7669         calculate D2E/DX2 analytically  !
 ! A38   A(15,14,16)           120.214          calculate D2E/DX2 analytically  !
 ! A39   A(14,15,30)           113.7874         calculate D2E/DX2 analytically  !
 ! A40   A(14,15,31)           113.8034         calculate D2E/DX2 analytically  !
 ! A41   A(30,15,31)           112.2665         calculate D2E/DX2 analytically  !
 ! A42   A(14,16,17)           120.758          calculate D2E/DX2 analytically  !
 ! A43   A(14,16,32)           120.2541         calculate D2E/DX2 analytically  !
 ! A44   A(17,16,32)           118.9865         calculate D2E/DX2 analytically  !
 ! A45   A(11,17,16)           119.7231         calculate D2E/DX2 analytically  !
 ! A46   A(11,17,33)           120.7423         calculate D2E/DX2 analytically  !
 ! A47   A(16,17,33)           119.5326         calculate D2E/DX2 analytically  !
 ! A48   A(9,18,19)            119.8565         calculate D2E/DX2 analytically  !
 ! A49   A(9,18,34)            120.5942         calculate D2E/DX2 analytically  !
 ! A50   A(19,18,34)           119.5491         calculate D2E/DX2 analytically  !
 ! A51   A(18,19,20)           119.9957         calculate D2E/DX2 analytically  !
 ! A52   A(18,19,35)           119.9818         calculate D2E/DX2 analytically  !
 ! A53   A(20,19,35)           120.0224         calculate D2E/DX2 analytically  !
 ! A54   A(7,20,19)            119.8295         calculate D2E/DX2 analytically  !
 ! A55   A(7,20,36)            120.5601         calculate D2E/DX2 analytically  !
 ! A56   A(19,20,36)           119.6103         calculate D2E/DX2 analytically  !
 ! A57   A(5,21,22)            119.8915         calculate D2E/DX2 analytically  !
 ! A58   A(5,21,37)            120.0966         calculate D2E/DX2 analytically  !
 ! A59   A(22,21,37)           120.0089         calculate D2E/DX2 analytically  !
 ! A60   A(2,22,21)            120.704          calculate D2E/DX2 analytically  !
 ! A61   A(2,22,38)            120.262          calculate D2E/DX2 analytically  !
 ! A62   A(21,22,38)           119.0336         calculate D2E/DX2 analytically  !
 ! D1    D(23,1,2,3)           160.7331         calculate D2E/DX2 analytically  !
 ! D2    D(23,1,2,22)          -30.2366         calculate D2E/DX2 analytically  !
 ! D3    D(24,1,2,3)            30.1359         calculate D2E/DX2 analytically  !
 ! D4    D(24,1,2,22)         -160.8338         calculate D2E/DX2 analytically  !
 ! D5    D(1,2,3,4)            174.346          calculate D2E/DX2 analytically  !
 ! D6    D(1,2,3,25)            -5.2936         calculate D2E/DX2 analytically  !
 ! D7    D(22,2,3,4)             5.15           calculate D2E/DX2 analytically  !
 ! D8    D(22,2,3,25)         -174.4896         calculate D2E/DX2 analytically  !
 ! D9    D(1,2,22,21)         -174.3477         calculate D2E/DX2 analytically  !
 ! D10   D(1,2,22,38)            5.4224         calculate D2E/DX2 analytically  !
 ! D11   D(3,2,22,21)           -5.1519         calculate D2E/DX2 analytically  !
 ! D12   D(3,2,22,38)          174.6181         calculate D2E/DX2 analytically  !
 ! D13   D(2,3,4,5)             -1.3039         calculate D2E/DX2 analytically  !
 ! D14   D(2,3,4,26)           179.9748         calculate D2E/DX2 analytically  !
 ! D15   D(25,3,4,5)           178.3402         calculate D2E/DX2 analytically  !
 ! D16   D(25,3,4,26)           -0.3811         calculate D2E/DX2 analytically  !
 ! D17   D(3,4,5,6)           -178.0965         calculate D2E/DX2 analytically  !
 ! D18   D(3,4,5,21)            -2.6335         calculate D2E/DX2 analytically  !
 ! D19   D(26,4,5,6)             0.6088         calculate D2E/DX2 analytically  !
 ! D20   D(26,4,5,21)          176.0718         calculate D2E/DX2 analytically  !
 ! D21   D(4,5,6,7)            -47.8131         calculate D2E/DX2 analytically  !
 ! D22   D(21,5,6,7)           136.6018         calculate D2E/DX2 analytically  !
 ! D23   D(4,5,21,22)            2.6318         calculate D2E/DX2 analytically  !
 ! D24   D(4,5,21,37)         -176.7463         calculate D2E/DX2 analytically  !
 ! D25   D(6,5,21,22)          178.3516         calculate D2E/DX2 analytically  !
 ! D26   D(6,5,21,37)           -1.0265         calculate D2E/DX2 analytically  !
 ! D27   D(5,6,7,8)            133.8609         calculate D2E/DX2 analytically  !
 ! D28   D(5,6,7,20)           -49.5634         calculate D2E/DX2 analytically  !
 ! D29   D(6,7,8,9)            177.7893         calculate D2E/DX2 analytically  !
 ! D30   D(6,7,8,27)            -2.2291         calculate D2E/DX2 analytically  !
 ! D31   D(20,7,8,9)             1.1349         calculate D2E/DX2 analytically  !
 ! D32   D(20,7,8,27)         -178.8835         calculate D2E/DX2 analytically  !
 ! D33   D(6,7,20,19)         -178.7042         calculate D2E/DX2 analytically  !
 ! D34   D(6,7,20,36)            1.4012         calculate D2E/DX2 analytically  !
 ! D35   D(8,7,20,19)           -2.2381         calculate D2E/DX2 analytically  !
 ! D36   D(8,7,20,36)          177.8674         calculate D2E/DX2 analytically  !
 ! D37   D(7,8,9,10)           177.782          calculate D2E/DX2 analytically  !
 ! D38   D(7,8,9,18)             1.1024         calculate D2E/DX2 analytically  !
 ! D39   D(27,8,9,10)           -2.1996         calculate D2E/DX2 analytically  !
 ! D40   D(27,8,9,18)         -178.8791         calculate D2E/DX2 analytically  !
 ! D41   D(8,9,10,11)          135.3906         calculate D2E/DX2 analytically  !
 ! D42   D(18,9,10,11)         -48.0147         calculate D2E/DX2 analytically  !
 ! D43   D(8,9,18,19)           -2.2308         calculate D2E/DX2 analytically  !
 ! D44   D(8,9,18,34)          177.9223         calculate D2E/DX2 analytically  !
 ! D45   D(10,9,18,19)        -178.7147         calculate D2E/DX2 analytically  !
 ! D46   D(10,9,18,34)           1.4384         calculate D2E/DX2 analytically  !
 ! D47   D(9,10,11,12)         134.0516         calculate D2E/DX2 analytically  !
 ! D48   D(9,10,11,17)         -48.5674         calculate D2E/DX2 analytically  !
 ! D49   D(10,11,12,13)        178.6329         calculate D2E/DX2 analytically  !
 ! D50   D(10,11,12,28)         -2.5511         calculate D2E/DX2 analytically  !
 ! D51   D(17,11,12,13)          1.1759         calculate D2E/DX2 analytically  !
 ! D52   D(17,11,12,28)        179.9918         calculate D2E/DX2 analytically  !
 ! D53   D(10,11,17,16)       -178.4848         calculate D2E/DX2 analytically  !
 ! D54   D(10,11,17,33)          2.0229         calculate D2E/DX2 analytically  !
 ! D55   D(12,11,17,16)         -1.1776         calculate D2E/DX2 analytically  !
 ! D56   D(12,11,17,33)        179.3301         calculate D2E/DX2 analytically  !
 ! D57   D(11,12,13,14)         -2.8618         calculate D2E/DX2 analytically  !
 ! D58   D(11,12,13,29)        177.4399         calculate D2E/DX2 analytically  !
 ! D59   D(28,12,13,14)        178.3215         calculate D2E/DX2 analytically  !
 ! D60   D(28,12,13,29)         -1.3768         calculate D2E/DX2 analytically  !
 ! D61   D(12,13,14,15)        174.2391         calculate D2E/DX2 analytically  !
 ! D62   D(12,13,14,16)          4.4709         calculate D2E/DX2 analytically  !
 ! D63   D(29,13,14,15)         -6.0663         calculate D2E/DX2 analytically  !
 ! D64   D(29,13,14,16)       -175.8345         calculate D2E/DX2 analytically  !
 ! D65   D(13,14,15,30)        160.3872         calculate D2E/DX2 analytically  !
 ! D66   D(13,14,15,31)         30.0688         calculate D2E/DX2 analytically  !
 ! D67   D(16,14,15,30)        -29.9934         calculate D2E/DX2 analytically  !
 ! D68   D(16,14,15,31)       -160.3118         calculate D2E/DX2 analytically  !
 ! D69   D(13,14,16,17)         -4.4775         calculate D2E/DX2 analytically  !
 ! D70   D(13,14,16,32)        175.9609         calculate D2E/DX2 analytically  !
 ! D71   D(15,14,16,17)       -174.2461         calculate D2E/DX2 analytically  !
 ! D72   D(15,14,16,32)          6.1924         calculate D2E/DX2 analytically  !
 ! D73   D(14,16,17,11)          2.8682         calculate D2E/DX2 analytically  !
 ! D74   D(14,16,17,33)       -177.6333         calculate D2E/DX2 analytically  !
 ! D75   D(32,16,17,11)       -177.5647         calculate D2E/DX2 analytically  !
 ! D76   D(32,16,17,33)          1.9338         calculate D2E/DX2 analytically  !
 ! D77   D(9,18,19,20)           1.1193         calculate D2E/DX2 analytically  !
 ! D78   D(9,18,19,35)        -178.8576         calculate D2E/DX2 analytically  !
 ! D79   D(34,18,19,20)       -179.0322         calculate D2E/DX2 analytically  !
 ! D80   D(34,18,19,35)          0.9909         calculate D2E/DX2 analytically  !
 ! D81   D(18,19,20,7)           1.1007         calculate D2E/DX2 analytically  !
 ! D82   D(18,19,20,36)       -179.0038         calculate D2E/DX2 analytically  !
 ! D83   D(35,19,20,7)        -178.9225         calculate D2E/DX2 analytically  !
 ! D84   D(35,19,20,36)          0.9731         calculate D2E/DX2 analytically  !
 ! D85   D(5,21,22,2)            1.3095         calculate D2E/DX2 analytically  !
 ! D86   D(5,21,22,38)        -178.4633         calculate D2E/DX2 analytically  !
 ! D87   D(37,21,22,2)        -179.3118         calculate D2E/DX2 analytically  !
 ! D88   D(37,21,22,38)          0.9154         calculate D2E/DX2 analytically  !
 --------------------------------------------------------------------------------
 Trust Radius=3.00D-01 FncErr=1.00D-07 GrdErr=1.00D-06 EigMax=2.50D+02 EigMin=1.00D-04
 Number of steps in this run=    200 maximum allowed number of steps=    228.
 GradGradGradGradGradGradGradGradGradGradGradGradGradGradGradGradGradGrad

                          Input orientation:                          
 ---------------------------------------------------------------------
 Center     Atomic      Atomic             Coordinates (Angstroms)
 Number     Number       Type             X           Y           Z
 ---------------------------------------------------------------------
      1          7           0        7.414891    0.148301   -0.210431
      2          6           0        6.065996   -0.037964    0.112268
      3          6           0        5.108645   -0.144558   -0.900803
      4          6           0        3.777777   -0.447419   -0.598266
      5          6           0        3.403066   -0.673021    0.726531
      6          8           0        2.120679   -1.012617    1.091847
      7          6           0        1.095011   -0.262702    0.562257
      8          6           0        0.000673   -0.957862    0.049199
      9          6           0       -1.088705   -0.250636   -0.458068
     10          8           0       -2.118579   -0.990975   -0.993543
     11          6           0       -3.401024   -0.628162   -0.652361
     12          6           0       -4.334485   -0.550253   -1.683497
     13          6           0       -5.660644   -0.214892   -1.397781
     14          6           0       -6.077362   -0.013747   -0.078728
     15          7           0       -7.374535    0.438458    0.188965
     16          6           0       -5.123925   -0.060843    0.942663
     17          6           0       -3.795370   -0.395806    0.665561
     18          6           0       -1.076423    1.147532   -0.474504
     19          6           0        0.010972    1.839232    0.061601
     20          6           0        1.093342    1.135127    0.591319
     21          6           0        4.364275   -0.650051    1.734492
     22          6           0        5.692609   -0.346646    1.423426
     23          1           0        7.973248    0.515921    0.553380
     24          1           0        7.563594    0.656228   -1.076641
     25          1           0        5.392194    0.001999   -1.939548
     26          1           0        3.050813   -0.524858   -1.401571
     27          1           0       -0.002921   -2.043717    0.044497
     28          1           0       -4.028524   -0.730838   -2.709943
     29          1           0       -6.368060   -0.116820   -2.216653
     30          1           0       -7.683662    0.256794    1.138742
     31          1           0       -8.060241    0.147955   -0.500935
     32          1           0       -5.409205    0.156692    1.968366
     33          1           0       -3.079506   -0.464132    1.479549
     34          1           0       -1.908327    1.703051   -0.899394
     35          1           0        0.014286    2.926145    0.066703
     36          1           0        1.929293    1.679787    1.021794
     37          1           0        4.084576   -0.877363    2.759143
     38          1           0        6.435556   -0.357339    2.216255
 ---------------------------------------------------------------------
                    Distance matrix (angstroms):
                    1          2          3          4          5
     1  N    0.000000
     2  C    1.399410   0.000000
     3  C    2.425108   1.397925   0.000000
     4  C    3.705927   2.430732   1.398021   0.000000
     5  C    4.200858   2.805675   2.415882   1.395131   0.000000
     6  O    5.574257   4.180317   3.694877   2.433496   1.375971
     7  C    6.380192   4.996367   4.273611   2.928850   2.349992
     8  C    7.500775   6.135008   5.258834   3.866041   3.480831
     9  C    8.516550   7.180547   6.214050   4.872476   4.664514
    10  O    9.633185   8.313742   7.277210   5.934535   5.792090
    11  C   10.852752   9.516168   8.527020   7.181280   6.942550
    12  C   11.861945  10.566798   9.484192   8.185175   8.105121
    13  C   13.134357  11.824789  10.780979   9.475077   9.320591
    14  C   13.493869  12.144884  11.216936   9.878348   9.537378
    15  N   14.797663  13.449190  12.544213  11.215104  10.848089
    16  C   12.593462  11.220713  10.397637   9.042356   8.551669
    17  C   11.257592   9.883356   9.044230   7.678051   7.204029
    18  C    8.553982   7.263872   6.332952   5.111011   4.982240
    19  C    7.599426   6.339538   5.554090   4.455672   4.273154
    20  C    6.448148   5.131561   4.470646   3.335529   2.936410
    21  C    3.704910   2.429427   2.784670   2.413876   1.392996
    22  C    2.425019   1.397797   2.404972   2.786391   2.415407
    23  H    1.015044   2.034448   3.279761   4.456040   4.725477
    24  H    1.015097   2.034258   2.588233   3.972315   4.725285
    25  H    2.665061   2.159990   1.086679   2.146476   3.394151
    26  H    4.573526   3.408827   2.151760   1.086174   2.162140
    27  H    7.739112   6.392135   5.534302   4.153912   3.734263
    28  H   11.746156  10.504488   9.332982   8.091838   8.187870
    29  H   13.930720  12.650528  11.551926  10.279421  10.219912
    30  H   15.159101  13.791070  12.960090  11.613685  11.133283
    31  H   15.477859  14.140762  13.178202  11.853380  11.558031
    32  H   13.007870  11.625972  10.906331   9.557886   8.937936
    33  H   10.647229   9.256958   8.533113   7.165188   6.529502
    34  H    9.477041   8.224622   7.256139   6.086622   6.041542
    35  H    7.909626   6.738784   6.026423   5.097743   4.987303
    36  H    5.827145   4.570581   4.139190   3.250614   2.791933
    37  H    4.578357   3.411241   3.870520   3.398702   2.153538
    38  H    2.665254   2.159939   3.394410   3.872135   3.393366
                    6          7          8          9         10
     6  O    0.000000
     7  C    1.376529   0.000000
     8  C    2.363163   1.394293   0.000000
     9  C    3.644585   2.410358   1.394358   0.000000
    10  O    4.724471   3.643907   2.362125   1.376763   0.000000
    11  C    5.803385   4.671530   3.488902   2.350978   1.375757
    12  C    7.041694   5.882646   4.686361   3.482317   2.362311
    13  C    8.208751   7.034409   5.890354   4.667651   3.648553
    14  C    8.341215   7.205260   6.152254   5.008664   4.178974
    15  N    9.647792   8.506714   7.507525   6.356505   5.573749
    16  C    7.308380   6.233829   5.278677   4.275636   3.694069
    17  C    5.963372   4.893283   3.886612   2.934220   2.432793
    18  C    4.164271   2.789043   2.422207   1.398319   2.434893
    19  C    3.693957   2.417422   2.797141   2.418036   3.695726
    20  C    2.432849   1.398132   2.422483   2.789782   4.165157
    21  C    2.361815   3.494604   4.687855   5.890827   7.041718
    22  C    3.648581   4.678307   5.887293   7.038143   8.201923
    23  H    6.072803   6.922173   8.123311   9.150390  10.320304
    24  H    6.092019   6.735946   7.814766   8.721657   9.821641
    25  H    4.574015   4.979445   5.826229   6.652869   7.634961
    26  H    2.705585   2.783972   3.405228   4.254527   5.206377
    27  H    2.582593   2.155352   1.085871   2.155606   2.581046
    28  H    7.235033   6.097299   4.888643   3.734176   2.581006
    29  H    9.154634   7.964990   6.811917   5.566159   4.507576
    30  H    9.886289   8.812906   7.855667   6.804465   6.088819
    31  H   10.369909   9.225924   8.154987   6.983053   6.069858
    32  H    7.670380   6.667673   5.847411   4.971943   4.573649
    33  H    5.243384   4.278854   3.431789   2.786257   2.705019
    34  H    5.250979   3.875648   3.409482   2.164126   2.703858
    35  H    4.582756   3.403276   3.884071   3.403515   4.584437
    36  H    2.700106   2.163438   3.409210   3.876189   5.251649
    37  H    2.579741   3.760534   4.901892   6.124220   7.250841
    38  H    4.506866   5.591608   6.816485   7.986106   9.158467
                   11         12         13         14         15
    11  C    0.000000
    12  C    1.393076   0.000000
    13  C    2.415020   1.397426   0.000000
    14  C    2.805235   2.429144   1.397860   0.000000
    15  N    4.199320   3.704803   2.425294   1.399574   0.000000
    16  C    2.415437   2.785579   2.406132   1.398034   2.425408
    17  C    1.395140   2.415072   2.787356   2.430519   3.705882
    18  C    2.930613   3.867701   4.870701   5.149233   6.372534
    19  C    4.270772   5.257186   6.206162   6.365614   7.518251
    20  C    4.985505   6.121813   7.169058   7.293002   8.506008
    21  C    8.123880   9.346712  10.511874  10.616988  11.890044
    22  C    9.331790  10.499383  11.699270  11.870109  13.148784
    23  H   11.495078  12.554706  13.792176  14.074791  15.352304
    24  H   11.047738  11.974479  13.256788  13.693807  14.993227
    25  H    8.909245   9.745709  11.068233  11.619536  12.950307
    26  H    6.496013   7.390720   8.716970   9.237679  10.589884
    27  H    3.746534   4.896820   6.118382   6.405841   7.779637
    28  H    2.153588   1.086193   2.156800   3.411048   4.578942
    29  H    3.392902   2.146520   1.086558   2.160058   2.666144
    30  H    4.725693   4.453464   3.278572   2.033624   1.015203
    31  H    4.725842   3.970794   2.587287   2.033769   1.015159
    32  H    3.393670   3.871808   3.395915   2.160111   2.666117
    33  H    2.162249   3.404005   3.873425   3.408550   4.574664
    34  H    2.779159   3.402711   4.243440   4.582766   5.715169
    35  H    4.981415   5.836125   6.649485   6.765522   7.797320
    36  H    6.044974   7.178203   8.188485   8.257465   9.423148
    37  H    8.230108   9.524949  10.615470  10.586044  11.817293
    38  H   10.249908  11.455962  12.625355  12.726276  13.980765
                   16         17         18         19         20
    16  C    0.000000
    17  C    1.397871   0.000000
    18  C    4.455424   3.327809   0.000000
    19  C    5.545604   4.455155   1.395810   0.000000
    20  C    6.340993   5.123356   2.417439   1.395669   0.000000
    21  C    9.539397   8.233290   6.141023   5.286430   3.897783
    22  C   10.830984   9.518325   7.187106   6.238079   4.903194
    23  H   13.115645  11.804415   9.129733   8.086460   6.907819
    24  H   12.867203  11.539848   8.674896   7.728983   6.698924
    25  H   10.904121   9.558043   6.730647   6.028066   5.115603
    26  H    8.516870   7.152615   4.548671   4.119518   3.249438
    27  H    5.564457   4.181388   3.406734   3.883012   3.406737
    28  H    3.871734   3.400093   4.152152   5.532110   6.372885
    29  H    3.395921   3.873465   5.712714   7.050435   8.069982
    30  H    2.586811   3.970970   6.859416   7.929170   8.837813
    31  H    3.278647   4.454831   7.055039   8.265673   9.271225
    32  H    1.086634   2.146397   5.071724   5.987071   6.718386
    33  H    2.151869   1.086143   3.229261   4.106960   4.556231
    34  H    4.104213   3.227262   1.086829   2.150759   3.399232
    35  H    6.007546   5.089938   2.155462   1.086930   2.155767
    36  H    7.265256   6.099734   3.399490   2.151128   1.086636
    37  H    9.421401   8.167529   6.418145   5.590248   4.206787
    38  H   11.633209  10.347849   8.120015   7.123394   5.779889
                   21         22         23         24         25
    21  C    0.000000
    22  C    1.397601   0.000000
    23  H    3.972305   2.588884   0.000000
    24  H    4.454714   3.279737   1.686556   0.000000
    25  H    3.870447   3.394318   3.625003   2.426437   0.000000
    26  H    3.402315   3.871880   5.397724   4.676081   2.459485
    27  H    4.885774   6.100865   8.392257   8.111645   6.101529
    28  H    9.497294  10.570372  12.499849  11.788503   9.480532
    29  H   11.448970  12.600109  14.620075  13.999579  11.764119
    30  H   12.096697  13.392901  15.669991  15.412536  13.435729
    31  H   12.649211  13.895635  16.072329  15.642698  13.529927
    32  H    9.809508  11.126571  13.461846  13.334733  11.487644
    33  H    7.450465   8.773081  11.134705  11.002949   9.147525
    34  H    7.198609   8.207982  10.058099   9.531239   7.567900
    35  H    5.873083   6.692922   8.330133   7.965664   6.441861
    36  H    3.444593   4.293051   6.172794   6.098889   4.855534
    37  H    1.086191   2.156750   4.682777   5.400806   4.955890
    38  H    2.146621   1.086583   2.427393   3.625321   4.299817
                   26         27         28         29         30
    26  H    0.000000
    27  H    3.704501   0.000000
    28  H    7.202171   5.051344   0.000000
    29  H    9.462876   7.024296   2.468559   0.000000
    30  H   11.058621   8.092188   5.398873   3.623406   0.000000
    31  H   11.167781   8.367875   4.680463   2.424308   1.685882
    32  H    9.131970   6.145811   4.957880   4.302162   2.423108
    33  H    6.773872   3.744308   4.303907   4.959549   4.672701
    34  H    5.459746   4.308106   3.700965   4.993629   6.292865
    35  H    4.825530   4.969942   6.117810   7.430188   8.217853
    36  H    3.462797   4.307324   7.431861   9.086331   9.718410
    37  H    4.301682   5.043542   9.785437  11.601491  11.933291
    38  H    4.957138   7.001027  11.571685  13.551425  14.173585
                   31         32         33         34         35
    31  H    0.000000
    32  H    3.622915   0.000000
    33  H    5.394876   2.460054   0.000000
    34  H    6.357920   4.782408   3.424575   0.000000
    35  H    8.557952   6.379690   4.802256   2.475023   0.000000
    36  H   10.220372   7.554427   5.467540   4.291716   2.476461
    37  H   12.616496   9.582614   7.289183   7.480529   6.187339
    38  H   14.756916  11.858501   9.544136   9.141819   7.525593
                   36         37         38
    36  H    0.000000
    37  H    3.768639   0.000000
    38  H    5.087536   2.468250   0.000000
 Stoichiometry    C18H16N2O2
 Framework group  C1[X(C18H16N2O2)]
 Deg. of freedom   108
 Full point group                 C1      NOp   1
 Largest Abelian subgroup         C1      NOp   1
 Largest concise Abelian subgroup C1      NOp   1
                         Standard orientation:                         
 ---------------------------------------------------------------------
 Center     Atomic      Atomic             Coordinates (Angstroms)
 Number     Number       Type             X           Y           Z
 ---------------------------------------------------------------------
      1          7           0        7.379154    0.709092    0.322769
      2          6           0        6.054784    0.300629    0.128989
      3          6           0        5.036827    1.250577    0.004250
      4          6           0        3.730199    0.862225   -0.306178
      5          6           0        3.441164   -0.485607   -0.521117
      6          8           0        2.187170   -0.933930   -0.867241
      7          6           0        1.123878   -0.462391   -0.131108
      8          6           0        0.005632   -0.025798   -0.840309
      9          6           0       -1.119475    0.419050   -0.147143
     10          8           0       -2.174397    0.881615   -0.901231
     11          6           0       -3.436059    0.464248   -0.545254
     12          6           0       -4.432905    1.435528   -0.485499
     13          6           0       -5.741428    1.070504   -0.157897
     14          6           0       -6.076449   -0.270053    0.053477
     15          7           0       -7.358187   -0.614129    0.497962
     16          6           0       -5.060544   -1.230054    0.024593
     17          6           0       -3.749094   -0.873473   -0.302504
     18          6           0       -1.120383    0.449907    1.250835
     19          6           0       -0.007593   -0.010155    1.956758
     20          6           0        1.111898   -0.477819    1.266888
     21          6           0        4.463377   -1.431032   -0.480019
     22          6           0        5.766938   -1.034322   -0.169154
     23          1           0        7.981038   -0.014566    0.702728
     24          1           0        7.468901    1.587851    0.822918
     25          1           0        5.253484    2.306444    0.142367
     26          1           0        2.955052    1.617563   -0.397746
     27          1           0        0.011177   -0.031957   -1.926148
     28          1           0       -4.190272    2.477325   -0.674189
     29          1           0       -6.499565    1.844322   -0.073971
     30          1           0       -7.605637   -1.583154    0.323618
     31          1           0       -8.083207    0.028535    0.194850
     32          1           0       -5.282905   -2.269451    0.250389
     33          1           0       -2.983091   -1.641596   -0.356667
     34          1           0       -1.982055    0.827206    1.795228
     35          1           0       -0.013402   -0.004403    3.043657
     36          1           0        1.968408   -0.849672    1.822669
     37          1           0        4.250382   -2.473382   -0.698997
     38          1           0        6.558144   -1.779066   -0.165690
 ---------------------------------------------------------------------
 Rotational constants (GHZ):           1.2997253           0.0882721           0.0872433
 Standard basis: 6-31G(d,p) (6D, 7F)
 There are   410 symmetry adapted cartesian basis functions of A   symmetry.
 There are   410 symmetry adapted basis functions of A   symmetry.
   410 basis functions,   728 primitive gaussians,   410 cartesian basis functions
    77 alpha electrons       77 beta electrons
       nuclear repulsion energy      1573.3931896084 Hartrees.
 NAtoms=   38 NActive=   38 NUniq=   38 SFac= 1.00D+00 NAtFMM=   60 NAOKFM=F Big=F
 Integral buffers will be    131072 words long.
 Raffenetti 2 integral format.
 Two-electron integral symmetry is turned on.
 Force inversion solution in PCM.
 ------------------------------------------------------------------------------
 Polarizable Continuum Model (PCM)
 =================================
 Model                : PCM.
 Atomic radii         : UFF (Universal Force Field).
 Polarization charges : Total charges.
 Charge compensation  : None.
 Solution method      : Matrix inversion.
 Cavity type          : Scaled VdW (van der Waals Surface) (Alpha=1.100).
 Cavity algorithm     : GePol (No added spheres)
                        Default sphere list used, NSphG=   38.
                        Lebedev-Laikov grids with approx.  5.0 points / Ang**2.
                        Smoothing algorithm: York/Karplus (Gamma=1.0000).
                        Polarization charges: spherical gaussians, with
                                              point-specific exponents (IZeta= 3).
                        Self-potential: point-specific (ISelfS= 7).
                        Self-field    : sphere-specific E.n sum rule (ISelfD= 2).
 1st derivatives      : Analytical E(r).r(x)/FMM algorithm (CHGder, D1EAlg=3).
                        Cavity 1st derivative terms included.
 2nd derivatives      : Analytical E(r).r(xy)/FMM algorithm (CHGder, D2EAlg=3).
                        Cavity 2nd derivative terms included.
 Solvent              : Water, Eps=  78.355300 Eps(inf)=   1.777849
 ------------------------------------------------------------------------------
 One-electron integrals computed using PRISM.
 NBasis=   410 RedAO= T EigKep=  4.16D-04  NBF=   410
 NBsUse=   410 1.00D-06 EigRej= -1.00D+00 NBFU=   410
 ExpMin= 1.61D-01 ExpMax= 5.48D+03 ExpMxC= 8.25D+02 IAcc=3 IRadAn=         5 AccDes= 0.00D+00
 Harris functional with IExCor=  402 and IRadAn=       5 diagonalized for initial guess.
 HarFok:  IExCor=  402 AccDes= 0.00D+00 IRadAn=         5 IDoV= 1 UseB2=F ITyADJ=14
 ICtDFT=  3500011 ScaDFX=  1.000000  1.000000  1.000000  1.000000
 FoFCou: FMM=F IPFlag=           0 FMFlag=      100000 FMFlg1=           0
         NFxFlg=           0 DoJE=T BraDBF=F KetDBF=T FulRan=T
         wScrn=  0.000000 ICntrl=       500 IOpCl=  0 I1Cent=   200000004 NGrid=           0
         NMat0=    1 NMatS0=      1 NMatT0=    0 NMatD0=    1 NMtDS0=    0 NMtDT0=    0
 Petite list used in FoFCou.
 Requested convergence on RMS density matrix=1.00D-08 within  32 cycles.
 Requested convergence on MAX density matrix=1.00D-06.
 Requested convergence on             energy=1.00D-06.
 No special actions if energy rises.
 Inv3:  Mode=1 IEnd=    27018003.
 Iteration    1 A*A^-1 deviation from unit magnitude is 3.11D-15 for    451.
 Iteration    1 A*A^-1 deviation from orthogonality  is 2.56D-15 for   2986   2017.
 Iteration    1 A^-1*A deviation from unit magnitude is 3.11D-15 for   1510.
 Iteration    1 A^-1*A deviation from orthogonality  is 2.30D-15 for   2820   2588.
 Error on total polarization charges =  0.01078
 SCF Done:  E(RB3LYP) =  -955.522163004     A.U. after   12 cycles
            NFock= 12  Conv=0.52D-08     -V/T= 2.0094
 QCSCF skips out because SCF is already converged.
 DoSCS=F DFT=T ScalE2(SS,OS)=  1.000000  1.000000
 Range of M.O.s used for correlation:     1   410
 NBasis=   410 NAE=    77 NBE=    77 NFC=     0 NFV=     0
 NROrb=    410 NOA=    77 NOB=    77 NVA=   333 NVB=   333
 Symmetrizing basis deriv contribution to polar:
 IMax=3 JMax=2 DiffMx= 0.00D+00
 G2DrvN: will do    39 centers at a time, making    1 passes.
 Calling FoFCou, ICntrl=  3107 FMM=F I1Cent=   0 AccDes= 0.00D+00.
 NEqPCM:  Using equilibrium solvation (IEInf=0, Eps=  78.3553, EpsInf=   1.7778)
 G2PCM: DoFxE=T DoFxN=T DoGrad=T DoDP/DQ/DG/TGxP=FFFF NFrqRd=   0 IEInf=0 SqF1=F DoCFld=F IF1Alg=4.
 End of G2Drv F.D. properties file   721 does not exist.
 End of G2Drv F.D. properties file   722 does not exist.
 End of G2Drv F.D. properties file   788 does not exist.
          IDoAtm=11111111111111111111111111111111111111
 NEqPCM:  Using equilibrium solvation (IEInf=0, Eps=  78.3553, EpsInf=   1.7778)
          Differentiating once with respect to nuclear coordinates.
 CalDSu exits because no D1Ps are significant.
          There are   117 degrees of freedom in the 1st order CPHF.  IDoFFX=6 NUNeed=     0.
    111 vectors produced by pass  0 Test12= 2.56D-14 1.00D-09 XBig12= 1.53D-01 1.03D-01.
 AX will form   111 AO Fock derivatives at one time.
    111 vectors produced by pass  1 Test12= 2.56D-14 1.00D-09 XBig12= 2.84D-02 2.57D-02.
    111 vectors produced by pass  2 Test12= 2.56D-14 1.00D-09 XBig12= 3.22D-04 1.61D-03.
    111 vectors produced by pass  3 Test12= 2.56D-14 1.00D-09 XBig12= 1.29D-06 8.39D-05.
    111 vectors produced by pass  4 Test12= 2.56D-14 1.00D-09 XBig12= 1.99D-09 2.84D-06.
     86 vectors produced by pass  5 Test12= 2.56D-14 1.00D-09 XBig12= 2.03D-12 9.36D-08.
     24 vectors produced by pass  6 Test12= 2.56D-14 1.00D-09 XBig12= 1.75D-15 3.26D-09.
 InvSVY:  IOpt=1 It=  1 EMax= 6.11D-16
 Solved reduced A of dimension   665 with   117 vectors.
 End of Minotr F.D. properties file   721 does not exist.
 End of Minotr F.D. properties file   722 does not exist.
 End of Minotr F.D. properties file   788 does not exist.

 **********************************************************************

            Population analysis using the SCF density.

 **********************************************************************

 Orbital symmetries:
       Occupied  (A) (A) (A) (A) (A) (A) (A) (A) (A) (A) (A) (A)
                 (A) (A) (A) (A) (A) (A) (A) (A) (A) (A) (A) (A)
                 (A) (A) (A) (A) (A) (A) (A) (A) (A) (A) (A) (A)
                 (A) (A) (A) (A) (A) (A) (A) (A) (A) (A) (A) (A)
                 (A) (A) (A) (A) (A) (A) (A) (A) (A) (A) (A) (A)
                 (A) (A) (A) (A) (A) (A) (A) (A) (A) (A) (A) (A)
                 (A) (A) (A) (A) (A)
       Virtual   (A) (A) (A) (A) (A) (A) (A) (A) (A) (A) (A) (A)
                 (A) (A) (A) (A) (A) (A) (A) (A) (A) (A) (A) (A)
                 (A) (A) (A) (A) (A) (A) (A) (A) (A) (A) (A) (A)
                 (A) (A) (A) (A) (A) (A) (A) (A) (A) (A) (A) (A)
                 (A) (A) (A) (A) (A) (A) (A) (A) (A) (A) (A) (A)
                 (A) (A) (A) (A) (A) (A) (A) (A) (A) (A) (A) (A)
                 (A) (A) (A) (A) (A) (A) (A) (A) (A) (A) (A) (A)
                 (A) (A) (A) (A) (A) (A) (A) (A) (A) (A) (A) (A)
                 (A) (A) (A) (A) (A) (A) (A) (A) (A) (A) (A) (A)
                 (A) (A) (A) (A) (A) (A) (A) (A) (A) (A) (A) (A)
                 (A) (A) (A) (A) (A) (A) (A) (A) (A) (A) (A) (A)
                 (A) (A) (A) (A) (A) (A) (A) (A) (A) (A) (A) (A)
                 (A) (A) (A) (A) (A) (A) (A) (A) (A) (A) (A) (A)
                 (A) (A) (A) (A) (A) (A) (A) (A) (A) (A) (A) (A)
                 (A) (A) (A) (A) (A) (A) (A) (A) (A) (A) (A) (A)
                 (A) (A) (A) (A) (A) (A) (A) (A) (A) (A) (A) (A)
                 (A) (A) (A) (A) (A) (A) (A) (A) (A) (A) (A) (A)
                 (A) (A) (A) (A) (A) (A) (A) (A) (A) (A) (A) (A)
                 (A) (A) (A) (A) (A) (A) (A) (A) (A) (A) (A) (A)
                 (A) (A) (A) (A) (A) (A) (A) (A) (A) (A) (A) (A)
                 (A) (A) (A) (A) (A) (A) (A) (A) (A) (A) (A) (A)
                 (A) (A) (A) (A) (A) (A) (A) (A) (A) (A) (A) (A)
                 (A) (A) (A) (A) (A) (A) (A) (A) (A) (A) (A) (A)
                 (A) (A) (A) (A) (A) (A) (A) (A) (A) (A) (A) (A)
                 (A) (A) (A) (A) (A) (A) (A) (A) (A) (A) (A) (A)
                 (A) (A) (A) (A) (A) (A) (A) (A) (A) (A) (A) (A)
                 (A) (A) (A) (A) (A) (A) (A) (A) (A) (A) (A) (A)
                 (A) (A) (A) (A) (A) (A) (A) (A) (A)
 The electronic state is 1-A.
 Alpha  occ. eigenvalues --  -19.18641 -19.18635 -14.33533 -14.33519 -10.25529
 Alpha  occ. eigenvalues --  -10.25508 -10.24064 -10.24061 -10.22576 -10.22555
 Alpha  occ. eigenvalues --  -10.19941 -10.19207 -10.19199 -10.19108 -10.19101
 Alpha  occ. eigenvalues --  -10.19077 -10.18989 -10.18955 -10.18723 -10.18709
 Alpha  occ. eigenvalues --  -10.18644 -10.18622  -1.08148  -1.08005  -0.91394
 Alpha  occ. eigenvalues --   -0.91377  -0.86163  -0.83845  -0.83259  -0.76120
 Alpha  occ. eigenvalues --   -0.75862  -0.74771  -0.74649  -0.71515  -0.71438
 Alpha  occ. eigenvalues --   -0.63988  -0.62797  -0.61884  -0.61529  -0.60458
 Alpha  occ. eigenvalues --   -0.57291  -0.55351  -0.51980  -0.51404  -0.51047
 Alpha  occ. eigenvalues --   -0.50780  -0.49694  -0.49641  -0.48860  -0.45526
 Alpha  occ. eigenvalues --   -0.45232  -0.44257  -0.44173  -0.43786  -0.42331
 Alpha  occ. eigenvalues --   -0.42271  -0.41850  -0.40994  -0.39537  -0.39213
 Alpha  occ. eigenvalues --   -0.38339  -0.38149  -0.37607  -0.37363  -0.35967
 Alpha  occ. eigenvalues --   -0.35405  -0.35080  -0.34011  -0.32275  -0.29711
 Alpha  occ. eigenvalues --   -0.28905  -0.25467  -0.25346  -0.24817  -0.23606
 Alpha  occ. eigenvalues --   -0.19785  -0.19392
 Alpha virt. eigenvalues --   -0.01508  -0.00692  -0.00209   0.00173   0.02129
 Alpha virt. eigenvalues --    0.02161   0.08907   0.09134   0.09809   0.10680
 Alpha virt. eigenvalues --    0.10871   0.13113   0.13153   0.14876   0.15111
 Alpha virt. eigenvalues --    0.15662   0.16331   0.16451   0.16881   0.17149
 Alpha virt. eigenvalues --    0.17194   0.17735   0.17754   0.18858   0.19694
 Alpha virt. eigenvalues --    0.20155   0.20252   0.24813   0.24874   0.26430
 Alpha virt. eigenvalues --    0.28573   0.28743   0.29332   0.33370   0.33490
 Alpha virt. eigenvalues --    0.33589   0.33746   0.34123   0.34906   0.35783
 Alpha virt. eigenvalues --    0.35857   0.38839   0.39292   0.44313   0.48293
 Alpha virt. eigenvalues --    0.48401   0.49153   0.50116   0.50882   0.51485
 Alpha virt. eigenvalues --    0.52394   0.52996   0.53391   0.54423   0.54581
 Alpha virt. eigenvalues --    0.55140   0.55488   0.56499   0.56997   0.57911
 Alpha virt. eigenvalues --    0.58345   0.58539   0.58898   0.59188   0.59408
 Alpha virt. eigenvalues --    0.59485   0.60276   0.60541   0.60789   0.61353
 Alpha virt. eigenvalues --    0.61870   0.62070   0.62719   0.63019   0.63427
 Alpha virt. eigenvalues --    0.64530   0.66386   0.66707   0.67421   0.68222
 Alpha virt. eigenvalues --    0.69342   0.69714   0.70137   0.70583   0.72573
 Alpha virt. eigenvalues --    0.75666   0.75980   0.76801   0.78016   0.78584
 Alpha virt. eigenvalues --    0.80194   0.80607   0.81793   0.81995   0.82512
 Alpha virt. eigenvalues --    0.83023   0.83547   0.83837   0.84283   0.85046
 Alpha virt. eigenvalues --    0.85729   0.86092   0.86924   0.87562   0.87859
 Alpha virt. eigenvalues --    0.88734   0.89023   0.89468   0.90031   0.90683
 Alpha virt. eigenvalues --    0.91760   0.92530   0.93397   0.94360   0.97871
 Alpha virt. eigenvalues --    0.98926   0.99283   0.99454   0.99793   1.02024
 Alpha virt. eigenvalues --    1.03143   1.04085   1.05084   1.05491   1.05964
 Alpha virt. eigenvalues --    1.12243   1.12616   1.13187   1.14658   1.15353
 Alpha virt. eigenvalues --    1.16070   1.16265   1.17485   1.18146   1.19472
 Alpha virt. eigenvalues --    1.21408   1.23039   1.23617   1.24635   1.26308
 Alpha virt. eigenvalues --    1.28633   1.30151   1.31738   1.31977   1.33728
 Alpha virt. eigenvalues --    1.34920   1.35910   1.36528   1.36977   1.37994
 Alpha virt. eigenvalues --    1.38632   1.39852   1.40407   1.40595   1.41042
 Alpha virt. eigenvalues --    1.41889   1.42345   1.43401   1.45783   1.46869
 Alpha virt. eigenvalues --    1.49198   1.50076   1.52271   1.52965   1.65341
 Alpha virt. eigenvalues --    1.67249   1.69776   1.74453   1.75259   1.75393
 Alpha virt. eigenvalues --    1.76011   1.77111   1.77513   1.77588   1.79995
 Alpha virt. eigenvalues --    1.80102   1.81062   1.81138   1.83417   1.85384
 Alpha virt. eigenvalues --    1.85593   1.86611   1.87564   1.88502   1.89351
 Alpha virt. eigenvalues --    1.90157   1.90426   1.90714   1.91483   1.91709
 Alpha virt. eigenvalues --    1.92056   1.92588   1.93382   1.94857   1.95572
 Alpha virt. eigenvalues --    1.96369   1.97554   1.97812   1.98402   2.00156
 Alpha virt. eigenvalues --    2.01133   2.01261   2.02119   2.03905   2.05635
 Alpha virt. eigenvalues --    2.06063   2.06763   2.08993   2.09412   2.12116
 Alpha virt. eigenvalues --    2.13607   2.16600   2.16634   2.21759   2.23323
 Alpha virt. eigenvalues --    2.24278   2.25298   2.25778   2.26461   2.26603
 Alpha virt. eigenvalues --    2.27424   2.29085   2.30136   2.30717   2.31339
 Alpha virt. eigenvalues --    2.32763   2.33178   2.34445   2.35230   2.35957
 Alpha virt. eigenvalues --    2.36910   2.38615   2.39574   2.40945   2.41289
 Alpha virt. eigenvalues --    2.41371   2.42046   2.42509   2.44959   2.45553
 Alpha virt. eigenvalues --    2.45750   2.46231   2.46506   2.47257   2.47415
 Alpha virt. eigenvalues --    2.48817   2.49106   2.50464   2.51376   2.51731
 Alpha virt. eigenvalues --    2.53585   2.55137   2.56134   2.56929   2.57275
 Alpha virt. eigenvalues --    2.57625   2.59427   2.59707   2.60047   2.62080
 Alpha virt. eigenvalues --    2.63401   2.63954   2.65897   2.66743   2.70151
 Alpha virt. eigenvalues --    2.71822   2.72911   2.74065   2.74951   2.77642
 Alpha virt. eigenvalues --    2.77990   2.78083   2.79545   2.82619   2.83329
 Alpha virt. eigenvalues --    2.84767   2.87034   2.91487   2.93987   2.97771
 Alpha virt. eigenvalues --    2.98463   3.00413   3.01010   3.05079   3.05637
 Alpha virt. eigenvalues --    3.07998   3.09508   3.12185   3.13870   3.18396
 Alpha virt. eigenvalues --    3.19001   3.20532   3.24050   3.24999   3.25015
 Alpha virt. eigenvalues --    3.28326   3.28429   3.31275   3.33879   3.37023
 Alpha virt. eigenvalues --    3.37383   3.38974   3.41656   3.45675   3.48677
 Alpha virt. eigenvalues --    3.48741   3.54324   3.54584   3.81205   3.83347
 Alpha virt. eigenvalues --    3.84648   4.03669   4.03825   4.13459   4.13497
 Alpha virt. eigenvalues --    4.13767   4.14283   4.15735   4.16274   4.16387
 Alpha virt. eigenvalues --    4.18551   4.21042   4.40826   4.41727   4.44006
 Alpha virt. eigenvalues --    4.45064   4.45361   4.46122   4.56333   4.72410
 Alpha virt. eigenvalues --    4.82727   4.85881   4.87453
          Condensed to atoms (all electrons):
               1          2          3          4          5          6
     1  N    6.831412   0.298540  -0.070352   0.004627   0.000534  -0.000000
     2  C    0.298540   4.581588   0.537850  -0.026573  -0.034022   0.000135
     3  C   -0.070352   0.537850   4.948404   0.501549  -0.022390   0.004350
     4  C    0.004627  -0.026573   0.501549   4.956680   0.498047  -0.055477
     5  C    0.000534  -0.034022  -0.022390   0.498047   4.626787   0.220152
     6  O   -0.000000   0.000135   0.004350  -0.055477   0.220152   8.349441
     7  C   -0.000000   0.000017  -0.000044   0.001470  -0.031059   0.224174
     8  C    0.000000   0.000000  -0.000003   0.000655  -0.002013  -0.043899
     9  C    0.000000   0.000000   0.000001  -0.000037  -0.000061   0.003464
    10  O    0.000000  -0.000000  -0.000000   0.000000  -0.000000  -0.000013
    11  C    0.000000   0.000000   0.000000   0.000000   0.000000  -0.000000
    12  C    0.000000   0.000000  -0.000000  -0.000000   0.000000  -0.000000
    13  C    0.000000  -0.000000  -0.000000   0.000000  -0.000000   0.000000
    14  C    0.000000  -0.000000   0.000000   0.000000  -0.000000  -0.000000
    15  N    0.000000   0.000000   0.000000   0.000000  -0.000000   0.000000
    16  C    0.000000   0.000000  -0.000000  -0.000000   0.000000  -0.000000
    17  C   -0.000000   0.000000  -0.000000   0.000000   0.000000   0.000000
    18  C    0.000000   0.000000  -0.000000   0.000003   0.000053   0.000194
    19  C   -0.000000  -0.000000   0.000003  -0.000344  -0.000202   0.004274
    20  C   -0.000000   0.000012  -0.000335   0.000331   0.002159  -0.055905
    21  C    0.004544  -0.025595  -0.039189  -0.067143   0.542530  -0.052690
    22  C   -0.070296   0.536734  -0.048541  -0.038191  -0.026446   0.004095
    23  H    0.344141  -0.025224   0.005446  -0.000182  -0.000006  -0.000000
    24  H    0.344223  -0.025244  -0.009376  -0.000029  -0.000003  -0.000000
    25  H   -0.007152  -0.041748   0.364449  -0.031009   0.003442  -0.000055
    26  H   -0.000103   0.003853  -0.034787   0.364442  -0.041206  -0.006782
    27  H    0.000000   0.000000  -0.000002  -0.000028   0.000328  -0.001258
    28  H    0.000000  -0.000000  -0.000000   0.000000   0.000000  -0.000000
    29  H    0.000000   0.000000  -0.000000  -0.000000   0.000000  -0.000000
    30  H    0.000000   0.000000   0.000000   0.000000  -0.000000  -0.000000
    31  H    0.000000   0.000000   0.000000   0.000000  -0.000000  -0.000000
    32  H    0.000000  -0.000000  -0.000000   0.000000   0.000000   0.000000
    33  H    0.000000  -0.000000   0.000000  -0.000000   0.000000  -0.000001
    34  H    0.000000  -0.000000   0.000000   0.000000  -0.000000   0.000002
    35  H    0.000000  -0.000000  -0.000000   0.000004  -0.000003  -0.000054
    36  H    0.000000   0.000004  -0.000287   0.001387   0.006610  -0.007011
    37  H   -0.000102   0.004241   0.000267   0.006476  -0.039982  -0.001087
    38  H   -0.007173  -0.042507   0.005289   0.000447   0.003822  -0.000062
               7          8          9         10         11         12
     1  N   -0.000000   0.000000   0.000000   0.000000   0.000000   0.000000
     2  C    0.000017   0.000000   0.000000  -0.000000   0.000000   0.000000
     3  C   -0.000044  -0.000003   0.000001  -0.000000   0.000000  -0.000000
     4  C    0.001470   0.000655  -0.000037   0.000000   0.000000  -0.000000
     5  C   -0.031059  -0.002013  -0.000061  -0.000000   0.000000   0.000000
     6  O    0.224174  -0.043899   0.003464  -0.000013  -0.000000  -0.000000
     7  C    4.616830   0.497242  -0.005188   0.003408  -0.000067   0.000006
     8  C    0.497242   5.084545   0.495740  -0.043907  -0.001685  -0.000159
     9  C   -0.005188   0.495740   4.618953   0.224703  -0.031140  -0.001573
    10  O    0.003408  -0.043907   0.224703   8.350940   0.217847  -0.052185
    11  C   -0.000067  -0.001685  -0.031140   0.217847   4.627419   0.544359
    12  C    0.000006  -0.000159  -0.001573  -0.052185   0.544359   4.928722
    13  C   -0.000000   0.000006  -0.000057   0.004053  -0.027510   0.505601
    14  C   -0.000000   0.000000   0.000063   0.000170  -0.034503  -0.027142
    15  N    0.000000  -0.000000  -0.000000   0.000000   0.000548   0.004446
    16  C    0.000001  -0.000005  -0.000212   0.004429  -0.020335  -0.039012
    17  C   -0.000030   0.000639   0.001543  -0.055366   0.496066  -0.066386
    18  C   -0.035072  -0.077701   0.493006  -0.055851   0.002189   0.000632
    19  C   -0.006888  -0.035797  -0.006930   0.004222  -0.000171  -0.000011
    20  C    0.494300  -0.078079  -0.034996   0.000195   0.000051   0.000000
    21  C   -0.001617  -0.000165   0.000007  -0.000000   0.000000  -0.000000
    22  C   -0.000003   0.000006  -0.000000   0.000000  -0.000000   0.000000
    23  H   -0.000000   0.000000   0.000000  -0.000000   0.000000  -0.000000
    24  H    0.000000   0.000000   0.000000  -0.000000   0.000000  -0.000000
    25  H   -0.000003  -0.000000  -0.000000   0.000000   0.000000  -0.000000
    26  H    0.005985   0.001245   0.000076  -0.000001   0.000000   0.000000
    27  H   -0.037378   0.353954  -0.037506  -0.001172   0.000311  -0.000016
    28  H   -0.000000  -0.000018   0.000314  -0.001114  -0.039653   0.360815
    29  H    0.000000  -0.000000  -0.000001  -0.000065   0.003796  -0.031454
    30  H   -0.000000   0.000000   0.000000  -0.000000  -0.000006  -0.000184
    31  H   -0.000000  -0.000000   0.000000  -0.000000   0.000004  -0.000075
    32  H    0.000000  -0.000000  -0.000007  -0.000055   0.003429   0.000613
    33  H    0.000061   0.001143   0.006201  -0.006944  -0.041019   0.005375
    34  H    0.000391   0.005455  -0.041026  -0.007077   0.006924   0.001240
    35  H    0.002945   0.000834   0.002941  -0.000053  -0.000002  -0.000000
    36  H   -0.040974   0.005472   0.000385   0.000002  -0.000000   0.000000
    37  H    0.000300  -0.000015  -0.000000   0.000000   0.000000   0.000000
    38  H   -0.000001  -0.000000   0.000000  -0.000000   0.000000  -0.000000
              13         14         15         16         17         18
     1  N    0.000000   0.000000   0.000000   0.000000  -0.000000   0.000000
     2  C   -0.000000  -0.000000   0.000000   0.000000   0.000000   0.000000
     3  C   -0.000000   0.000000   0.000000  -0.000000  -0.000000  -0.000000
     4  C    0.000000   0.000000   0.000000  -0.000000   0.000000   0.000003
     5  C   -0.000000  -0.000000  -0.000000   0.000000   0.000000   0.000053
     6  O    0.000000  -0.000000   0.000000  -0.000000   0.000000   0.000194
     7  C   -0.000000  -0.000000   0.000000   0.000001  -0.000030  -0.035072
     8  C    0.000006   0.000000  -0.000000  -0.000005   0.000639  -0.077701
     9  C   -0.000057   0.000063  -0.000000  -0.000212   0.001543   0.493006
    10  O    0.004053   0.000170   0.000000   0.004429  -0.055366  -0.055851
    11  C   -0.027510  -0.034503   0.000548  -0.020335   0.496066   0.002189
    12  C    0.505601  -0.027142   0.004446  -0.039012  -0.066386   0.000632
    13  C    4.946949   0.538342  -0.070114  -0.048060  -0.039286  -0.000065
    14  C    0.538342   4.581163   0.297805   0.536198  -0.023763   0.000021
    15  N   -0.070114   0.297805   6.832394  -0.070541   0.004703   0.000000
    16  C   -0.048060   0.536198  -0.070541   4.952994   0.495519  -0.000379
    17  C   -0.039286  -0.023763   0.004703   0.495519   4.963160   0.000135
    18  C   -0.000065   0.000021   0.000000  -0.000379   0.000135   4.989605
    19  C    0.000001   0.000000  -0.000000  -0.000001  -0.000343   0.499650
    20  C   -0.000000   0.000000  -0.000000   0.000000   0.000005  -0.047417
    21  C    0.000000   0.000000   0.000000  -0.000000  -0.000000   0.000000
    22  C   -0.000000   0.000000   0.000000  -0.000000   0.000000  -0.000000
    23  H    0.000000   0.000000   0.000000   0.000000  -0.000000   0.000000
    24  H    0.000000   0.000000   0.000000   0.000000  -0.000000   0.000000
    25  H    0.000000   0.000000   0.000000  -0.000000   0.000000  -0.000000
    26  H    0.000000  -0.000000  -0.000000   0.000000  -0.000000  -0.000012
    27  H   -0.000000   0.000000  -0.000000  -0.000001  -0.000026   0.006900
    28  H   -0.035206   0.004191  -0.000102   0.000244   0.006544  -0.000017
    29  H    0.364155  -0.042134  -0.007288   0.005389   0.000406   0.000000
    30  H    0.005429  -0.025260   0.343956  -0.009402  -0.000029   0.000000
    31  H   -0.009399  -0.025024   0.343869   0.005488  -0.000190   0.000000
    32  H    0.005112  -0.041518  -0.007198   0.364221  -0.031071   0.000003
    33  H    0.000481   0.003830  -0.000104  -0.034919   0.364500   0.001300
    34  H    0.000094  -0.000041  -0.000000  -0.000228   0.001294   0.367792
    35  H   -0.000000  -0.000000   0.000000  -0.000000   0.000004  -0.033272
    36  H    0.000000  -0.000000   0.000000   0.000000   0.000000   0.004930
    37  H    0.000000  -0.000000   0.000000  -0.000000   0.000000   0.000000
    38  H    0.000000   0.000000   0.000000  -0.000000  -0.000000  -0.000000
              19         20         21         22         23         24
     1  N   -0.000000  -0.000000   0.004544  -0.070296   0.344141   0.344223
     2  C   -0.000000   0.000012  -0.025595   0.536734  -0.025224  -0.025244
     3  C    0.000003  -0.000335  -0.039189  -0.048541   0.005446  -0.009376
     4  C   -0.000344   0.000331  -0.067143  -0.038191  -0.000182  -0.000029
     5  C   -0.000202   0.002159   0.542530  -0.026446  -0.000006  -0.000003
     6  O    0.004274  -0.055905  -0.052690   0.004095  -0.000000  -0.000000
     7  C   -0.006888   0.494300  -0.001617  -0.000003  -0.000000   0.000000
     8  C   -0.035797  -0.078079  -0.000165   0.000006   0.000000   0.000000
     9  C   -0.006930  -0.034996   0.000007  -0.000000   0.000000   0.000000
    10  O    0.004222   0.000195  -0.000000   0.000000  -0.000000  -0.000000
    11  C   -0.000171   0.000051   0.000000  -0.000000   0.000000   0.000000
    12  C   -0.000011   0.000000  -0.000000   0.000000  -0.000000  -0.000000
    13  C    0.000001  -0.000000   0.000000  -0.000000   0.000000   0.000000
    14  C    0.000000   0.000000   0.000000   0.000000   0.000000   0.000000
    15  N   -0.000000  -0.000000   0.000000   0.000000   0.000000   0.000000
    16  C   -0.000001   0.000000  -0.000000  -0.000000   0.000000   0.000000
    17  C   -0.000343   0.000005  -0.000000   0.000000  -0.000000  -0.000000
    18  C    0.499650  -0.047417   0.000000  -0.000000   0.000000   0.000000
    19  C    4.866830   0.499253  -0.000015   0.000001  -0.000000  -0.000000
    20  C    0.499253   4.988476   0.000657  -0.000047  -0.000000  -0.000000
    21  C   -0.000015   0.000657   4.933596   0.503307  -0.000010  -0.000173
    22  C    0.000001  -0.000047   0.503307   4.948873  -0.009382   0.005447
    23  H   -0.000000  -0.000000  -0.000010  -0.009382   0.432145  -0.028262
    24  H   -0.000000  -0.000000  -0.000173   0.005447  -0.028262   0.432157
    25  H   -0.000000   0.000003   0.000588   0.005119  -0.000060   0.004369
    26  H   -0.000221   0.001234   0.005373   0.000464   0.000003  -0.000006
    27  H   -0.000403   0.006879  -0.000016  -0.000000   0.000000   0.000000
    28  H   -0.000002   0.000000   0.000000   0.000000   0.000000  -0.000000
    29  H   -0.000000  -0.000000  -0.000000   0.000000   0.000000   0.000000
    30  H    0.000000  -0.000000   0.000000   0.000000   0.000000   0.000000
    31  H    0.000000  -0.000000   0.000000   0.000000   0.000000   0.000000
    32  H   -0.000000  -0.000000  -0.000000   0.000000   0.000000   0.000000
    33  H   -0.000208  -0.000015   0.000000   0.000000   0.000000  -0.000000
    34  H   -0.039116   0.004916   0.000000   0.000000   0.000000   0.000000
    35  H    0.369244  -0.033190  -0.000000  -0.000000   0.000000   0.000000
    36  H   -0.039194   0.367843   0.001185   0.000020   0.000000   0.000000
    37  H   -0.000001  -0.000013   0.360987  -0.035103  -0.000006   0.000003
    38  H   -0.000000   0.000000  -0.031526   0.364757   0.004442  -0.000053
              25         26         27         28         29         30
     1  N   -0.007152  -0.000103   0.000000   0.000000   0.000000   0.000000
     2  C   -0.041748   0.003853   0.000000  -0.000000   0.000000   0.000000
     3  C    0.364449  -0.034787  -0.000002  -0.000000  -0.000000   0.000000
     4  C   -0.031009   0.364442  -0.000028   0.000000  -0.000000   0.000000
     5  C    0.003442  -0.041206   0.000328   0.000000   0.000000  -0.000000
     6  O   -0.000055  -0.006782  -0.001258  -0.000000  -0.000000  -0.000000
     7  C   -0.000003   0.005985  -0.037378  -0.000000   0.000000  -0.000000
     8  C   -0.000000   0.001245   0.353954  -0.000018  -0.000000   0.000000
     9  C   -0.000000   0.000076  -0.037506   0.000314  -0.000001   0.000000
    10  O    0.000000  -0.000001  -0.001172  -0.001114  -0.000065  -0.000000
    11  C    0.000000   0.000000   0.000311  -0.039653   0.003796  -0.000006
    12  C   -0.000000   0.000000  -0.000016   0.360815  -0.031454  -0.000184
    13  C    0.000000   0.000000  -0.000000  -0.035206   0.364155   0.005429
    14  C    0.000000  -0.000000   0.000000   0.004191  -0.042134  -0.025260
    15  N    0.000000  -0.000000  -0.000000  -0.000102  -0.007288   0.343956
    16  C   -0.000000   0.000000  -0.000001   0.000244   0.005389  -0.009402
    17  C    0.000000  -0.000000  -0.000026   0.006544   0.000406  -0.000029
    18  C   -0.000000  -0.000012   0.006900  -0.000017   0.000000   0.000000
    19  C   -0.000000  -0.000221  -0.000403  -0.000002  -0.000000   0.000000
    20  C    0.000003   0.001234   0.006879   0.000000  -0.000000  -0.000000
    21  C    0.000588   0.005373  -0.000016   0.000000  -0.000000   0.000000
    22  C    0.005119   0.000464  -0.000000   0.000000   0.000000   0.000000
    23  H   -0.000060   0.000003   0.000000   0.000000   0.000000   0.000000
    24  H    0.004369  -0.000006   0.000000  -0.000000   0.000000   0.000000
    25  H    0.606863  -0.006103  -0.000000   0.000000  -0.000000   0.000000
    26  H   -0.006103   0.598553   0.000073  -0.000000  -0.000000  -0.000000
    27  H   -0.000000   0.000073   0.601240   0.000003  -0.000000  -0.000000
    28  H    0.000000  -0.000000   0.000003   0.606971  -0.006561   0.000003
    29  H   -0.000000  -0.000000  -0.000000  -0.006561   0.609480  -0.000069
    30  H    0.000000  -0.000000  -0.000000   0.000003  -0.000069   0.432580
    31  H    0.000000  -0.000000  -0.000000  -0.000007   0.004429  -0.028314
    32  H    0.000000  -0.000000   0.000000   0.000014  -0.000186   0.004485
    33  H   -0.000000  -0.000000   0.000058  -0.000154   0.000013  -0.000006
    34  H    0.000000  -0.000000  -0.000125   0.000074  -0.000002  -0.000000
    35  H   -0.000000  -0.000001   0.000013   0.000000  -0.000000  -0.000000
    36  H   -0.000001   0.000052  -0.000126  -0.000000   0.000000  -0.000000
    37  H    0.000014  -0.000155   0.000003  -0.000000   0.000000  -0.000000
    38  H   -0.000188   0.000013  -0.000000   0.000000   0.000000   0.000000
              31         32         33         34         35         36
     1  N    0.000000   0.000000   0.000000   0.000000   0.000000   0.000000
     2  C    0.000000  -0.000000  -0.000000  -0.000000  -0.000000   0.000004
     3  C    0.000000  -0.000000   0.000000   0.000000  -0.000000  -0.000287
     4  C    0.000000   0.000000  -0.000000   0.000000   0.000004   0.001387
     5  C   -0.000000   0.000000   0.000000  -0.000000  -0.000003   0.006610
     6  O   -0.000000   0.000000  -0.000001   0.000002  -0.000054  -0.007011
     7  C   -0.000000   0.000000   0.000061   0.000391   0.002945  -0.040974
     8  C   -0.000000  -0.000000   0.001143   0.005455   0.000834   0.005472
     9  C    0.000000  -0.000007   0.006201  -0.041026   0.002941   0.000385
    10  O   -0.000000  -0.000055  -0.006944  -0.007077  -0.000053   0.000002
    11  C    0.000004   0.003429  -0.041019   0.006924  -0.000002  -0.000000
    12  C   -0.000075   0.000613   0.005375   0.001240  -0.000000   0.000000
    13  C   -0.009399   0.005112   0.000481   0.000094  -0.000000   0.000000
    14  C   -0.025024  -0.041518   0.003830  -0.000041  -0.000000  -0.000000
    15  N    0.343869  -0.007198  -0.000104  -0.000000   0.000000   0.000000
    16  C    0.005488   0.364221  -0.034919  -0.000228  -0.000000   0.000000
    17  C   -0.000190  -0.031071   0.364500   0.001294   0.000004   0.000000
    18  C    0.000000   0.000003   0.001300   0.367792  -0.033272   0.004930
    19  C    0.000000  -0.000000  -0.000208  -0.039116   0.369244  -0.039194
    20  C   -0.000000  -0.000000  -0.000015   0.004916  -0.033190   0.367843
    21  C    0.000000  -0.000000   0.000000   0.000000  -0.000000   0.001185
    22  C    0.000000   0.000000   0.000000   0.000000  -0.000000   0.000020
    23  H    0.000000   0.000000   0.000000   0.000000   0.000000   0.000000
    24  H    0.000000   0.000000  -0.000000   0.000000   0.000000   0.000000
    25  H    0.000000   0.000000  -0.000000   0.000000  -0.000000  -0.000001
    26  H   -0.000000  -0.000000  -0.000000  -0.000000  -0.000001   0.000052
    27  H   -0.000000   0.000000   0.000058  -0.000125   0.000013  -0.000126
    28  H   -0.000007   0.000014  -0.000154   0.000074   0.000000  -0.000000
    29  H    0.004429  -0.000186   0.000013  -0.000002  -0.000000   0.000000
    30  H   -0.028314   0.004485  -0.000006  -0.000000  -0.000000  -0.000000
    31  H    0.432385  -0.000057   0.000003  -0.000000  -0.000000  -0.000000
    32  H   -0.000057   0.606881  -0.006035   0.000001  -0.000000   0.000000
    33  H    0.000003  -0.006035   0.598324   0.000023  -0.000001  -0.000000
    34  H   -0.000000   0.000001   0.000023   0.597613  -0.005453  -0.000152
    35  H   -0.000000  -0.000000  -0.000001  -0.005453   0.586446  -0.005453
    36  H   -0.000000   0.000000  -0.000000  -0.000152  -0.005453   0.598185
    37  H   -0.000000   0.000000  -0.000000  -0.000000   0.000000   0.000072
    38  H    0.000000  -0.000000  -0.000000   0.000000  -0.000000  -0.000002
              37         38
     1  N   -0.000102  -0.007173
     2  C    0.004241  -0.042507
     3  C    0.000267   0.005289
     4  C    0.006476   0.000447
     5  C   -0.039982   0.003822
     6  O   -0.001087  -0.000062
     7  C    0.000300  -0.000001
     8  C   -0.000015  -0.000000
     9  C   -0.000000   0.000000
    10  O    0.000000  -0.000000
    11  C    0.000000   0.000000
    12  C    0.000000  -0.000000
    13  C    0.000000   0.000000
    14  C   -0.000000   0.000000
    15  N    0.000000   0.000000
    16  C   -0.000000  -0.000000
    17  C    0.000000  -0.000000
    18  C    0.000000  -0.000000
    19  C   -0.000001  -0.000000
    20  C   -0.000013   0.000000
    21  C    0.360987  -0.031526
    22  C   -0.035103   0.364757
    23  H   -0.000006   0.004442
    24  H    0.000003  -0.000053
    25  H    0.000014  -0.000188
    26  H   -0.000155   0.000013
    27  H    0.000003  -0.000000
    28  H   -0.000000   0.000000
    29  H    0.000000   0.000000
    30  H   -0.000000   0.000000
    31  H   -0.000000   0.000000
    32  H    0.000000  -0.000000
    33  H   -0.000000  -0.000000
    34  H   -0.000000   0.000000
    35  H    0.000000  -0.000000
    36  H    0.000072  -0.000002
    37  H    0.607068  -0.006573
    38  H   -0.006573   0.609317
 Mulliken charges:
               1
     1  N   -0.672843
     2  C    0.257938
     3  C   -0.142301
     4  C   -0.117106
     5  C    0.292930
     6  O   -0.585987
     7  C    0.311194
     8  C   -0.163491
     9  C    0.311335
    10  O   -0.586165
    11  C    0.293150
    12  C   -0.133614
    13  C   -0.140524
    14  C    0.257597
    15  N   -0.672373
    16  C   -0.141388
    17  C   -0.118028
    18  C   -0.116627
    19  C   -0.113630
    20  C   -0.116320
    21  C   -0.134635
    22  C   -0.140816
    23  H    0.276954
    24  H    0.276948
    25  H    0.101473
    26  H    0.108012
    27  H    0.108294
    28  H    0.103659
    29  H    0.100091
    30  H    0.276817
    31  H    0.276888
    32  H    0.101368
    33  H    0.108092
    34  H    0.107399
    35  H    0.115050
    36  H    0.107053
    37  H    0.103606
    38  H    0.099998
 Sum of Mulliken charges =  -0.00000
 Mulliken charges with hydrogens summed into heavy atoms:
               1
     1  N   -0.118941
     2  C    0.257938
     3  C   -0.040827
     4  C   -0.009094
     5  C    0.292930
     6  O   -0.585987
     7  C    0.311194
     8  C   -0.055196
     9  C    0.311335
    10  O   -0.586165
    11  C    0.293150
    12  C   -0.029955
    13  C   -0.040433
    14  C    0.257597
    15  N   -0.118668
    16  C   -0.040020
    17  C   -0.009936
    18  C   -0.009228
    19  C    0.001420
    20  C   -0.009267
    21  C   -0.031029
    22  C   -0.040817
 APT charges:
               1
     1  N   -1.501127
     2  C    0.467095
     3  C   -0.363351
     4  C   -0.642735
     5  C   -0.696473
     6  O   -0.376521
     7  C   -0.035693
     8  C   -0.532518
     9  C   -0.038603
    10  O   -0.378745
    11  C   -0.657498
    12  C   -0.543115
    13  C   -0.295213
    14  C    0.533029
    15  N   -1.829921
    16  C   -0.339719
    17  C   -0.665238
    18  C   -0.518040
    19  C   -0.466995
    20  C   -0.518712
    21  C   -0.517873
    22  C   -0.319813
    23  H    1.176793
    24  H    0.710876
    25  H    0.604648
    26  H   -0.000421
    27  H    0.412964
    28  H    0.391827
    29  H    0.997959
    30  H    0.865262
    31  H    1.304877
    32  H    0.599228
    33  H   -0.000015
    34  H    0.552067
    35  H    0.625791
    36  H    0.554770
    37  H    0.414450
    38  H    1.026701
 Sum of APT charges =  -0.00000
 APT charges with hydrogens summed into heavy atoms:
               1
     1  N    0.386542
     2  C    0.467095
     3  C    0.241297
     4  C   -0.643156
     5  C   -0.696473
     6  O   -0.376521
     7  C   -0.035693
     8  C   -0.119553
     9  C   -0.038603
    10  O   -0.378745
    11  C   -0.657498
    12  C   -0.151288
    13  C    0.702746
    14  C    0.533029
    15  N    0.340218
    16  C    0.259509
    17  C   -0.665253
    18  C    0.034027
    19  C    0.158796
    20  C    0.036057
    21  C   -0.103423
    22  C    0.706888
 Electronic spatial extent (au):  <R**2>=          11759.5674
 Charge=             -0.0000 electrons
 Dipole moment (field-independent basis, Debye):
    X=             -0.5325    Y=             -0.2436    Z=              2.7569  Tot=              2.8184
 Quadrupole moment (field-independent basis, Debye-Ang):
   XX=            -65.5002   YY=           -115.9546   ZZ=           -128.5480
   XY=              5.9516   XZ=             18.2779   YZ=              1.7623
 Traceless Quadrupole moment (field-independent basis, Debye-Ang):
   XX=             37.8341   YY=            -12.6204   ZZ=            -25.2137
   XY=              5.9516   XZ=             18.2779   YZ=              1.7623
 Octapole moment (field-independent basis, Debye-Ang**2):
  XXX=            -91.3259  YYY=              0.1343  ZZZ=              9.6875  XYY=             -4.7623
  XXY=            -24.3208  XXZ=             69.7434  XZZ=             19.7478  YZZ=              1.5941
  YYZ=              0.4136  XYZ=             10.0642
 Hexadecapole moment (field-independent basis, Debye-Ang**3):
 XXXX=          -9529.1871 YYYY=           -681.5087 ZZZZ=           -523.8221 XXXY=            201.3686
 XXXZ=           1114.1778 YYYX=             70.1473 YYYZ=              4.2547 ZZZX=             29.4918
 ZZZY=              3.3478 XXYY=          -2099.7714 XXZZ=          -2701.7070 YYZZ=           -229.5238
 XXYZ=            103.0208 YYXZ=             16.3237 ZZXY=              2.4688
 N-N= 1.573393189608D+03 E-N=-5.369106784593D+03  KE= 9.466569938556D+02
  Exact polarizability:   0.000   0.000   0.000   0.000   0.000   0.000
 Approx polarizability: 449.433 -23.956 307.617  -0.876   0.131 215.240
 D2PCM: PCM CHGder 2nd derivatives, FixD1E=F FixD2E=F DoIter=F DoCFld=F I1PDM=0
 Calling FoFJK, ICntrl=    100147 FMM=F ISym2X=0 I1Cent= 0 IOpClX= 0 NMat=1 NMatS=1 NMatT=0.
 ***** Axes restored to original set *****
 -------------------------------------------------------------------
 Center     Atomic                   Forces (Hartrees/Bohr)
 Number     Number              X              Y              Z
 -------------------------------------------------------------------
      1        7           0.000516489    0.003626701   -0.000028853
      2        6           0.011551531   -0.011501215   -0.003560488
      3        6          -0.011911760    0.002065571   -0.002599418
      4        6           0.004080429    0.000908311   -0.003424696
      5        6           0.010724881    0.000576354    0.002615737
      6        8          -0.008967772   -0.003119278    0.000446320
      7        6          -0.007631018    0.002311858   -0.002358273
      8        6           0.000106582   -0.003807996    0.000020627
[...]
   179    C   12  dx2y2  Ryd( 3d)     0.00058
   180    C   12  dz2    Ryd( 3d)     0.00042

   181    C   13  S      Cor( 1S)     1.99906
   182    C   13  S      Val( 2S)     0.95516
   183    C   13  S      Ryd( 3S)     0.00062
   184    C   13  S      Ryd( 4S)     0.00004
   185    C   13  px     Val( 2p)     1.09309
   186    C   13  px     Ryd( 3p)     0.00441
   187    C   13  py     Val( 2p)     1.14920
   188    C   13  py     Ryd( 3p)     0.00413
   189    C   13  pz     Val( 2p)     1.08944
   190    C   13  pz     Ryd( 3p)     0.00425
   191    C   13  dxy    Ryd( 3d)     0.00061
   192    C   13  dxz    Ryd( 3d)     0.00051
   193    C   13  dyz    Ryd( 3d)     0.00049
   194    C   13  dx2y2  Ryd( 3d)     0.00047
   195    C   13  dz2    Ryd( 3d)     0.00046

   196    C   14  S      Cor( 1S)     1.99898
   197    C   14  S      Val( 2S)     0.85259
   198    C   14  S      Ryd( 3S)     0.00117
   199    C   14  S      Ryd( 4S)     0.00009
   200    C   14  px     Val( 2p)     0.91589
   201    C   14  px     Ryd( 3p)     0.00456
   202    C   14  py     Val( 2p)     1.02548
   203    C   14  py     Ryd( 3p)     0.00345
   204    C   14  pz     Val( 2p)     1.01308
   205    C   14  pz     Ryd( 3p)     0.00327
   206    C   14  dxy    Ryd( 3d)     0.00104
   207    C   14  dxz    Ryd( 3d)     0.00106
   208    C   14  dyz    Ryd( 3d)     0.00066
   209    C   14  dx2y2  Ryd( 3d)     0.00115
   210    C   14  dz2    Ryd( 3d)     0.00102

   211    N   15  S      Cor( 1S)     1.99948
   212    N   15  S      Val( 2S)     1.36927
   213    N   15  S      Ryd( 3S)     0.00010
   214    N   15  S      Ryd( 4S)     0.00001
   215    N   15  px     Val( 2p)     1.32385
   216    N   15  px     Ryd( 3p)     0.00201
   217    N   15  py     Val( 2p)     1.51312
   218    N   15  py     Ryd( 3p)     0.00257
   219    N   15  pz     Val( 2p)     1.52939
   220    N   15  pz     Ryd( 3p)     0.00270
   221    N   15  dxy    Ryd( 3d)     0.00070
   222    N   15  dxz    Ryd( 3d)     0.00070
   223    N   15  dyz    Ryd( 3d)     0.00083
   224    N   15  dx2y2  Ryd( 3d)     0.00045
   225    N   15  dz2    Ryd( 3d)     0.00056

   226    C   16  S      Cor( 1S)     1.99906
   227    C   16  S      Val( 2S)     0.95518
   228    C   16  S      Ryd( 3S)     0.00062
   229    C   16  S      Ryd( 4S)     0.00004
   230    C   16  px     Val( 2p)     1.09339
   231    C   16  px     Ryd( 3p)     0.00441
   232    C   16  py     Val( 2p)     1.09425
   233    C   16  py     Ryd( 3p)     0.00429
   234    C   16  pz     Val( 2p)     1.14339
   235    C   16  pz     Ryd( 3p)     0.00409
   236    C   16  dxy    Ryd( 3d)     0.00052
   237    C   16  dxz    Ryd( 3d)     0.00059
   238    C   16  dyz    Ryd( 3d)     0.00049
   239    C   16  dx2y2  Ryd( 3d)     0.00052
   240    C   16  dz2    Ryd( 3d)     0.00040

   241    C   17  S      Cor( 1S)     1.99900
   242    C   17  S      Val( 2S)     0.96401
   243    C   17  S      Ryd( 3S)     0.00080
   244    C   17  S      Ryd( 4S)     0.00005
   245    C   17  px     Val( 2p)     1.09416
   246    C   17  px     Ryd( 3p)     0.00485
   247    C   17  py     Val( 2p)     1.15272
   248    C   17  py     Ryd( 3p)     0.00413
   249    C   17  pz     Val( 2p)     1.08352
   250    C   17  pz     Ryd( 3p)     0.00439
   251    C   17  dxy    Ryd( 3d)     0.00064
   252    C   17  dxz    Ryd( 3d)     0.00049
   253    C   17  dyz    Ryd( 3d)     0.00049
   254    C   17  dx2y2  Ryd( 3d)     0.00047
   255    C   17  dz2    Ryd( 3d)     0.00053

   256    C   18  S      Cor( 1S)     1.99901
   257    C   18  S      Val( 2S)     0.95815
   258    C   18  S      Ryd( 3S)     0.00061
   259    C   18  S      Ryd( 4S)     0.00004
   260    C   18  px     Val( 2p)     1.18223
   261    C   18  px     Ryd( 3p)     0.00328
   262    C   18  py     Val( 2p)     1.09956
   263    C   18  py     Ryd( 3p)     0.00282
   264    C   18  pz     Val( 2p)     1.09934
   265    C   18  pz     Ryd( 3p)     0.00300
   266    C   18  dxy    Ryd( 3d)     0.00046
   267    C   18  dxz    Ryd( 3d)     0.00047
   268    C   18  dyz    Ryd( 3d)     0.00045
   269    C   18  dx2y2  Ryd( 3d)     0.00061
   270    C   18  dz2    Ryd( 3d)     0.00057

   271    C   19  S      Cor( 1S)     1.99914
   272    C   19  S      Val( 2S)     0.95139
   273    C   19  S      Ryd( 3S)     0.00068
   274    C   19  S      Ryd( 4S)     0.00004
   275    C   19  px     Val( 2p)     1.05362
   276    C   19  px     Ryd( 3p)     0.00504
   277    C   19  py     Val( 2p)     1.11301
   278    C   19  py     Ryd( 3p)     0.00374
   279    C   19  pz     Val( 2p)     1.12560
   280    C   19  pz     Ryd( 3p)     0.00395
   281    C   19  dxy    Ryd( 3d)     0.00062
   282    C   19  dxz    Ryd( 3d)     0.00061
   283    C   19  dyz    Ryd( 3d)     0.00052
   284    C   19  dx2y2  Ryd( 3d)     0.00048
   285    C   19  dz2    Ryd( 3d)     0.00037

   286    C   20  S      Cor( 1S)     1.99901
   287    C   20  S      Val( 2S)     0.95814
   288    C   20  S      Ryd( 3S)     0.00060
   289    C   20  S      Ryd( 4S)     0.00004
   290    C   20  px     Val( 2p)     1.18183
   291    C   20  px     Ryd( 3p)     0.00328
   292    C   20  py     Val( 2p)     1.10006
   293    C   20  py     Ryd( 3p)     0.00278
   294    C   20  pz     Val( 2p)     1.09977
   295    C   20  pz     Ryd( 3p)     0.00297
   296    C   20  dxy    Ryd( 3d)     0.00046
   297    C   20  dxz    Ryd( 3d)     0.00047
   298    C   20  dyz    Ryd( 3d)     0.00045
   299    C   20  dx2y2  Ryd( 3d)     0.00060
   300    C   20  dz2    Ryd( 3d)     0.00057

   301    C   21  S      Cor( 1S)     1.99900
   302    C   21  S      Val( 2S)     0.96419
   303    C   21  S      Ryd( 3S)     0.00079
   304    C   21  S      Ryd( 4S)     0.00005
   305    C   21  px     Val( 2p)     1.09423
   306    C   21  px     Ryd( 3p)     0.00470
   307    C   21  py     Val( 2p)     1.14948
   308    C   21  py     Ryd( 3p)     0.00393
   309    C   21  pz     Val( 2p)     1.07767
   310    C   21  pz     Ryd( 3p)     0.00410
   311    C   21  dxy    Ryd( 3d)     0.00065
   312    C   21  dxz    Ryd( 3d)     0.00049
   313    C   21  dyz    Ryd( 3d)     0.00049
   314    C   21  dx2y2  Ryd( 3d)     0.00046
   315    C   21  dz2    Ryd( 3d)     0.00054

   316    C   22  S      Cor( 1S)     1.99905
   317    C   22  S      Val( 2S)     0.95511
   318    C   22  S      Ryd( 3S)     0.00061
   319    C   22  S      Ryd( 4S)     0.00004
   320    C   22  px     Val( 2p)     1.09404
   321    C   22  px     Ryd( 3p)     0.00415
   322    C   22  py     Val( 2p)     1.09616
   323    C   22  py     Ryd( 3p)     0.00402
   324    C   22  pz     Val( 2p)     1.13915
   325    C   22  pz     Ryd( 3p)     0.00396
   326    C   22  dxy    Ryd( 3d)     0.00053
   327    C   22  dxz    Ryd( 3d)     0.00058
   328    C   22  dyz    Ryd( 3d)     0.00050
   329    C   22  dx2y2  Ryd( 3d)     0.00051
   330    C   22  dz2    Ryd( 3d)     0.00039

   331    H   23  S      Val( 1S)     0.57223
   332    H   23  S      Ryd( 2S)     0.00129
   333    H   23  px     Ryd( 2p)     0.00031
   334    H   23  py     Ryd( 2p)     0.00030
   335    H   23  pz     Ryd( 2p)     0.00064

   336    H   24  S      Val( 1S)     0.57208
   337    H   24  S      Ryd( 2S)     0.00129
   338    H   24  px     Ryd( 2p)     0.00030
   339    H   24  py     Ryd( 2p)     0.00064
   340    H   24  pz     Ryd( 2p)     0.00030

   341    H   25  S      Val( 1S)     0.75178
   342    H   25  S      Ryd( 2S)     0.00098
   343    H   25  px     Ryd( 2p)     0.00014
   344    H   25  py     Ryd( 2p)     0.00030
   345    H   25  pz     Ryd( 2p)     0.00018

   346    H   26  S      Val( 1S)     0.74333
   347    H   26  S      Ryd( 2S)     0.00098
   348    H   26  px     Ryd( 2p)     0.00016
   349    H   26  py     Ryd( 2p)     0.00017
   350    H   26  pz     Ryd( 2p)     0.00028

   351    H   27  S      Val( 1S)     0.74478
   352    H   27  S      Ryd( 2S)     0.00155
   353    H   27  px     Ryd( 2p)     0.00006
   354    H   27  py     Ryd( 2p)     0.00026
   355    H   27  pz     Ryd( 2p)     0.00028

   356    H   28  S      Val( 1S)     0.74327
   357    H   28  S      Ryd( 2S)     0.00099
   358    H   28  px     Ryd( 2p)     0.00015
   359    H   28  py     Ryd( 2p)     0.00017
   360    H   28  pz     Ryd( 2p)     0.00028

   361    H   29  S      Val( 1S)     0.75176
   362    H   29  S      Ryd( 2S)     0.00100
   363    H   29  px     Ryd( 2p)     0.00014
   364    H   29  py     Ryd( 2p)     0.00031
   365    H   29  pz     Ryd( 2p)     0.00018

   366    H   30  S      Val( 1S)     0.56938
   367    H   30  S      Ryd( 2S)     0.00133
   368    H   30  px     Ryd( 2p)     0.00033
   369    H   30  py     Ryd( 2p)     0.00050
   370    H   30  pz     Ryd( 2p)     0.00039

   371    H   31  S      Val( 1S)     0.56950
   372    H   31  S      Ryd( 2S)     0.00133
   373    H   31  px     Ryd( 2p)     0.00033
   374    H   31  py     Ryd( 2p)     0.00040
   375    H   31  pz     Ryd( 2p)     0.00050

   376    H   32  S      Val( 1S)     0.75167
   377    H   32  S      Ryd( 2S)     0.00100
   378    H   32  px     Ryd( 2p)     0.00014
   379    H   32  py     Ryd( 2p)     0.00019
   380    H   32  pz     Ryd( 2p)     0.00029

   381    H   33  S      Val( 1S)     0.74332
   382    H   33  S      Ryd( 2S)     0.00099
   383    H   33  px     Ryd( 2p)     0.00015
   384    H   33  py     Ryd( 2p)     0.00030
   385    H   33  pz     Ryd( 2p)     0.00016

   386    H   34  S      Val( 1S)     0.74718
   387    H   34  S      Ryd( 2S)     0.00082
   388    H   34  px     Ryd( 2p)     0.00032
   389    H   34  py     Ryd( 2p)     0.00015
   390    H   34  pz     Ryd( 2p)     0.00015

   391    H   35  S      Val( 1S)     0.75627
   392    H   35  S      Ryd( 2S)     0.00074
   393    H   35  px     Ryd( 2p)     0.00007
   394    H   35  py     Ryd( 2p)     0.00027
   395    H   35  pz     Ryd( 2p)     0.00029

   396    H   36  S      Val( 1S)     0.74734
   397    H   36  S      Ryd( 2S)     0.00082
   398    H   36  px     Ryd( 2p)     0.00032
   399    H   36  py     Ryd( 2p)     0.00015
   400    H   36  pz     Ryd( 2p)     0.00015

   401    H   37  S      Val( 1S)     0.74341
   402    H   37  S      Ryd( 2S)     0.00099
   403    H   37  px     Ryd( 2p)     0.00015
   404    H   37  py     Ryd( 2p)     0.00030
   405    H   37  pz     Ryd( 2p)     0.00015

   406    H   38  S      Val( 1S)     0.75190
   407    H   38  S      Ryd( 2S)     0.00098
   408    H   38  px     Ryd( 2p)     0.00014
   409    H   38  py     Ryd( 2p)     0.00019
   410    H   38  pz     Ryd( 2p)     0.00028

 WARNING:  1 low occupancy (<1.9990e) core orbital  found on  C    2
           1 low occupancy (<1.9990e) core orbital  found on  C    4
           1 low occupancy (<1.9990e) core orbital  found on  C    5
           1 low occupancy (<1.9990e) core orbital  found on  C    7
           1 low occupancy (<1.9990e) core orbital  found on  C    8
           1 low occupancy (<1.9990e) core orbital  found on  C    9
           1 low occupancy (<1.9990e) core orbital  found on  C   11
           1 low occupancy (<1.9990e) core orbital  found on  C   12
           1 low occupancy (<1.9990e) core orbital  found on  C   14
           1 low occupancy (<1.9990e) core orbital  found on  C   17
           1 low occupancy (<1.9990e) core orbital  found on  C   21


 Summary of Natural Population Analysis:                  
                                                          
                                       Natural Population 
                Natural  -----------------------------------------------
    Atom  No    Charge         Core      Valence    Rydberg      Total
 -----------------------------------------------------------------------
      N    1   -0.76974      1.99949     5.75931    0.01094     7.76974
      C    2    0.17353      1.99899     3.81009    0.01739     5.82647
      C    3   -0.29951      1.99905     4.28512    0.01534     6.29951
      C    4   -0.30077      1.99900     4.28559    0.01618     6.30077
      C    5    0.30647      1.99870     3.67191    0.02292     5.69353
      O    6   -0.52392      1.99970     6.51280    0.01142     8.52392
      C    7    0.31758      1.99875     3.66156    0.02211     5.68242
      C    8   -0.37934      1.99895     4.36440    0.01599     6.37934
      C    9    0.31664      1.99875     3.66246    0.02215     5.68336
      O   10   -0.52192      1.99970     6.51081    0.01142     8.52192
      C   11    0.32198      1.99870     3.65629    0.02303     5.67802
      C   12   -0.30974      1.99900     4.29392    0.01683     6.30974
      C   13   -0.30192      1.99906     4.28688    0.01598     6.30192
      C   14    0.17652      1.99898     3.80705    0.01745     5.82348
      N   15   -0.74576      1.99948     5.73564    0.01064     7.74576
      C   16   -0.30125      1.99906     4.28621    0.01598     6.30125
      C   17   -0.31025      1.99900     4.29440    0.01684     6.31025
      C   18   -0.35060      1.99901     4.33927    0.01232     6.35060
      C   19   -0.25881      1.99914     4.24362    0.01606     6.25881
      C   20   -0.35106      1.99901     4.33980    0.01224     6.35106
      C   21   -0.30076      1.99900     4.28556    0.01620     6.30076
      C   22   -0.29883      1.99905     4.28447    0.01530     6.29883
      H   23    0.42525      0.00000     0.57223    0.00252     0.57475
      H   24    0.42539      0.00000     0.57208    0.00253     0.57461
      H   25    0.24663      0.00000     0.75178    0.00159     0.75337
      H   26    0.25509      0.00000     0.74333    0.00158     0.74491
      H   27    0.25308      0.00000     0.74478    0.00214     0.74692
      H   28    0.25513      0.00000     0.74327    0.00160     0.74487
      H   29    0.24662      0.00000     0.75176    0.00162     0.75338
      H   30    0.42806      0.00000     0.56938    0.00257     0.57194
      H   31    0.42794      0.00000     0.56950    0.00256     0.57206
      H   32    0.24671      0.00000     0.75167    0.00162     0.75329
      H   33    0.25508      0.00000     0.74332    0.00160     0.74492
      H   34    0.25138      0.00000     0.74718    0.00144     0.74862
      H   35    0.24237      0.00000     0.75627    0.00137     0.75763
      H   36    0.25122      0.00000     0.74734    0.00144     0.74878
      H   37    0.25500      0.00000     0.74341    0.00159     0.74500
      H   38    0.24651      0.00000     0.75190    0.00160     0.75349
 =======================================================================
   * Total *    0.00000     43.97956   109.63634    0.38410   154.00000

                                 Natural Population      
 --------------------------------------------------------
   Core                      43.97956 ( 99.9535% of  44)
   Valence                  109.63634 ( 99.6694% of 110)
   Natural Minimal Basis    153.61590 ( 99.7506% of 154)
   Natural Rydberg Basis      0.38410 (  0.2494% of 154)
 --------------------------------------------------------

    Atom  No          Natural Electron Configuration
 ----------------------------------------------------------------------------
      N    1      [core]2S( 1.37)2p( 4.39)3p( 0.01)
      C    2      [core]2S( 0.85)2p( 2.96)3p( 0.01)
      C    3      [core]2S( 0.96)2p( 3.33)3p( 0.01)
      C    4      [core]2S( 0.96)2p( 3.32)3p( 0.01)
      C    5      [core]2S( 0.84)2p( 2.83)3p( 0.02)3d( 0.01)
      O    6      [core]2S( 1.57)2p( 4.95)3p( 0.01)3d( 0.01)
      C    7      [core]2S( 0.83)2p( 2.83)3p( 0.01)3d( 0.01)
      C    8      [core]2S( 0.96)2p( 3.41)3p( 0.01)
      C    9      [core]2S( 0.83)2p( 2.83)3p( 0.01)3d( 0.01)
      O   10      [core]2S( 1.57)2p( 4.94)3p( 0.01)3d( 0.01)
      C   11      [core]2S( 0.84)2p( 2.81)3p( 0.02)3d( 0.01)
      C   12      [core]2S( 0.96)2p( 3.33)3p( 0.01)
      C   13      [core]2S( 0.96)2p( 3.33)3p( 0.01)
      C   14      [core]2S( 0.85)2p( 2.95)3p( 0.01)
      N   15      [core]2S( 1.37)2p( 4.37)3p( 0.01)
      C   16      [core]2S( 0.96)2p( 3.33)3p( 0.01)
      C   17      [core]2S( 0.96)2p( 3.33)3p( 0.01)
      C   18      [core]2S( 0.96)2p( 3.38)3p( 0.01)
      C   19      [core]2S( 0.95)2p( 3.29)3p( 0.01)
      C   20      [core]2S( 0.96)2p( 3.38)3p( 0.01)
      C   21      [core]2S( 0.96)2p( 3.32)3p( 0.01)
      C   22      [core]2S( 0.96)2p( 3.33)3p( 0.01)
      H   23            1S( 0.57)
      H   24            1S( 0.57)
      H   25            1S( 0.75)
      H   26            1S( 0.74)
      H   27            1S( 0.74)
      H   28            1S( 0.74)
      H   29            1S( 0.75)
      H   30            1S( 0.57)
      H   31            1S( 0.57)
      H   32            1S( 0.75)
      H   33            1S( 0.74)
      H   34            1S( 0.75)
      H   35            1S( 0.76)
      H   36            1S( 0.75)
      H   37            1S( 0.74)
      H   38            1S( 0.75)


 NBO analysis skipped by request.
 1\1\GINC-DRG2-W002\SP\RB3LYP TD-FC\6-31G(d,p)\C18H16N2O2\QDUEZ\19-Jul-
 2024\0\\# TD(NStates=10, Root=1) B3LYP/6-31G** SCRF=(Solvent=water) vo
 lume pop=NPA density=current Geom=AllCheck Guess=Read\\WUPRYUDHUFLKFL-
 UHFFFAOYSA-N_conf_0\\0,1\N,0,7.5317072668,0.6149510968,0.1252109792\C,
 0,6.2093063734,0.1700301992,0.1463268852\C,0,5.5536839198,-0.199134521
 1,-1.0435796933\C,0,4.2570648652,-0.7075122146,-1.0147592735\C,0,3.593
 8562484,-0.8540738917,0.2030361916\O,0,2.3282189246,-1.44209309,0.2396
 9368\C,0,1.2067002786,-0.6495625681,0.1310126879\C,0,-0.0110011863,-1.
 3319293431,0.1750167172\C,0,-1.2059202057,-0.6168840109,0.0750328613\O
 ,0,-2.3536393176,-1.377098634,0.130554546\C,0,-3.597868571,-0.75156039
 73,0.0335045779\C,0,-4.2078539589,-0.6086239543,-1.2122998418\C,0,-5.4
 873038372,-0.0650529306,-1.3017181145\C,0,-6.1779847813,0.3462890991,-
 0.1459564723\N,0,-7.432397783,0.9500676549,-0.2411323466\C,0,-5.546296
 5788,0.1892103632,1.1022281597\C,0,-4.2670135899,-0.3549387529,1.19066
 74698\C,0,-1.1973473732,0.7756137033,-0.069918782\C,0,0.0330156384,1.4
 322824772,-0.1116407044\C,0,1.2421901215,0.7424673125,-0.013079125\C,0
 ,4.2253899692,-0.4937625642,1.392759062\C,0,5.5220206134,0.0145753313,
 1.3649886309\H,0,7.7994179395,1.1836010858,0.9184608311\H,0,7.82085225
 46,1.0454434973,-0.7439052856\H,0,6.0676269925,-0.0896118024,-1.994615
 8824\H,0,3.7576326847,-0.9946668903,-1.9347071254\H,0,-0.0282367718,-2
 .4102315127,0.286527669\H,0,-3.6834632596,-0.9327456838,-2.1057125095\
 H,0,-5.9606313161,0.0406617587,-2.2740375096\H,0,-8.00440639,0.8734678
 641,0.5903199016\H,0,-7.9598414791,0.7021916573,-1.0685419912\H,0,-6.0
 64345196,0.4944066657,2.0071783915\H,0,-3.7885315517,-0.4824061832,2.1
 565510716\H,0,-2.1252092043,1.3281489297,-0.1470841302\H,0,0.050401134
 8,2.5125536473,-0.2234954373\H,0,2.1867832992,1.2702782534,-0.04698384
 62\H,0,3.701440078,-0.6156452225,2.3355270788\H,0,6.0119837489,0.29129
 35709,2.294459673\\Version=ES64L-G16RevA.03\State=1-A\HF=-955.5283156\
 RMSD=5.306e-09\Dipole=-0.700046,1.7522642,-0.20137\Quadrupole=58.15917
 57,-33.957696,-24.2014797,10.6693614,0.9682064,1.1649691\PG=C01 [X(C18
 H16N2O2)]\\@


      HUMANKIND PERIODICALLY GOES THROUGH A SPEEDUP OF ITS AFFAIRS, 
      THEREBY EXPERIENCING THE RACE BETWEEN THE RENEWABLE VITALITY
      OF THE LIVING, AND THE BECKONING VITIATION OF DECADENCE.
      IN THIS PERIODIC RACE, ANY PAUSE BECOMES A LUXURY.
      ONLY THEN CAN ONE REFLECT THAT ALL IS PERMITTED;
      ALL IS POSSIBLE.

                              -- THE APOCRYPHA OF MUAD'DIB
                                 CHILDREN OF DUNE, BY FRANK HERBERT
 Job cpu time:       0 days  1 hours 14 minutes 29.5 seconds.
 Elapsed time:       0 days  0 hours 24 minutes 54.3 seconds.
 File lengths (MBytes):  RWF=   1373 Int=      0 D2E=      0 Chk=     84 Scr=      1
 Normal termination of Gaussian 16 at Fri Jul 19 13:14:39 2024.
