 Entering Gaussian System, Link 0=g16
 Initial command:
 /opt/sw/arch/manual/gaussian/G16_A03/g16/l1.exe "/scratch/1381607/Gau-100973.inp" -scrdir="/scratch/1381607/"
 Entering Link 1 = /opt/sw/arch/manual/gaussian/G16_A03/g16/l1.exe PID=    100974.
  
 Copyright (c) 1988,1990,1992,1993,1995,1998,2003,2009,2016,
            Gaussian, Inc.  All Rights Reserved.
  
 This is part of the Gaussian(R) 16 program.  It is based on
 the Gaussian(R) 09 system (copyright 2009, Gaussian, Inc.),
 the Gaussian(R) 03 system (copyright 2003, Gaussian, Inc.),
 the Gaussian(R) 98 system (copyright 1998, Gaussian, Inc.),
 the Gaussian(R) 94 system (copyright 1995, Gaussian, Inc.),
 the Gaussian 92(TM) system (copyright 1992, Gaussian, Inc.),
 the Gaussian 90(TM) system (copyright 1990, Gaussian, Inc.),
 the Gaussian 88(TM) system (copyright 1988, Gaussian, Inc.),
 the Gaussian 86(TM) system (copyright 1986, Carnegie Mellon
 University), and the Gaussian 82(TM) system (copyright 1983,
 Carnegie Mellon University). Gaussian is a federally registered
 trademark of Gaussian, Inc.
  
 This software contains proprietary and confidential information,
 including trade secrets, belonging to Gaussian, Inc.
  
 This software is provided under written license and may be
 used, copied, transmitted, or stored only in accord with that
 written license.
  
 The following legend is applicable only to US Government
 contracts under FAR:
  
                    RESTRICTED RIGHTS LEGEND
  
 Use, reproduction and disclosure by the US Government is
 subject to restrictions as set forth in subparagraphs (a)
 and (c) of the Commercial Computer Software - Restricted
 Rights clause in FAR 52.227-19.
  
 Gaussian, Inc.
 340 Quinnipiac St., Bldg. 40, Wallingford CT 06492
  
  
 ---------------------------------------------------------------
 Warning -- This program may not be used in any manner that
 competes with the business of Gaussian, Inc. or will provide
 assistance to any competitor of Gaussian, Inc.  The licensee
 of this program is prohibited from giving any competitor of
 Gaussian, Inc. access to this program.  By using this program,
 the user acknowledges that Gaussian, Inc. is engaged in the
 business of creating and licensing software in the field of
 computational chemistry and represents and warrants to the
 licensee that it is not a competitor of Gaussian, Inc. and that
 it will not use this program in any manner prohibited above.
 ---------------------------------------------------------------
  

 Cite this work as:
 Gaussian 16, Revision A.03,
 M. J. Frisch, G. W. Trucks, H. B. Schlegel, G. E. Scuseria, 
 M. A. Robb, J. R. Cheeseman, G. Scalmani, V. Barone, 
 G. A. Petersson, H. Nakatsuji, X. Li, M. Caricato, A. V. Marenich, 
 J. Bloino, B. G. Janesko, R. Gomperts, B. Mennucci, H. P. Hratchian, 
 J. V. Ortiz, A. F. Izmaylov, J. L. Sonnenberg, D. Williams-Young, 
 F. Ding, F. Lipparini, F. Egidi, J. Goings, B. Peng, A. Petrone, 
 T. Henderson, D. Ranasinghe, V. G. Zakrzewski, J. Gao, N. Rega, 
 G. Zheng, W. Liang, M. Hada, M. Ehara, K. Toyota, R. Fukuda, 
 J. Hasegawa, M. Ishida, T. Nakajima, Y. Honda, O. Kitao, H. Nakai, 
 T. Vreven, K. Throssell, J. A. Montgomery, Jr., J. E. Peralta, 
 F. Ogliaro, M. J. Bearpark, J. J. Heyd, E. N. Brothers, K. N. Kudin, 
 V. N. Staroverov, T. A. Keith, R. Kobayashi, J. Normand, 
 K. Raghavachari, A. P. Rendell, J. C. Burant, S. S. Iyengar, 
 J. Tomasi, M. Cossi, J. M. Millam, M. Klene, C. Adamo, R. Cammi, 
 J. W. Ochterski, R. L. Martin, K. Morokuma, O. Farkas, 
 J. B. Foresman, and D. J. Fox, Gaussian, Inc., Wallingford CT, 2016.
 
 ******************************************
 Gaussian 16:  ES64L-G16RevA.03 25-Dec-2016
                22-Jul-2024 
 ******************************************
 %nprocshared=6
 Will use up to    6 processors via shared memory.
 %mem=12GB
 %Chk=WUPRYUDHUFLKFL-UHFFFAOYSA-N_conf_4_0.chk
 -------------------------------------------------------
 # opt=CalcFc B3LYP/6-31G** SCRF=(Solvent=water) scf=xqc
 -------------------------------------------------------
 1/10=4,18=20,19=15,26=3,38=1/1,3;
 2/9=110,12=2,17=6,18=5,40=1/2;
 3/5=1,6=6,7=101,11=2,25=1,30=1,70=2201,71=2,72=1,74=-5,140=1/1,2,3;
 4//1;
 5/5=2,8=3,13=1,38=5,53=1/2,8;
 8/6=4,10=90,11=11/1;
 11/6=1,8=1,9=11,15=111,16=1/1,2,10;
 10/6=1,13=1/2;
 6/7=2,8=2,9=2,10=2,28=1/1;
 7/10=1,18=20,25=1/1,2,3,16;
 1/10=4,18=20,19=15,26=3/3(2);
 2/9=110/2;
 99//99;
 2/9=110/2;
 3/5=1,6=6,7=101,11=2,25=1,30=1,70=2205,71=1,72=1,74=-5/1,2,3;
 4/5=5,16=3,69=1/1;
 5/5=2,8=3,13=1,38=5,53=1/2,8;
 7//1,2,3,16;
 1/18=20,19=15,26=3/3(-5);
 2/9=110/2;
 6/7=2,8=2,9=2,10=2,19=2,28=1/1;
 99/9=1/99;
 ----------------------------------
 WUPRYUDHUFLKFL-UHFFFAOYSA-N_conf_4
 ----------------------------------
 Symbolic Z-matrix:
 Charge =  0 Multiplicity = 1
 N                    -7.47145   0.24269   0.97028 
 C                    -6.20278   0.1041    0.4053 
 C                    -5.53765  -1.13632   0.42349 
 C                    -4.24634  -1.26089  -0.0841 
 C                    -3.59756  -0.14778  -0.61741 
 O                    -2.342    -0.29295  -1.2093 
 C                    -1.20627  -0.11462  -0.44982 
 C                     0.0001   -0.27796  -1.13363 
 C                     1.207    -0.11746  -0.45028 
 O                     2.34214  -0.29981  -1.20944 
 C                     3.59773  -0.15149  -0.61829 
 C                     4.25174  -1.26463  -0.09159 
 C                     5.54299  -1.13736   0.41556 
 C                     6.20189   0.1066    0.40519 
 N                     7.46967   0.24907   0.97078 
 C                     5.5254    1.21703  -0.13403 
 C                     4.2345    1.08883  -0.64143 
 C                     1.22099   0.20486   0.91198 
 C                     0.0013    0.3626    1.57094 
 C                    -1.21903   0.20807   0.91225 
 C                    -4.2403    1.08942  -0.64765 
 C                    -5.53172   1.2147   -0.14059 
 H                    -8.01576   1.01352   0.60427 
 H                    -8.01935  -0.60803   0.9946 
 H                    -6.03955  -2.00716   0.83615 
 H                    -3.74269  -2.22241  -0.07712 
 H                    -0.00035  -0.52753  -2.18873 
 H                     3.75211  -2.22827  -0.09026 
 H                     6.04969  -2.00861   0.82149 
 H                     8.02163  -0.59894   0.99382 
 H                     8.0105    1.02428   0.60879 
 H                     6.0179    2.18528  -0.15539 
 H                     3.7217    1.94674  -1.06475 
 H                     2.15773   0.32914   1.44049 
 H                     0.00174   0.61304   2.62786 
 H                    -2.15526   0.33487   1.441 
 H                    -3.73178   1.94706  -1.07668 
 H                    -6.02879   2.18054  -0.1683 
 

 GradGradGradGradGradGradGradGradGradGradGradGradGradGradGradGradGradGrad
 Berny optimization.
 Initialization pass.
                           ----------------------------
                           !    Initial Parameters    !
                           ! (Angstroms and Degrees)  !
 --------------------------                            --------------------------
 ! Name  Definition              Value          Derivative Info.                !
 --------------------------------------------------------------------------------
 ! R1    R(1,2)                  1.3957         calculate D2E/DX2 analytically  !
 ! R2    R(1,23)                 1.0121         calculate D2E/DX2 analytically  !
 ! R3    R(1,24)                 1.0122         calculate D2E/DX2 analytically  !
 ! R4    R(2,3)                  1.4076         calculate D2E/DX2 analytically  !
 ! R5    R(2,22)                 1.4078         calculate D2E/DX2 analytically  !
 ! R6    R(3,4)                  1.3931         calculate D2E/DX2 analytically  !
 ! R7    R(3,25)                 1.0865         calculate D2E/DX2 analytically  !
 ! R8    R(4,5)                  1.3944         calculate D2E/DX2 analytically  !
 ! R9    R(4,26)                 1.0855         calculate D2E/DX2 analytically  !
 ! R10   R(5,6)                  1.3956         calculate D2E/DX2 analytically  !
 ! R11   R(5,21)                 1.3945         calculate D2E/DX2 analytically  !
 ! R12   R(6,7)                  1.3779         calculate D2E/DX2 analytically  !
 ! R13   R(7,8)                  1.3963         calculate D2E/DX2 analytically  !
 ! R14   R(7,20)                 1.3998         calculate D2E/DX2 analytically  !
 ! R15   R(8,9)                  1.3962         calculate D2E/DX2 analytically  !
 ! R16   R(8,27)                 1.0842         calculate D2E/DX2 analytically  !
 ! R17   R(9,10)                 1.3777         calculate D2E/DX2 analytically  !
 ! R18   R(9,18)                 1.3999         calculate D2E/DX2 analytically  !
 ! R19   R(10,11)                1.3957         calculate D2E/DX2 analytically  !
 ! R20   R(11,12)                1.3944         calculate D2E/DX2 analytically  !
 ! R21   R(11,17)                1.3944         calculate D2E/DX2 analytically  !
 ! R22   R(12,13)                1.3931         calculate D2E/DX2 analytically  !
 ! R23   R(12,28)                1.0855         calculate D2E/DX2 analytically  !
 ! R24   R(13,14)                1.4077         calculate D2E/DX2 analytically  !
 ! R25   R(13,29)                1.0866         calculate D2E/DX2 analytically  !
 ! R26   R(14,15)                1.3955         calculate D2E/DX2 analytically  !
 ! R27   R(14,16)                1.4076         calculate D2E/DX2 analytically  !
 ! R28   R(15,30)                1.0121         calculate D2E/DX2 analytically  !
 ! R29   R(15,31)                1.0122         calculate D2E/DX2 analytically  !
 ! R30   R(16,17)                1.393          calculate D2E/DX2 analytically  !
 ! R31   R(16,32)                1.0865         calculate D2E/DX2 analytically  !
 ! R32   R(17,33)                1.0854         calculate D2E/DX2 analytically  !
 ! R33   R(18,19)                1.3953         calculate D2E/DX2 analytically  !
 ! R34   R(18,34)                1.0827         calculate D2E/DX2 analytically  !
 ! R35   R(19,20)                1.3953         calculate D2E/DX2 analytically  !
 ! R36   R(19,35)                1.0862         calculate D2E/DX2 analytically  !
 ! R37   R(20,36)                1.0827         calculate D2E/DX2 analytically  !
 ! R38   R(21,22)                1.393          calculate D2E/DX2 analytically  !
 ! R39   R(21,37)                1.0855         calculate D2E/DX2 analytically  !
 ! R40   R(22,38)                1.0866         calculate D2E/DX2 analytically  !
 ! A1    A(2,1,23)             114.713          calculate D2E/DX2 analytically  !
 ! A2    A(2,1,24)             114.7282         calculate D2E/DX2 analytically  !
 ! A3    A(23,1,24)            110.9586         calculate D2E/DX2 analytically  !
 ! A4    A(1,2,3)              120.7835         calculate D2E/DX2 analytically  !
 ! A5    A(1,2,22)             120.7938         calculate D2E/DX2 analytically  !
 ! A6    A(3,2,22)             118.3576         calculate D2E/DX2 analytically  !
 ! A7    A(2,3,4)              120.8038         calculate D2E/DX2 analytically  !
 ! A8    A(2,3,25)             119.5325         calculate D2E/DX2 analytically  !
 ! A9    A(4,3,25)             119.6635         calculate D2E/DX2 analytically  !
 ! A10   A(3,4,5)              119.9516         calculate D2E/DX2 analytically  !
 ! A11   A(3,4,26)             120.462          calculate D2E/DX2 analytically  !
 ! A12   A(5,4,26)             119.5835         calculate D2E/DX2 analytically  !
 ! A13   A(4,5,6)              119.8507         calculate D2E/DX2 analytically  !
 ! A14   A(4,5,21)             120.1361         calculate D2E/DX2 analytically  !
 ! A15   A(6,5,21)             119.8501         calculate D2E/DX2 analytically  !
 ! A16   A(5,6,7)              119.6245         calculate D2E/DX2 analytically  !
 ! A17   A(6,7,8)              115.2824         calculate D2E/DX2 analytically  !
 ! A18   A(6,7,20)             123.9626         calculate D2E/DX2 analytically  !
 ! A19   A(8,7,20)             120.755          calculate D2E/DX2 analytically  !
 ! A20   A(7,8,9)              119.5852         calculate D2E/DX2 analytically  !
 ! A21   A(7,8,27)             120.2087         calculate D2E/DX2 analytically  !
 ! A22   A(9,8,27)             120.2061         calculate D2E/DX2 analytically  !
 ! A23   A(8,9,10)             115.2975         calculate D2E/DX2 analytically  !
 ! A24   A(8,9,18)             120.7547         calculate D2E/DX2 analytically  !
 ! A25   A(10,9,18)            123.9478         calculate D2E/DX2 analytically  !
 ! A26   A(9,10,11)            119.5883         calculate D2E/DX2 analytically  !
 ! A27   A(10,11,12)           119.8094         calculate D2E/DX2 analytically  !
 ! A28   A(10,11,17)           119.8886         calculate D2E/DX2 analytically  !
 ! A29   A(12,11,17)           120.1436         calculate D2E/DX2 analytically  !
 ! A30   A(11,12,13)           119.9563         calculate D2E/DX2 analytically  !
 ! A31   A(11,12,28)           119.5571         calculate D2E/DX2 analytically  !
 ! A32   A(13,12,28)           120.4833         calculate D2E/DX2 analytically  !
 ! A33   A(12,13,14)           120.7894         calculate D2E/DX2 analytically  !
 ! A34   A(12,13,29)           119.6696         calculate D2E/DX2 analytically  !
 ! A35   A(14,13,29)           119.5407         calculate D2E/DX2 analytically  !
 ! A36   A(13,14,15)           120.8269         calculate D2E/DX2 analytically  !
 ! A37   A(13,14,16)           118.357          calculate D2E/DX2 analytically  !
 ! A38   A(15,14,16)           120.7517         calculate D2E/DX2 analytically  !
 ! A39   A(14,15,30)           114.7805         calculate D2E/DX2 analytically  !
 ! A40   A(14,15,31)           114.7499         calculate D2E/DX2 analytically  !
 ! A41   A(30,15,31)           111.006          calculate D2E/DX2 analytically  !
 ! A42   A(14,16,17)           120.8181         calculate D2E/DX2 analytically  !
 ! A43   A(14,16,32)           119.517          calculate D2E/DX2 analytically  !
 ! A44   A(17,16,32)           119.6648         calculate D2E/DX2 analytically  !
 ! A45   A(11,17,16)           119.9351         calculate D2E/DX2 analytically  !
 ! A46   A(11,17,33)           119.5883         calculate D2E/DX2 analytically  !
 ! A47   A(16,17,33)           120.4739         calculate D2E/DX2 analytically  !
 ! A48   A(9,18,19)            118.4811         calculate D2E/DX2 analytically  !
 ! A49   A(9,18,34)            120.6684         calculate D2E/DX2 analytically  !
 ! A50   A(19,18,34)           120.8505         calculate D2E/DX2 analytically  !
 ! A51   A(18,19,20)           121.9418         calculate D2E/DX2 analytically  !
 ! A52   A(18,19,35)           119.0304         calculate D2E/DX2 analytically  !
 ! A53   A(20,19,35)           119.0278         calculate D2E/DX2 analytically  !
 ! A54   A(7,20,19)            118.4823         calculate D2E/DX2 analytically  !
 ! A55   A(7,20,36)            120.6696         calculate D2E/DX2 analytically  !
 ! A56   A(19,20,36)           120.8481         calculate D2E/DX2 analytically  !
 ! A57   A(5,21,22)            119.9456         calculate D2E/DX2 analytically  !
 ! A58   A(5,21,37)            119.5791         calculate D2E/DX2 analytically  !
 ! A59   A(22,21,37)           120.4724         calculate D2E/DX2 analytically  !
 ! A60   A(2,22,21)            120.805          calculate D2E/DX2 analytically  !
 ! A61   A(2,22,38)            119.5423         calculate D2E/DX2 analytically  !
 ! A62   A(21,22,38)           119.6526         calculate D2E/DX2 analytically  !
 ! D1    D(23,1,2,3)          -156.5475         calculate D2E/DX2 analytically  !
 ! D2    D(23,1,2,22)           26.4362         calculate D2E/DX2 analytically  !
 ! D3    D(24,1,2,3)           -26.3472         calculate D2E/DX2 analytically  !
 ! D4    D(24,1,2,22)          156.6365         calculate D2E/DX2 analytically  !
 ! D5    D(1,2,3,4)           -176.9758         calculate D2E/DX2 analytically  !
 ! D6    D(1,2,3,25)             3.1982         calculate D2E/DX2 analytically  !
 ! D7    D(22,2,3,4)             0.1117         calculate D2E/DX2 analytically  !
 ! D8    D(22,2,3,25)         -179.7144         calculate D2E/DX2 analytically  !
 ! D9    D(1,2,22,21)          176.9579         calculate D2E/DX2 analytically  !
 ! D10   D(1,2,22,38)           -3.1766         calculate D2E/DX2 analytically  !
 ! D11   D(3,2,22,21)           -0.1293         calculate D2E/DX2 analytically  !
 ! D12   D(3,2,22,38)          179.7362         calculate D2E/DX2 analytically  !
 ! D13   D(2,3,4,5)              0.0521         calculate D2E/DX2 analytically  !
 ! D14   D(2,3,4,26)          -179.3323         calculate D2E/DX2 analytically  !
 ! D15   D(25,3,4,5)           179.878          calculate D2E/DX2 analytically  !
 ! D16   D(25,3,4,26)            0.4935         calculate D2E/DX2 analytically  !
 ! D17   D(3,4,5,6)           -175.5532         calculate D2E/DX2 analytically  !
 ! D18   D(3,4,5,21)            -0.2018         calculate D2E/DX2 analytically  !
 ! D19   D(26,4,5,6)             3.8367         calculate D2E/DX2 analytically  !
 ! D20   D(26,4,5,21)          179.1881         calculate D2E/DX2 analytically  !
 ! D21   D(4,5,6,7)            -92.2785         calculate D2E/DX2 analytically  !
 ! D22   D(21,5,6,7)            92.3566         calculate D2E/DX2 analytically  !
 ! D23   D(4,5,21,22)            0.1844         calculate D2E/DX2 analytically  !
 ! D24   D(4,5,21,37)         -179.2029         calculate D2E/DX2 analytically  !
 ! D25   D(6,5,21,22)          175.5359         calculate D2E/DX2 analytically  !
 ! D26   D(6,5,21,37)           -3.8514         calculate D2E/DX2 analytically  !
 ! D27   D(5,6,7,8)           -179.8376         calculate D2E/DX2 analytically  !
 ! D28   D(5,6,7,20)             0.1475         calculate D2E/DX2 analytically  !
 ! D29   D(6,7,8,9)            179.9874         calculate D2E/DX2 analytically  !
 ! D30   D(6,7,8,27)             0.008          calculate D2E/DX2 analytically  !
 ! D31   D(20,7,8,9)             0.0019         calculate D2E/DX2 analytically  !
 ! D32   D(20,7,8,27)         -179.9775         calculate D2E/DX2 analytically  !
 ! D33   D(6,7,20,19)         -179.9912         calculate D2E/DX2 analytically  !
 ! D34   D(6,7,20,36)           -0.0141         calculate D2E/DX2 analytically  !
 ! D35   D(8,7,20,19)           -0.0069         calculate D2E/DX2 analytically  !
 ! D36   D(8,7,20,36)          179.9701         calculate D2E/DX2 analytically  !
 ! D37   D(7,8,9,10)           179.944          calculate D2E/DX2 analytically  !
 ! D38   D(7,8,9,18)             0.0158         calculate D2E/DX2 analytically  !
 ! D39   D(27,8,9,10)           -0.0766         calculate D2E/DX2 analytically  !
 ! D40   D(27,8,9,18)          179.9952         calculate D2E/DX2 analytically  !
 ! D41   D(8,9,10,11)          179.549          calculate D2E/DX2 analytically  !
 ! D42   D(18,9,10,11)          -0.5254         calculate D2E/DX2 analytically  !
 ! D43   D(8,9,18,19)           -0.0277         calculate D2E/DX2 analytically  !
 ! D44   D(8,9,18,34)         -179.9913         calculate D2E/DX2 analytically  !
 ! D45   D(10,9,18,19)        -179.9494         calculate D2E/DX2 analytically  !
 ! D46   D(10,9,18,34)           0.087          calculate D2E/DX2 analytically  !
 ! D47   D(9,10,11,12)          92.9262         calculate D2E/DX2 analytically  !
 ! D48   D(9,10,11,17)         -91.6425         calculate D2E/DX2 analytically  !
 ! D49   D(10,11,12,13)        175.5658         calculate D2E/DX2 analytically  !
 ! D50   D(10,11,12,28)         -3.7786         calculate D2E/DX2 analytically  !
 ! D51   D(17,11,12,13)          0.1463         calculate D2E/DX2 analytically  !
 ! D52   D(17,11,12,28)       -179.1981         calculate D2E/DX2 analytically  !
 ! D53   D(10,11,17,16)       -175.5884         calculate D2E/DX2 analytically  !
 ! D54   D(10,11,17,33)          3.8282         calculate D2E/DX2 analytically  !
 ! D55   D(12,11,17,16)         -0.1725         calculate D2E/DX2 analytically  !
 ! D56   D(12,11,17,33)        179.244          calculate D2E/DX2 analytically  !
 ! D57   D(11,12,13,14)          0.0428         calculate D2E/DX2 analytically  !
 ! D58   D(11,12,13,29)       -179.7717         calculate D2E/DX2 analytically  !
 ! D59   D(28,12,13,14)        179.381          calculate D2E/DX2 analytically  !
 ! D60   D(28,12,13,29)         -0.4335         calculate D2E/DX2 analytically  !
 ! D61   D(12,13,14,15)        176.9027         calculate D2E/DX2 analytically  !
 ! D62   D(12,13,14,16)         -0.2005         calculate D2E/DX2 analytically  !
 ! D63   D(29,13,14,15)         -3.2825         calculate D2E/DX2 analytically  !
 ! D64   D(29,13,14,16)        179.6143         calculate D2E/DX2 analytically  !
 ! D65   D(13,14,15,30)         26.108          calculate D2E/DX2 analytically  !
 ! D66   D(13,14,15,31)        156.4673         calculate D2E/DX2 analytically  !
 ! D67   D(16,14,15,30)       -156.8584         calculate D2E/DX2 analytically  !
 ! D68   D(16,14,15,31)        -26.4991         calculate D2E/DX2 analytically  !
 ! D69   D(13,14,16,17)          0.1741         calculate D2E/DX2 analytically  !
 ! D70   D(13,14,16,32)       -179.7401         calculate D2E/DX2 analytically  !
 ! D71   D(15,14,16,17)       -176.9314         calculate D2E/DX2 analytically  !
 ! D72   D(15,14,16,32)          3.1545         calculate D2E/DX2 analytically  !
 ! D73   D(14,16,17,11)          0.01           calculate D2E/DX2 analytically  !
 ! D74   D(14,16,17,33)       -179.4013         calculate D2E/DX2 analytically  !
 ! D75   D(32,16,17,11)        179.924          calculate D2E/DX2 analytically  !
 ! D76   D(32,16,17,33)          0.5127         calculate D2E/DX2 analytically  !
 ! D77   D(9,18,19,20)           0.0227         calculate D2E/DX2 analytically  !
 ! D78   D(9,18,19,35)        -179.9793         calculate D2E/DX2 analytically  !
 ! D79   D(34,18,19,20)        179.9863         calculate D2E/DX2 analytically  !
 ! D80   D(34,18,19,35)         -0.0157         calculate D2E/DX2 analytically  !
 ! D81   D(18,19,20,7)          -0.0057         calculate D2E/DX2 analytically  !
 ! D82   D(18,19,20,36)       -179.9827         calculate D2E/DX2 analytically  !
 ! D83   D(35,19,20,7)         179.9963         calculate D2E/DX2 analytically  !
 ! D84   D(35,19,20,36)          0.0193         calculate D2E/DX2 analytically  !
 ! D85   D(5,21,22,2)           -0.0171         calculate D2E/DX2 analytically  !
 ! D86   D(5,21,22,38)        -179.8824         calculate D2E/DX2 analytically  !
 ! D87   D(37,21,22,2)         179.3646         calculate D2E/DX2 analytically  !
 ! D88   D(37,21,22,38)         -0.5007         calculate D2E/DX2 analytically  !
 --------------------------------------------------------------------------------
 Trust Radius=3.00D-01 FncErr=1.00D-07 GrdErr=1.00D-06 EigMax=2.50D+02 EigMin=1.00D-04
 Number of steps in this run=    200 maximum allowed number of steps=    228.
 GradGradGradGradGradGradGradGradGradGradGradGradGradGradGradGradGradGrad

                          Input orientation:                          
 ---------------------------------------------------------------------
 Center     Atomic      Atomic             Coordinates (Angstroms)
 Number     Number       Type             X           Y           Z
 ---------------------------------------------------------------------
      1          7           0       -7.471454    0.242685    0.970280
      2          6           0       -6.202782    0.104098    0.405296
      3          6           0       -5.537646   -1.136318    0.423491
      4          6           0       -4.246339   -1.260885   -0.084096
      5          6           0       -3.597557   -0.147779   -0.617413
      6          8           0       -2.342002   -0.292954   -1.209297
      7          6           0       -1.206268   -0.114621   -0.449820
      8          6           0        0.000097   -0.277955   -1.133625
      9          6           0        1.207001   -0.117456   -0.450284
     10          8           0        2.342135   -0.299810   -1.209441
     11          6           0        3.597728   -0.151491   -0.618294
     12          6           0        4.251740   -1.264625   -0.091592
     13          6           0        5.542987   -1.137363    0.415559
     14          6           0        6.201892    0.106604    0.405191
     15          7           0        7.469673    0.249069    0.970778
     16          6           0        5.525399    1.217029   -0.134025
     17          6           0        4.234501    1.088832   -0.641428
     18          6           0        1.220986    0.204864    0.911975
     19          6           0        0.001297    0.362598    1.570936
     20          6           0       -1.219032    0.208065    0.912248
     21          6           0       -4.240301    1.089420   -0.647649
     22          6           0       -5.531715    1.214699   -0.140594
     23          1           0       -8.015759    1.013524    0.604270
     24          1           0       -8.019350   -0.608028    0.994600
     25          1           0       -6.039554   -2.007160    0.836147
     26          1           0       -3.742689   -2.222405   -0.077116
     27          1           0       -0.000354   -0.527529   -2.188727
     28          1           0        3.752113   -2.228271   -0.090259
     29          1           0        6.049686   -2.008611    0.821487
     30          1           0        8.021633   -0.598936    0.993818
     31          1           0        8.010500    1.024282    0.608785
     32          1           0        6.017897    2.185285   -0.155385
     33          1           0        3.721704    1.946738   -1.064749
     34          1           0        2.157733    0.329140    1.440487
     35          1           0        0.001735    0.613043    2.627863
     36          1           0       -2.155259    0.334866    1.441001
     37          1           0       -3.731779    1.947061   -1.076678
     38          1           0       -6.028785    2.180541   -0.168303
 ---------------------------------------------------------------------
                    Distance matrix (angstroms):
                    1          2          3          4          5
     1  N    0.000000
     2  C    1.395687   0.000000
     3  C    2.437261   1.407611   0.000000
     4  C    3.711307   2.435231   1.393067   0.000000
     5  C    4.204796   2.810084   2.413428   1.394400   0.000000
     6  O    5.598995   4.203592   3.686380   2.414429   1.395644
     7  C    6.434043   5.073876   4.535126   3.269512   2.397384
     8  C    7.779560   6.402339   5.816184   4.483289   3.636830
     9  C    8.801323   7.462304   6.876905   5.583945   4.807560
    10  O   10.067374   8.705523   8.090560   6.752633   5.971060
    11  C   11.189537   9.857132   9.247176   7.940120   7.195286
    12  C   11.867301  10.555441   9.803767   8.498083   7.945772
    13  C   13.099157  11.811199  11.080636   9.802847   9.251803
    14  C   13.685695  12.404674  11.805166  10.548695   9.855944
    15  N   14.941128  13.684912  13.092332  11.859918  11.187646
    16  C   13.080024  11.793206  11.324311  10.081142   9.237137
    17  C   11.846643  10.535759  10.078700   8.817961   7.929118
    18  C    8.692718   7.441721   6.907713   5.747366   5.067716
    19  C    7.497811   6.317922   5.851775   4.839136   4.242771
    20  C    6.252787   5.010546   4.549360   3.509288   2.850240
    21  C    3.711469   2.435341   2.790046   2.416932   1.394523
    22  C    2.437507   1.407750   2.417749   2.789964   2.413435
    23  H    1.012138   2.038022   3.285658   4.455930   4.728810
    24  H    1.012173   2.038215   2.600790   3.978118   4.728918
    25  H    2.670231   2.160946   1.086537   2.149277   3.396098
    26  H    4.591012   3.420145   2.156864   1.085464   2.148734
    27  H    8.147999   6.752631   6.152716   4.795380   3.943743
    28  H   11.541179  10.236477   9.367813   8.056743   7.656630
    29  H   13.708089  12.440246  11.626932  10.362785   9.929875
    30  H   15.515947  14.253933  13.581903  12.333013  11.739045
    31  H   15.505885  14.244491  13.720597  12.487281  11.731337
    32  H   13.674919  12.409299  12.037388  10.827544   9.905232
    33  H   11.503561  10.200577   9.871963   8.645243   7.626185
    34  H    9.641048   8.427365   7.899412   6.772346   6.130723
    35  H    7.663765   6.610209   6.213233   5.377031   4.905667
    36  H    5.337790   4.184302   3.826258   3.040552   2.559343
    37  H    4.591307   3.420324   3.875421   3.397191   2.148789
    38  H    2.670759   2.161228   3.404848   3.876547   3.396122
                    6          7          8          9         10
     6  O    0.000000
     7  C    1.377861   0.000000
     8  C    2.343369   1.396275   0.000000
     9  C    3.633500   2.413271   1.396185   0.000000
    10  O    4.684142   3.633522   2.343367   1.377716   0.000000
    11  C    5.970736   4.807091   3.636552   2.396865   1.395696
    12  C    6.758021   5.589337   4.487295   3.273392   2.413927
    13  C    8.094828   6.880939   5.819122   4.537694   3.686133
    14  C    8.704272   7.460618   6.401414   5.072571   4.203562
    15  N   10.065559   8.798995   7.778228   6.432326   5.598774
    16  C    8.082837   6.869378   5.810606   4.530942   3.686528
    17  C    6.744049   5.575570   4.476666   3.264571   2.414956
    18  C    4.176422   2.801449   2.430671   1.399941   2.451954
    19  C    3.694658   2.401959   2.779381   2.401979   3.694429
    20  C    2.452149   1.399828   2.430656   2.801445   4.176292
    21  C    2.414528   3.270200   4.481837   5.582885   6.750854
    22  C    3.686382   4.535659   5.815073   6.876106   8.089109
    23  H    6.098150   6.982334   8.303141   9.351497  10.597187
    24  H    6.098255   6.981969   8.303603   9.351679  10.597791
    25  H    4.560070   5.347529   6.583885   7.598582   8.795009
    26  H    2.639420   3.318899   4.348051   5.391613   6.481020
    27  H    2.549044   2.156042   1.084218   2.155934   2.549139
    28  H    6.491220   5.402068   4.355453   3.326072   2.638099
    29  H    8.802726   7.606069   6.589018   5.352146   4.559671
    30  H   10.599635   9.352690   8.305064   6.982583   6.099223
    31  H   10.593150   9.347008   8.300504   6.979455   6.098322
    32  H    8.782956   7.587148   6.575593   5.341751   4.560478
    33  H    6.465728   5.377011   4.336400   3.310921   2.640289
    34  H    5.258894   3.884158   3.413211   2.162950   2.729780
    35  H    4.586691   3.385395   3.865575   3.385452   4.586466
    36  H    2.730039   2.162828   3.413182   3.884115   5.258727
    37  H    2.639457   3.319893   4.345209   5.389448   6.477537
    38  H    4.560067   5.348242   6.582056   7.597164   8.792520
                   11         12         13         14         15
    11  C    0.000000
    12  C    1.394351   0.000000
    13  C    2.413468   1.393096   0.000000
    14  C    2.809947   2.435191   1.407735   0.000000
    15  N    4.204469   3.711468   2.437741   1.395512   0.000000
    16  C    2.413147   2.789734   2.417750   1.407636   2.436747
    17  C    1.394423   2.416894   2.790215   2.435326   3.710896
    18  C    2.849143   3.514543   4.552768   5.007585   6.249120
    19  C    4.241619   4.845423   5.856202   6.314418   7.493312
    20  C    5.066855   5.753769   6.912436   7.438919   8.688999
    21  C    7.935705   8.829807  10.089683  10.541053  11.851118
    22  C    9.243452  10.092841  11.335366  11.798444  13.084482
    23  H   11.735630  12.496628  13.729586  14.247938  15.508621
    24  H   11.737391  12.336555  13.585009  14.251380  15.512737
    25  H    9.921497  10.359671  11.622766  12.430073  13.697004
    26  H    7.646128   8.051611   9.361828  10.225047  11.529238
    27  H    3.943838   4.798082   6.154903   6.752658   8.147814
    28  H    2.148411   1.085469   2.157119   3.420311   4.591652
    29  H    3.396169   2.149381   1.086552   2.161158   2.671286
    30  H    4.729698   3.979114   2.601533   2.038560   1.012079
    31  H    4.728712   4.456220   3.286132   2.038295   1.012170
    32  H    3.395884   3.876243   3.404630   2.160790   2.669238
    33  H    2.148780   3.397179   3.875573   3.420256   4.590503
    34  H    2.557962   3.045032   3.828975   4.180500   5.333268
    35  H    4.904408   5.383643   6.218013   6.605959   7.658231
    36  H    6.129771   6.779148   7.904554   8.424190   9.636793
    37  H    7.637782   8.661518   9.887453  10.210829  11.512940
    38  H    9.915171  10.842705  12.052190  12.418517  13.683437
                   16         17         18         19         20
    16  C    0.000000
    17  C    1.392950   0.000000
    18  C    4.543849   3.503674   0.000000
    19  C    5.844027   4.831355   1.395260   0.000000
    20  C    6.899279   5.738526   2.440020   1.395333   0.000000
    21  C    9.780030   8.474804   5.748089   4.841647   3.512568
    22  C   11.057116   9.779860   6.908447   5.854027   4.552035
    23  H   13.562797  12.313663   9.277180   8.101317   6.851212
    24  H   13.713674  12.478493   9.276391   8.099695   6.849607
    25  H   12.045114  10.831648   7.590405   6.530509   5.305699
    26  H    9.885869   8.655536   5.613199   4.838982   3.640724
    27  H    6.148108   4.789651   3.412100   3.863599   3.412084
    28  H    3.875119   3.397007   3.651195   4.851885   5.626103
    29  H    3.404796   3.876747   5.312627   6.539672   7.599747
    30  H    3.286479   4.457012   6.848474   8.098358   9.276195
    31  H    2.600893   3.978111   6.845500   8.093880   9.270521
    32  H    1.086522   2.149174   5.298271   6.519344   7.577756
    33  H    2.156858   1.085433   3.632513   4.826776   5.598426
    34  H    3.822121   3.037181   1.082712   2.160637   3.419976
    35  H    6.205134   5.369446   2.144168   1.086194   2.144205
    36  H    7.889957   6.762692   3.419912   2.160645   1.082672
    37  H    9.333643   8.024189   5.614256   4.843164   3.646071
    38  H   11.594339  10.332024   7.591408   6.533893   5.309612
                   21         22         23         24         25
    21  C    0.000000
    22  C    1.393036   0.000000
    23  H    3.978334   2.601109   0.000000
    24  H    4.456402   3.286233   1.667873   0.000000
    25  H    3.876567   3.404747   3.617138   2.429459   0.000000
    26  H    3.397250   3.875349   5.403207   4.695170   2.481122
    27  H    4.792348   6.150298   8.626841   8.628114   6.914558
    28  H    8.671588   9.901820  12.225973  11.931867   9.837879
    29  H   10.846197  12.060024  14.388093  14.139638  12.089249
    30  H   12.485992  13.721130  16.122956  16.040986  14.132407
    31  H   12.315234  13.564270  16.026263  16.117363  14.375164
    32  H   10.328304  11.590332  14.102964  14.358599  12.803978
    33  H    8.018883   9.328221  11.892205  12.190984  10.701816
    34  H    6.772974   7.900104  10.230717  10.229864   8.545118
    35  H    5.380593   6.216543   8.278618   8.276253   6.824433
    36  H    3.046180   3.830927   5.958704   5.956164   4.575880
    37  H    1.085453   2.156937   4.695696   5.403882   4.961914
    38  H    2.149184   1.086599   2.430404   3.618122   4.306492
                   26         27         28         29         30
    26  H    0.000000
    27  H    4.619153   0.000000
    28  H    7.494816   4.623538   0.000000
    29  H    9.835843   6.917946   2.481607   0.000000
    30  H   11.924002   8.630525   4.696675   2.430115   0.000000
    31  H   12.212653   8.626006   5.403853   3.617800   1.668296
    32  H   10.709944   6.907473   4.961602   4.306281   3.617667
    33  H    8.606645   4.608583   4.287337   4.962073   5.404400
    34  H    6.605186   4.308412   3.380175   4.582089   5.953668
    35  H    5.420091   4.949793   5.433837   6.834748   8.273920
    36  H    3.371090   4.308395   6.619024   8.555513  10.229423
    37  H    4.287621   4.613435   8.626416  10.720421  12.202940
    38  H    4.961903   6.910697  10.728918  12.822564  14.369769
                   31         32         33         34         35
    31  H    0.000000
    32  H    2.429475   0.000000
    33  H    4.695254   2.481199   0.000000
    34  H    5.952296   4.570880   3.367319   0.000000
    35  H    8.269589   6.812681   5.408539   2.477658   0.000000
    36  H   10.223039   8.530708   6.589052   4.312996   2.477629
    37  H   11.898463   9.796005   7.453493   6.606068   5.426081
    38  H   14.108236  12.046690   9.794402   8.546050   6.829551
                   36         37         38
    36  H    0.000000
    37  H    3.379837   0.000000
    38  H    4.582639   2.481108   0.000000
 Stoichiometry    C18H16N2O2
 Framework group  C1[X(C18H16N2O2)]
 Deg. of freedom   108
 Full point group                 C1      NOp   1
 Largest Abelian subgroup         C1      NOp   1
 Largest concise Abelian subgroup C1      NOp   1
                         Standard orientation:                         
 ---------------------------------------------------------------------
 Center     Atomic      Atomic             Coordinates (Angstroms)
 Number     Number       Type             X           Y           Z
 ---------------------------------------------------------------------
      1          7           0        7.471454   -0.242685    0.970280
      2          6           0        6.202782   -0.104098    0.405296
      3          6           0        5.537646    1.136318    0.423491
      4          6           0        4.246339    1.260885   -0.084096
      5          6           0        3.597557    0.147779   -0.617413
      6          8           0        2.342002    0.292954   -1.209297
      7          6           0        1.206268    0.114621   -0.449820
      8          6           0       -0.000097    0.277955   -1.133625
      9          6           0       -1.207001    0.117456   -0.450284
     10          8           0       -2.342135    0.299810   -1.209441
     11          6           0       -3.597728    0.151491   -0.618294
     12          6           0       -4.251740    1.264625   -0.091592
     13          6           0       -5.542987    1.137363    0.415559
     14          6           0       -6.201892   -0.106604    0.405191
     15          7           0       -7.469673   -0.249069    0.970778
     16          6           0       -5.525399   -1.217029   -0.134025
     17          6           0       -4.234501   -1.088832   -0.641428
     18          6           0       -1.220986   -0.204864    0.911975
     19          6           0       -0.001297   -0.362598    1.570936
     20          6           0        1.219032   -0.208065    0.912248
     21          6           0        4.240301   -1.089420   -0.647649
     22          6           0        5.531715   -1.214699   -0.140594
     23          1           0        8.015759   -1.013524    0.604270
     24          1           0        8.019350    0.608028    0.994600
     25          1           0        6.039554    2.007160    0.836147
     26          1           0        3.742689    2.222405   -0.077116
     27          1           0        0.000354    0.527529   -2.188727
     28          1           0       -3.752113    2.228271   -0.090259
     29          1           0       -6.049686    2.008611    0.821487
     30          1           0       -8.021633    0.598936    0.993818
     31          1           0       -8.010500   -1.024282    0.608785
     32          1           0       -6.017897   -2.185285   -0.155385
     33          1           0       -3.721704   -1.946738   -1.064749
     34          1           0       -2.157733   -0.329140    1.440487
     35          1           0       -0.001735   -0.613043    2.627863
     36          1           0        2.155259   -0.334866    1.441001
     37          1           0        3.731779   -1.947061   -1.076678
     38          1           0        6.028785   -2.180541   -0.168303
 ---------------------------------------------------------------------
 Rotational constants (GHZ):           1.3484633           0.0838209           0.0836220
 Standard basis: 6-31G(d,p) (6D, 7F)
 There are   410 symmetry adapted cartesian basis functions of A   symmetry.
 There are   410 symmetry adapted basis functions of A   symmetry.
   410 basis functions,   728 primitive gaussians,   410 cartesian basis functions
    77 alpha electrons       77 beta electrons
       nuclear repulsion energy      1560.0959745070 Hartrees.
 NAtoms=   38 NActive=   38 NUniq=   38 SFac= 1.00D+00 NAtFMM=   60 NAOKFM=F Big=F
 Integral buffers will be    131072 words long.
 Raffenetti 2 integral format.
 Two-electron integral symmetry is turned on.
 Force inversion solution in PCM.
 ------------------------------------------------------------------------------
 Polarizable Continuum Model (PCM)
 =================================
 Model                : PCM.
 Atomic radii         : UFF (Universal Force Field).
 Polarization charges : Total charges.
 Charge compensation  : None.
 Solution method      : Matrix inversion.
 Cavity type          : Scaled VdW (van der Waals Surface) (Alpha=1.100).
 Cavity algorithm     : GePol (No added spheres)
                        Default sphere list used, NSphG=   38.
                        Lebedev-Laikov grids with approx.  5.0 points / Ang**2.
                        Smoothing algorithm: York/Karplus (Gamma=1.0000).
                        Polarization charges: spherical gaussians, with
                                              point-specific exponents (IZeta= 3).
                        Self-potential: point-specific (ISelfS= 7).
                        Self-field    : sphere-specific E.n sum rule (ISelfD= 2).
 1st derivatives      : Analytical E(r).r(x)/FMM algorithm (CHGder, D1EAlg=3).
                        Cavity 1st derivative terms included.
 2nd derivatives      : Analytical E(r).r(xy)/FMM algorithm (CHGder, D2EAlg=3).
                        Cavity 2nd derivative terms included.
 Solvent              : Water, Eps=  78.355300 Eps(inf)=   1.777849
 ------------------------------------------------------------------------------
 One-electron integrals computed using PRISM.
 NBasis=   410 RedAO= T EigKep=  4.04D-04  NBF=   410
 NBsUse=   410 1.00D-06 EigRej= -1.00D+00 NBFU=   410
 ExpMin= 1.61D-01 ExpMax= 5.48D+03 ExpMxC= 8.25D+02 IAcc=3 IRadAn=         5 AccDes= 0.00D+00
 Harris functional with IExCor=  402 and IRadAn=       5 diagonalized for initial guess.
 HarFok:  IExCor=  402 AccDes= 0.00D+00 IRadAn=         5 IDoV= 1 UseB2=F ITyADJ=14
 ICtDFT=  3500011 ScaDFX=  1.000000  1.000000  1.000000  1.000000
 FoFCou: FMM=F IPFlag=           0 FMFlag=      100000 FMFlg1=           0
         NFxFlg=           0 DoJE=T BraDBF=F KetDBF=T FulRan=T
         wScrn=  0.000000 ICntrl=       500 IOpCl=  0 I1Cent=   200000004 NGrid=           0
         NMat0=    1 NMatS0=      1 NMatT0=    0 NMatD0=    1 NMtDS0=    0 NMtDT0=    0
 Petite list used in FoFCou.
 Requested convergence on RMS density matrix=1.00D-08 within  32 cycles.
 Requested convergence on MAX density matrix=1.00D-06.
 Requested convergence on             energy=1.00D-06.
 No special actions if energy rises.
 Inv3:  Mode=1 IEnd=    26659083.
 Iteration    1 A*A^-1 deviation from unit magnitude is 3.11D-15 for   2363.
 Iteration    1 A*A^-1 deviation from orthogonality  is 3.16D-15 for   1843    603.
 Iteration    1 A^-1*A deviation from unit magnitude is 2.89D-15 for    598.
 Iteration    1 A^-1*A deviation from orthogonality  is 2.44D-15 for   2065   1136.
 Error on total polarization charges =  0.01083
 SCF Done:  E(RB3LYP) =  -955.528306571     A.U. after   12 cycles
            NFock= 12  Conv=0.53D-08     -V/T= 2.0095
 QCSCF skips out because SCF is already converged.
 DoSCS=F DFT=T ScalE2(SS,OS)=  1.000000  1.000000
 Range of M.O.s used for correlation:     1   410
 NBasis=   410 NAE=    77 NBE=    77 NFC=     0 NFV=     0
 NROrb=    410 NOA=    77 NOB=    77 NVA=   333 NVB=   333
 Symmetrizing basis deriv contribution to polar:
 IMax=3 JMax=2 DiffMx= 0.00D+00
 G2DrvN: will do    39 centers at a time, making    1 passes.
 Calling FoFCou, ICntrl=  3107 FMM=F I1Cent=   0 AccDes= 0.00D+00.
 NEqPCM:  Using equilibrium solvation (IEInf=0, Eps=  78.3553, EpsInf=   1.7778)
 G2PCM: DoFxE=T DoFxN=T DoGrad=T DoDP/DQ/DG/TGxP=FFFF NFrqRd=   0 IEInf=0 SqF1=F DoCFld=F IF1Alg=4.
 End of G2Drv F.D. properties file   721 does not exist.
 End of G2Drv F.D. properties file   722 does not exist.
 End of G2Drv F.D. properties file   788 does not exist.
          IDoAtm=11111111111111111111111111111111111111
 NEqPCM:  Using equilibrium solvation (IEInf=0, Eps=  78.3553, EpsInf=   1.7778)
          Differentiating once with respect to nuclear coordinates.
 CalDSu exits because no D1Ps are significant.
          There are   117 degrees of freedom in the 1st order CPHF.  IDoFFX=6 NUNeed=     0.
    111 vectors produced by pass  0 Test12= 2.56D-14 1.00D-09 XBig12= 1.64D-01 1.26D-01.
 AX will form   111 AO Fock derivatives at one time.
    111 vectors produced by pass  1 Test12= 2.56D-14 1.00D-09 XBig12= 2.30D-02 3.91D-02.
    111 vectors produced by pass  2 Test12= 2.56D-14 1.00D-09 XBig12= 2.79D-04 2.06D-03.
    111 vectors produced by pass  3 Test12= 2.56D-14 1.00D-09 XBig12= 1.34D-06 1.78D-04.
    111 vectors produced by pass  4 Test12= 2.56D-14 1.00D-09 XBig12= 2.12D-09 4.72D-06.
     89 vectors produced by pass  5 Test12= 2.56D-14 1.00D-09 XBig12= 2.35D-12 1.19D-07.
     23 vectors produced by pass  6 Test12= 2.56D-14 1.00D-09 XBig12= 2.07D-15 3.15D-09.
      1 vectors produced by pass  7 Test12= 2.56D-14 1.00D-09 XBig12= 6.23D-17 1.02D-09.
 InvSVY:  IOpt=1 It=  1 EMax= 3.05D-16
 Solved reduced A of dimension   668 with   117 vectors.
 End of Minotr F.D. properties file   721 does not exist.
 End of Minotr F.D. properties file   722 does not exist.
 End of Minotr F.D. properties file   788 does not exist.

 **********************************************************************

            Population analysis using the SCF density.

 **********************************************************************

 Orbital symmetries:
       Occupied  (A) (A) (A) (A) (A) (A) (A) (A) (A) (A) (A) (A)
                 (A) (A) (A) (A) (A) (A) (A) (A) (A) (A) (A) (A)
                 (A) (A) (A) (A) (A) (A) (A) (A) (A) (A) (A) (A)
                 (A) (A) (A) (A) (A) (A) (A) (A) (A) (A) (A) (A)
                 (A) (A) (A) (A) (A) (A) (A) (A) (A) (A) (A) (A)
                 (A) (A) (A) (A) (A) (A) (A) (A) (A) (A) (A) (A)
                 (A) (A) (A) (A) (A)
       Virtual   (A) (A) (A) (A) (A) (A) (A) (A) (A) (A) (A) (A)
                 (A) (A) (A) (A) (A) (A) (A) (A) (A) (A) (A) (A)
                 (A) (A) (A) (A) (A) (A) (A) (A) (A) (A) (A) (A)
                 (A) (A) (A) (A) (A) (A) (A) (A) (A) (A) (A) (A)
                 (A) (A) (A) (A) (A) (A) (A) (A) (A) (A) (A) (A)
                 (A) (A) (A) (A) (A) (A) (A) (A) (A) (A) (A) (A)
                 (A) (A) (A) (A) (A) (A) (A) (A) (A) (A) (A) (A)
                 (A) (A) (A) (A) (A) (A) (A) (A) (A) (A) (A) (A)
                 (A) (A) (A) (A) (A) (A) (A) (A) (A) (A) (A) (A)
                 (A) (A) (A) (A) (A) (A) (A) (A) (A) (A) (A) (A)
                 (A) (A) (A) (A) (A) (A) (A) (A) (A) (A) (A) (A)
                 (A) (A) (A) (A) (A) (A) (A) (A) (A) (A) (A) (A)
                 (A) (A) (A) (A) (A) (A) (A) (A) (A) (A) (A) (A)
                 (A) (A) (A) (A) (A) (A) (A) (A) (A) (A) (A) (A)
                 (A) (A) (A) (A) (A) (A) (A) (A) (A) (A) (A) (A)
                 (A) (A) (A) (A) (A) (A) (A) (A) (A) (A) (A) (A)
                 (A) (A) (A) (A) (A) (A) (A) (A) (A) (A) (A) (A)
                 (A) (A) (A) (A) (A) (A) (A) (A) (A) (A) (A) (A)
                 (A) (A) (A) (A) (A) (A) (A) (A) (A) (A) (A) (A)
                 (A) (A) (A) (A) (A) (A) (A) (A) (A) (A) (A) (A)
                 (A) (A) (A) (A) (A) (A) (A) (A) (A) (A) (A) (A)
                 (A) (A) (A) (A) (A) (A) (A) (A) (A) (A) (A) (A)
                 (A) (A) (A) (A) (A) (A) (A) (A) (A) (A) (A) (A)
                 (A) (A) (A) (A) (A) (A) (A) (A) (A) (A) (A) (A)
                 (A) (A) (A) (A) (A) (A) (A) (A) (A) (A) (A) (A)
                 (A) (A) (A) (A) (A) (A) (A) (A) (A) (A) (A) (A)
                 (A) (A) (A) (A) (A) (A) (A) (A) (A) (A) (A) (A)
                 (A) (A) (A) (A) (A) (A) (A) (A) (A)
 The electronic state is 1-A.
 Alpha  occ. eigenvalues --  -19.18611 -19.18610 -14.33841 -14.33841 -10.25533
 Alpha  occ. eigenvalues --  -10.25531 -10.23953 -10.23948 -10.23186 -10.23186
 Alpha  occ. eigenvalues --  -10.19591 -10.19390 -10.19389 -10.19388 -10.19385
 Alpha  occ. eigenvalues --  -10.18912 -10.18909 -10.18908 -10.18907 -10.18468
 Alpha  occ. eigenvalues --  -10.18406 -10.18404  -1.07341  -1.07190  -0.91697
 Alpha  occ. eigenvalues --   -0.91694  -0.85828  -0.84053  -0.83336  -0.75871
 Alpha  occ. eigenvalues --   -0.75377  -0.75029  -0.75029  -0.71534  -0.71322
 Alpha  occ. eigenvalues --   -0.63842  -0.62155  -0.62151  -0.61475  -0.60654
 Alpha  occ. eigenvalues --   -0.57326  -0.55324  -0.51922  -0.51562  -0.51185
 Alpha  occ. eigenvalues --   -0.51155  -0.49767  -0.49553  -0.48093  -0.44882
 Alpha  occ. eigenvalues --   -0.44825  -0.44516  -0.44399  -0.43476  -0.42330
 Alpha  occ. eigenvalues --   -0.42258  -0.41823  -0.40993  -0.40180  -0.39677
 Alpha  occ. eigenvalues --   -0.38792  -0.37965  -0.37586  -0.37523  -0.35753
 Alpha  occ. eigenvalues --   -0.35132  -0.34831  -0.33944  -0.30808  -0.30490
 Alpha  occ. eigenvalues --   -0.30349  -0.25724  -0.25645  -0.23491  -0.22040
 Alpha  occ. eigenvalues --   -0.20470  -0.20414
 Alpha virt. eigenvalues --   -0.01370  -0.00648   0.00621   0.01117   0.01323
 Alpha virt. eigenvalues --    0.01520   0.08841   0.09004   0.09862   0.10557
 Alpha virt. eigenvalues --    0.10774   0.12970   0.12986   0.14778   0.15533
 Alpha virt. eigenvalues --    0.16005   0.16368   0.16614   0.16891   0.17108
 Alpha virt. eigenvalues --    0.17117   0.17493   0.17595   0.18857   0.19940
 Alpha virt. eigenvalues --    0.19990   0.20009   0.23907   0.24017   0.25913
 Alpha virt. eigenvalues --    0.28566   0.29547   0.29981   0.32907   0.33247
 Alpha virt. eigenvalues --    0.33250   0.33304   0.34288   0.34296   0.35059
 Alpha virt. eigenvalues --    0.35606   0.38984   0.39411   0.44478   0.47672
 Alpha virt. eigenvalues --    0.48436   0.48731   0.50623   0.51299   0.52454
 Alpha virt. eigenvalues --    0.52833   0.52980   0.53691   0.54181   0.54838
 Alpha virt. eigenvalues --    0.55264   0.56297   0.56313   0.56359   0.57758
 Alpha virt. eigenvalues --    0.57783   0.58026   0.58473   0.58503   0.58790
 Alpha virt. eigenvalues --    0.58973   0.59854   0.60659   0.60667   0.60794
 Alpha virt. eigenvalues --    0.61260   0.61353   0.62702   0.63064   0.64405
 Alpha virt. eigenvalues --    0.64437   0.64897   0.65221   0.67682   0.68737
 Alpha virt. eigenvalues --    0.68854   0.70298   0.70327   0.73487   0.75948
 Alpha virt. eigenvalues --    0.76109   0.76211   0.76362   0.78327   0.78760
 Alpha virt. eigenvalues --    0.80028   0.80387   0.81403   0.81813   0.81912
 Alpha virt. eigenvalues --    0.81918   0.84317   0.84562   0.84723   0.85825
 Alpha virt. eigenvalues --    0.86219   0.86225   0.86648   0.87098   0.87249
 Alpha virt. eigenvalues --    0.88605   0.89079   0.89696   0.90776   0.91042
 Alpha virt. eigenvalues --    0.93687   0.93744   0.94003   0.94471   0.96162
 Alpha virt. eigenvalues --    0.98348   0.98426   0.99016   0.99496   1.02826
 Alpha virt. eigenvalues --    1.03701   1.03930   1.04170   1.07927   1.08186
 Alpha virt. eigenvalues --    1.10489   1.10577   1.13527   1.14435   1.14911
 Alpha virt. eigenvalues --    1.15452   1.16575   1.17034   1.17812   1.18005
 Alpha virt. eigenvalues --    1.19278   1.23665   1.24614   1.24772   1.27142
 Alpha virt. eigenvalues --    1.28927   1.30722   1.31851   1.31873   1.34105
 Alpha virt. eigenvalues --    1.34518   1.38047   1.38149   1.38173   1.38500
 Alpha virt. eigenvalues --    1.38718   1.39670   1.40004   1.40210   1.40314
 Alpha virt. eigenvalues --    1.41167   1.44158   1.44504   1.45098   1.46716
 Alpha virt. eigenvalues --    1.47480   1.47667   1.51940   1.52014   1.64484
 Alpha virt. eigenvalues --    1.65181   1.70684   1.73140   1.74931   1.75079
 Alpha virt. eigenvalues --    1.75456   1.76770   1.77778   1.77931   1.79916
 Alpha virt. eigenvalues --    1.79947   1.80408   1.81975   1.84654   1.85713
 Alpha virt. eigenvalues --    1.86269   1.86491   1.87734   1.89715   1.90116
 Alpha virt. eigenvalues --    1.90181   1.90572   1.90576   1.91010   1.91130
 Alpha virt. eigenvalues --    1.92187   1.92235   1.93097   1.93554   1.95932
 Alpha virt. eigenvalues --    1.96283   1.96343   1.96393   1.96828   1.98106
 Alpha virt. eigenvalues --    1.99116   2.01734   2.02107   2.02672   2.05377
 Alpha virt. eigenvalues --    2.05481   2.09321   2.09635   2.10480   2.13323
 Alpha virt. eigenvalues --    2.16510   2.17483   2.17590   2.19324   2.19921
 Alpha virt. eigenvalues --    2.22220   2.23546   2.26899   2.27112   2.28294
 Alpha virt. eigenvalues --    2.28743   2.29667   2.31805   2.32157   2.32350
 Alpha virt. eigenvalues --    2.32970   2.33357   2.33465   2.34062   2.35388
 Alpha virt. eigenvalues --    2.36032   2.37814   2.40349   2.40645   2.40649
 Alpha virt. eigenvalues --    2.41230   2.41894   2.41907   2.45050   2.45376
 Alpha virt. eigenvalues --    2.45743   2.46380   2.46388   2.46542   2.46985
 Alpha virt. eigenvalues --    2.47415   2.47960   2.48481   2.50712   2.54789
 Alpha virt. eigenvalues --    2.54871   2.55129   2.55431   2.56284   2.56811
 Alpha virt. eigenvalues --    2.57806   2.58324   2.59853   2.59913   2.64464
 Alpha virt. eigenvalues --    2.64868   2.64984   2.66457   2.67331   2.70571
 Alpha virt. eigenvalues --    2.71894   2.72677   2.73709   2.75389   2.75860
 Alpha virt. eigenvalues --    2.76602   2.76676   2.79228   2.82817   2.83147
 Alpha virt. eigenvalues --    2.84712   2.84723   2.88086   2.93119   2.99554
 Alpha virt. eigenvalues --    2.99857   3.01746   3.03032   3.06158   3.06301
 Alpha virt. eigenvalues --    3.06305   3.07166   3.11932   3.14170   3.19702
 Alpha virt. eigenvalues --    3.20075   3.22019   3.24650   3.24653   3.25450
 Alpha virt. eigenvalues --    3.28111   3.28141   3.31226   3.31276   3.35868
 Alpha virt. eigenvalues --    3.36314   3.40872   3.41793   3.47304   3.50134
 Alpha virt. eigenvalues --    3.50162   3.54311   3.54361   3.81544   3.82612
 Alpha virt. eigenvalues --    3.84703   4.04820   4.04892   4.11774   4.12965
 Alpha virt. eigenvalues --    4.13430   4.15285   4.15586   4.15634   4.15867
 Alpha virt. eigenvalues --    4.22959   4.23030   4.41564   4.43242   4.43280
 Alpha virt. eigenvalues --    4.43345   4.44071   4.46917   4.56072   4.70995
 Alpha virt. eigenvalues --    4.82863   4.85545   4.87741
          Condensed to atoms (all electrons):
               1          2          3          4          5          6
     1  N    6.821438   0.307369  -0.070669   0.004876   0.000455   0.000000
     2  C    0.307369   4.565436   0.533022  -0.025508  -0.031539   0.000127
     3  C   -0.070669   0.533022   4.965878   0.493181  -0.027878   0.004579
     4  C    0.004876  -0.025508   0.493181   4.921692   0.531931  -0.047951
     5  C    0.000455  -0.031539  -0.027878   0.531931   4.638870   0.186243
     6  O    0.000000   0.000127   0.004579  -0.047951   0.186243   8.359442
     7  C   -0.000000   0.000055  -0.000063  -0.003356  -0.027952   0.250380
     8  C   -0.000000  -0.000001   0.000006  -0.000059   0.001189  -0.049193
     9  C   -0.000000  -0.000000  -0.000000   0.000005  -0.000097   0.002649
    10  O   -0.000000  -0.000000   0.000000   0.000000   0.000000  -0.000011
    11  C   -0.000000  -0.000000  -0.000000   0.000000  -0.000000   0.000000
    12  C    0.000000   0.000000  -0.000000  -0.000000   0.000000   0.000000
    13  C    0.000000   0.000000  -0.000000  -0.000000  -0.000000   0.000000
    14  C    0.000000  -0.000000   0.000000   0.000000  -0.000000  -0.000000
    15  N    0.000000   0.000000   0.000000   0.000000  -0.000000  -0.000000
    16  C    0.000000   0.000000  -0.000000  -0.000000  -0.000000   0.000000
    17  C    0.000000   0.000000  -0.000000  -0.000000   0.000000   0.000000
    18  C   -0.000000   0.000000   0.000000  -0.000001   0.000024   0.000255
    19  C   -0.000000  -0.000000   0.000001  -0.000031   0.000205   0.004017
    20  C    0.000000   0.000015  -0.000276   0.000330   0.006273  -0.058032
    21  C    0.004870  -0.025519  -0.040276  -0.062333   0.531978  -0.048046
    22  C   -0.070670   0.532879  -0.045615  -0.040296  -0.027876   0.004578
    23  H    0.347143  -0.025967   0.005089  -0.000165  -0.000001  -0.000000
    24  H    0.347150  -0.025947  -0.008903   0.000018  -0.000001  -0.000000
    25  H   -0.007374  -0.041648   0.363285  -0.030575   0.003473  -0.000059
    26  H   -0.000100   0.003836  -0.035065   0.363234  -0.038866  -0.002886
    27  H   -0.000000   0.000000  -0.000000  -0.000005   0.000209  -0.000709
    28  H   -0.000000  -0.000000   0.000000   0.000000   0.000000  -0.000000
    29  H    0.000000  -0.000000   0.000000   0.000000   0.000000  -0.000000
    30  H    0.000000   0.000000   0.000000   0.000000  -0.000000  -0.000000
    31  H    0.000000   0.000000   0.000000   0.000000  -0.000000  -0.000000
    32  H    0.000000  -0.000000   0.000000  -0.000000   0.000000  -0.000000
    33  H   -0.000000  -0.000000  -0.000000   0.000000   0.000000  -0.000000
    34  H    0.000000  -0.000000   0.000000   0.000000  -0.000000   0.000002
    35  H    0.000000  -0.000000  -0.000000   0.000001   0.000005  -0.000055
    36  H   -0.000001  -0.000087   0.000126   0.001964   0.010090  -0.008526
    37  H   -0.000100   0.003835   0.000359   0.005949  -0.038884  -0.002870
    38  H   -0.007354  -0.041679   0.005224   0.000490   0.003472  -0.000059
               7          8          9         10         11         12
     1  N   -0.000000  -0.000000  -0.000000  -0.000000  -0.000000   0.000000
     2  C    0.000055  -0.000001  -0.000000  -0.000000  -0.000000   0.000000
     3  C   -0.000063   0.000006  -0.000000   0.000000  -0.000000  -0.000000
     4  C   -0.003356  -0.000059   0.000005   0.000000   0.000000  -0.000000
     5  C   -0.027952   0.001189  -0.000097   0.000000  -0.000000   0.000000
     6  O    0.250380  -0.049193   0.002649  -0.000011   0.000000   0.000000
     7  C    4.578122   0.515254  -0.004020   0.002648  -0.000097   0.000005
     8  C    0.515254   5.064548   0.515336  -0.049202   0.001191  -0.000064
     9  C   -0.004020   0.515336   4.578075   0.250431  -0.028003  -0.003332
    10  O    0.002648  -0.049202   0.250431   8.359326   0.186298  -0.048005
    11  C   -0.000097   0.001191  -0.028003   0.186298   4.639124   0.532410
    12  C    0.000005  -0.000064  -0.003332  -0.048005   0.532410   4.921511
    13  C   -0.000000   0.000006  -0.000062   0.004577  -0.027907   0.493115
    14  C   -0.000000  -0.000001   0.000055   0.000127  -0.031562  -0.025478
    15  N   -0.000000  -0.000000  -0.000000   0.000000   0.000453   0.004881
    16  C   -0.000000   0.000005  -0.000064   0.004585  -0.027794  -0.040346
    17  C    0.000005  -0.000053  -0.003341  -0.048002   0.531432  -0.062333
    18  C   -0.034969  -0.075554   0.481776  -0.058054   0.006282   0.000375
    19  C   -0.005084  -0.034419  -0.005122   0.004018   0.000206  -0.000032
    20  C    0.481798  -0.075564  -0.034953   0.000255   0.000023  -0.000001
    21  C   -0.003293  -0.000059   0.000005   0.000000   0.000000  -0.000000
    22  C   -0.000064   0.000006  -0.000000   0.000000  -0.000000  -0.000000
    23  H    0.000000  -0.000000   0.000000  -0.000000  -0.000000   0.000000
    24  H    0.000000  -0.000000   0.000000  -0.000000  -0.000000   0.000000
    25  H   -0.000004  -0.000000   0.000000  -0.000000   0.000000   0.000000
    26  H    0.001115  -0.000135   0.000000  -0.000000   0.000000   0.000000
    27  H   -0.037646   0.349330  -0.037648  -0.000712   0.000210  -0.000005
    28  H    0.000000  -0.000133   0.001081  -0.002830  -0.038893   0.363186
    29  H    0.000000  -0.000000  -0.000004  -0.000059   0.003473  -0.030594
    30  H    0.000000  -0.000000   0.000000  -0.000000  -0.000002   0.000018
    31  H    0.000000  -0.000000   0.000000  -0.000000  -0.000002  -0.000164
    32  H    0.000000  -0.000000  -0.000004  -0.000059   0.003473   0.000493
    33  H    0.000000  -0.000137   0.001148  -0.002934  -0.038874   0.005944
    34  H    0.000405   0.004937  -0.042901  -0.008530   0.010075   0.001936
    35  H    0.003005   0.000976   0.003005  -0.000055   0.000005   0.000001
    36  H   -0.042928   0.004941   0.000405   0.000002  -0.000000   0.000000
    37  H    0.001110  -0.000135   0.000000  -0.000000   0.000000   0.000000
    38  H   -0.000004  -0.000000   0.000000  -0.000000   0.000000  -0.000000
              13         14         15         16         17         18
     1  N    0.000000   0.000000   0.000000   0.000000   0.000000  -0.000000
     2  C    0.000000  -0.000000   0.000000   0.000000   0.000000   0.000000
     3  C   -0.000000   0.000000   0.000000  -0.000000  -0.000000   0.000000
     4  C   -0.000000   0.000000   0.000000  -0.000000  -0.000000  -0.000001
     5  C   -0.000000  -0.000000  -0.000000  -0.000000   0.000000   0.000024
     6  O    0.000000  -0.000000  -0.000000   0.000000   0.000000   0.000255
     7  C   -0.000000  -0.000000  -0.000000  -0.000000   0.000005  -0.034969
     8  C    0.000006  -0.000001  -0.000000   0.000005  -0.000053  -0.075554
     9  C   -0.000062   0.000055  -0.000000  -0.000064  -0.003341   0.481776
    10  O    0.004577   0.000127   0.000000   0.004585  -0.048002  -0.058054
    11  C   -0.027907  -0.031562   0.000453  -0.027794   0.531432   0.006282
    12  C    0.493115  -0.025478   0.004881  -0.040346  -0.062333   0.000375
    13  C    4.966169   0.532955  -0.070668  -0.045600  -0.040280  -0.000270
    14  C    0.532955   4.565054   0.307435   0.532846  -0.025501   0.000015
    15  N   -0.070668   0.307435   6.821440  -0.070715   0.004878   0.000000
    16  C   -0.045600   0.532846  -0.070715   4.966034   0.493402  -0.000281
    17  C   -0.040280  -0.025501   0.004878   0.493402   4.921617   0.000314
    18  C   -0.000270   0.000015   0.000000  -0.000281   0.000314   5.016020
    19  C    0.000001  -0.000000  -0.000000   0.000001  -0.000034   0.503002
    20  C    0.000000   0.000000  -0.000000   0.000000  -0.000001  -0.048713
    21  C   -0.000000   0.000000   0.000000  -0.000000  -0.000000  -0.000001
    22  C   -0.000000   0.000000   0.000000  -0.000000  -0.000000   0.000000
    23  H    0.000000   0.000000   0.000000   0.000000   0.000000   0.000000
    24  H    0.000000   0.000000   0.000000   0.000000   0.000000   0.000000
    25  H    0.000000  -0.000000   0.000000   0.000000  -0.000000  -0.000000
    26  H    0.000000  -0.000000  -0.000000  -0.000000   0.000000   0.000001
    27  H   -0.000000   0.000000  -0.000000  -0.000000  -0.000005   0.007182
    28  H   -0.035054   0.003835  -0.000100   0.000357   0.005961   0.000322
    29  H    0.363275  -0.041602  -0.007374   0.005228   0.000488   0.000001
    30  H   -0.008868  -0.025969   0.347211   0.005091  -0.000164  -0.000000
    31  H    0.005082  -0.025919   0.347171  -0.008906   0.000018  -0.000000
    32  H    0.005228  -0.041719  -0.007369   0.363248  -0.030529   0.000001
    33  H    0.000360   0.003835  -0.000100  -0.035067   0.363276   0.000350
    34  H    0.000126  -0.000087  -0.000001   0.000123   0.001952   0.369336
    35  H   -0.000000  -0.000000   0.000000  -0.000000   0.000001  -0.035283
    36  H    0.000000  -0.000000   0.000000   0.000000   0.000000   0.004505
    37  H   -0.000000  -0.000000  -0.000000   0.000000   0.000000   0.000001
    38  H    0.000000  -0.000000   0.000000   0.000000   0.000000  -0.000000
              19         20         21         22         23         24
     1  N   -0.000000   0.000000   0.004870  -0.070670   0.347143   0.347150
     2  C   -0.000000   0.000015  -0.025519   0.532879  -0.025967  -0.025947
     3  C    0.000001  -0.000276  -0.040276  -0.045615   0.005089  -0.008903
     4  C   -0.000031   0.000330  -0.062333  -0.040296  -0.000165   0.000018
     5  C    0.000205   0.006273   0.531978  -0.027876  -0.000001  -0.000001
     6  O    0.004017  -0.058032  -0.048046   0.004578  -0.000000  -0.000000
     7  C   -0.005084   0.481798  -0.003293  -0.000064   0.000000   0.000000
     8  C   -0.034419  -0.075564  -0.000059   0.000006  -0.000000  -0.000000
     9  C   -0.005122  -0.034953   0.000005  -0.000000   0.000000   0.000000
    10  O    0.004018   0.000255   0.000000   0.000000  -0.000000  -0.000000
    11  C    0.000206   0.000023   0.000000  -0.000000  -0.000000  -0.000000
    12  C   -0.000032  -0.000001  -0.000000  -0.000000   0.000000   0.000000
    13  C    0.000001   0.000000  -0.000000  -0.000000   0.000000   0.000000
    14  C   -0.000000   0.000000   0.000000   0.000000   0.000000   0.000000
    15  N   -0.000000  -0.000000   0.000000   0.000000   0.000000   0.000000
    16  C    0.000001   0.000000  -0.000000  -0.000000   0.000000   0.000000
    17  C   -0.000034  -0.000001  -0.000000  -0.000000   0.000000   0.000000
    18  C    0.503002  -0.048713  -0.000001   0.000000   0.000000   0.000000
    19  C    4.860569   0.502918  -0.000034   0.000001  -0.000000  -0.000000
    20  C    0.502918   5.016080   0.000371  -0.000272  -0.000000  -0.000000
    21  C   -0.000034   0.000371   4.921470   0.493342   0.000017  -0.000165
    22  C    0.000001  -0.000272   0.493342   4.966035  -0.008897   0.005087
    23  H   -0.000000  -0.000000   0.000017  -0.008897   0.428313  -0.029455
    24  H   -0.000000  -0.000000  -0.000165   0.005087  -0.029455   0.428227
    25  H   -0.000000   0.000001   0.000490   0.005226  -0.000091   0.004340
    26  H   -0.000025   0.000335   0.005948   0.000359   0.000003  -0.000007
    27  H   -0.000460   0.007182  -0.000005  -0.000000  -0.000000  -0.000000
    28  H   -0.000024   0.000001   0.000000  -0.000000  -0.000000  -0.000000
    29  H   -0.000000  -0.000000  -0.000000   0.000000   0.000000   0.000000
    30  H   -0.000000   0.000000   0.000000   0.000000   0.000000   0.000000
    31  H   -0.000000   0.000000   0.000000   0.000000   0.000000   0.000000
    32  H   -0.000000  -0.000000   0.000000   0.000000   0.000000   0.000000
    33  H   -0.000026   0.000001   0.000000   0.000000  -0.000000  -0.000000
    34  H   -0.037856   0.004503   0.000000   0.000000   0.000000  -0.000000
    35  H    0.368988  -0.035286   0.000001  -0.000000  -0.000000  -0.000000
    36  H   -0.037861   0.369332   0.001929   0.000119  -0.000000  -0.000000
    37  H   -0.000025   0.000334   0.363233  -0.035050  -0.000007   0.000003
    38  H   -0.000000   0.000001  -0.030539   0.363256   0.004333  -0.000092
              25         26         27         28         29         30
     1  N   -0.007374  -0.000100  -0.000000  -0.000000   0.000000   0.000000
     2  C   -0.041648   0.003836   0.000000  -0.000000  -0.000000   0.000000
     3  C    0.363285  -0.035065  -0.000000   0.000000   0.000000   0.000000
     4  C   -0.030575   0.363234  -0.000005   0.000000   0.000000   0.000000
     5  C    0.003473  -0.038866   0.000209   0.000000   0.000000  -0.000000
     6  O   -0.000059  -0.002886  -0.000709  -0.000000  -0.000000  -0.000000
     7  C   -0.000004   0.001115  -0.037646   0.000000   0.000000   0.000000
     8  C   -0.000000  -0.000135   0.349330  -0.000133  -0.000000  -0.000000
     9  C    0.000000   0.000000  -0.037648   0.001081  -0.000004   0.000000
    10  O   -0.000000  -0.000000  -0.000712  -0.002830  -0.000059  -0.000000
    11  C    0.000000   0.000000   0.000210  -0.038893   0.003473  -0.000002
    12  C    0.000000   0.000000  -0.000005   0.363186  -0.030594   0.000018
    13  C    0.000000   0.000000  -0.000000  -0.035054   0.363275  -0.008868
    14  C   -0.000000  -0.000000   0.000000   0.003835  -0.041602  -0.025969
    15  N    0.000000  -0.000000  -0.000000  -0.000100  -0.007374   0.347211
    16  C    0.000000  -0.000000  -0.000000   0.000357   0.005228   0.005091
    17  C   -0.000000   0.000000  -0.000005   0.005961   0.000488  -0.000164
    18  C   -0.000000   0.000001   0.007182   0.000322   0.000001  -0.000000
    19  C   -0.000000  -0.000025  -0.000460  -0.000024  -0.000000  -0.000000
    20  C    0.000001   0.000335   0.007182   0.000001  -0.000000   0.000000
    21  C    0.000490   0.005948  -0.000005   0.000000  -0.000000   0.000000
    22  C    0.005226   0.000359  -0.000000  -0.000000   0.000000   0.000000
    23  H   -0.000091   0.000003  -0.000000  -0.000000   0.000000   0.000000
    24  H    0.004340  -0.000007  -0.000000  -0.000000   0.000000   0.000000
    25  H    0.606462  -0.006158  -0.000000  -0.000000  -0.000000   0.000000
    26  H   -0.006158   0.601089   0.000011  -0.000000  -0.000000  -0.000000
    27  H   -0.000000   0.000011   0.610373   0.000011  -0.000000  -0.000000
    28  H   -0.000000  -0.000000   0.000011   0.601188  -0.006156  -0.000007
    29  H   -0.000000  -0.000000  -0.000000  -0.006156   0.606453   0.004346
    30  H    0.000000  -0.000000  -0.000000  -0.000007   0.004346   0.428115
    31  H    0.000000  -0.000000  -0.000000   0.000003  -0.000092  -0.029436
    32  H    0.000000  -0.000000  -0.000000   0.000015  -0.000183  -0.000092
    33  H   -0.000000  -0.000000   0.000011  -0.000172   0.000015   0.000003
    34  H    0.000000   0.000000  -0.000121   0.000014   0.000001  -0.000000
    35  H   -0.000000   0.000000   0.000014   0.000000  -0.000000  -0.000000
    36  H    0.000001   0.000014  -0.000121   0.000000   0.000000   0.000000
    37  H    0.000015  -0.000172   0.000011  -0.000000  -0.000000  -0.000000
    38  H   -0.000183   0.000015  -0.000000  -0.000000   0.000000   0.000000
              31         32         33         34         35         36
     1  N    0.000000   0.000000  -0.000000   0.000000   0.000000  -0.000001
     2  C    0.000000  -0.000000  -0.000000  -0.000000  -0.000000  -0.000087
     3  C    0.000000   0.000000  -0.000000   0.000000  -0.000000   0.000126
     4  C    0.000000  -0.000000   0.000000   0.000000   0.000001   0.001964
     5  C   -0.000000   0.000000   0.000000  -0.000000   0.000005   0.010090
     6  O   -0.000000  -0.000000  -0.000000   0.000002  -0.000055  -0.008526
     7  C    0.000000   0.000000   0.000000   0.000405   0.003005  -0.042928
     8  C   -0.000000  -0.000000  -0.000137   0.004937   0.000976   0.004941
     9  C    0.000000  -0.000004   0.001148  -0.042901   0.003005   0.000405
    10  O   -0.000000  -0.000059  -0.002934  -0.008530  -0.000055   0.000002
    11  C   -0.000002   0.003473  -0.038874   0.010075   0.000005  -0.000000
    12  C   -0.000164   0.000493   0.005944   0.001936   0.000001   0.000000
    13  C    0.005082   0.005228   0.000360   0.000126  -0.000000   0.000000
    14  C   -0.025919  -0.041719   0.003835  -0.000087  -0.000000  -0.000000
    15  N    0.347171  -0.007369  -0.000100  -0.000001   0.000000   0.000000
    16  C   -0.008906   0.363248  -0.035067   0.000123  -0.000000   0.000000
    17  C    0.000018  -0.030529   0.363276   0.001952   0.000001   0.000000
    18  C   -0.000000   0.000001   0.000350   0.369336  -0.035283   0.004505
    19  C   -0.000000  -0.000000  -0.000026  -0.037856   0.368988  -0.037861
    20  C    0.000000  -0.000000   0.000001   0.004503  -0.035286   0.369332
    21  C    0.000000   0.000000   0.000000   0.000000   0.000001   0.001929
    22  C    0.000000   0.000000   0.000000   0.000000  -0.000000   0.000119
    23  H    0.000000   0.000000  -0.000000   0.000000  -0.000000  -0.000000
    24  H    0.000000   0.000000  -0.000000  -0.000000  -0.000000  -0.000000
    25  H    0.000000   0.000000  -0.000000   0.000000  -0.000000   0.000001
    26  H   -0.000000  -0.000000  -0.000000   0.000000   0.000000   0.000014
    27  H   -0.000000  -0.000000   0.000011  -0.000121   0.000014  -0.000121
    28  H    0.000003   0.000015  -0.000172   0.000014   0.000000   0.000000
    29  H   -0.000092  -0.000183   0.000015   0.000001  -0.000000   0.000000
    30  H   -0.029436  -0.000092   0.000003  -0.000000  -0.000000   0.000000
    31  H    0.428159   0.004334  -0.000007  -0.000000  -0.000000  -0.000000
    32  H    0.004334   0.606580  -0.006155   0.000001  -0.000000   0.000000
    33  H   -0.000007  -0.006155   0.601003   0.000013   0.000000   0.000000
    34  H   -0.000000   0.000001   0.000013   0.595802  -0.005389  -0.000135
    35  H   -0.000000  -0.000000   0.000000  -0.005389   0.598138  -0.005389
    36  H   -0.000000   0.000000   0.000000  -0.000135  -0.005389   0.595861
    37  H   -0.000000  -0.000000  -0.000000   0.000000   0.000000   0.000014
    38  H    0.000000  -0.000000  -0.000000   0.000000  -0.000000   0.000001
              37         38
     1  N   -0.000100  -0.007354
     2  C    0.003835  -0.041679
     3  C    0.000359   0.005224
     4  C    0.005949   0.000490
     5  C   -0.038884   0.003472
     6  O   -0.002870  -0.000059
     7  C    0.001110  -0.000004
     8  C   -0.000135  -0.000000
     9  C    0.000000   0.000000
    10  O   -0.000000  -0.000000
    11  C    0.000000   0.000000
    12  C    0.000000  -0.000000
    13  C   -0.000000   0.000000
    14  C   -0.000000  -0.000000
    15  N   -0.000000   0.000000
    16  C    0.000000   0.000000
    17  C    0.000000   0.000000
    18  C    0.000001  -0.000000
    19  C   -0.000025  -0.000000
    20  C    0.000334   0.000001
    21  C    0.363233  -0.030539
    22  C   -0.035050   0.363256
    23  H   -0.000007   0.004333
    24  H    0.000003  -0.000092
    25  H    0.000015  -0.000183
    26  H   -0.000172   0.000015
    27  H    0.000011  -0.000000
    28  H   -0.000000  -0.000000
    29  H   -0.000000   0.000000
    30  H   -0.000000   0.000000
    31  H   -0.000000   0.000000
    32  H   -0.000000  -0.000000
    33  H   -0.000000  -0.000000
    34  H    0.000000   0.000000
    35  H    0.000000  -0.000000
    36  H    0.000014   0.000001
    37  H    0.601066  -0.006158
    38  H   -0.006158   0.606507
 Mulliken charges:
               1
     1  N   -0.677031
     2  C    0.271320
     3  C   -0.142006
     4  C   -0.113389
     5  C    0.278679
     6  O   -0.593876
     7  C    0.325578
     8  C   -0.173016
     9  C    0.325581
    10  O   -0.593815
    11  C    0.278477
    12  C   -0.113521
    13  C   -0.142183
    14  C    0.271679
    15  N   -0.677142
    16  C   -0.142146
    17  C   -0.113101
    18  C   -0.136632
    19  C   -0.122895
    20  C   -0.136653
    21  C   -0.113384
    22  C   -0.142145
    23  H    0.279685
    24  H    0.279746
    25  H    0.102799
    26  H    0.107454
    27  H    0.102896
    28  H    0.107396
    29  H    0.102785
    30  H    0.279753
    31  H    0.279759
    32  H    0.102737
    33  H    0.107513
    34  H    0.105794
    35  H    0.107316
    36  H    0.105746
    37  H    0.107472
    38  H    0.102770
 Sum of Mulliken charges =  -0.00000
 Mulliken charges with hydrogens summed into heavy atoms:
               1
     1  N   -0.117600
     2  C    0.271320
     3  C   -0.039207
     4  C   -0.005935
     5  C    0.278679
     6  O   -0.593876
     7  C    0.325578
     8  C   -0.070120
     9  C    0.325581
    10  O   -0.593815
    11  C    0.278477
    12  C   -0.006126
    13  C   -0.039398
    14  C    0.271679
    15  N   -0.117629
    16  C   -0.039409
    17  C   -0.005588
    18  C   -0.030838
    19  C   -0.015580
    20  C   -0.030907
    21  C   -0.005912
    22  C   -0.039375
 APT charges:
               1
     1  N   -1.928310
     2  C    0.485659
     3  C   -0.343971
     4  C   -0.566666
     5  C   -0.703679
     6  O   -0.352295
     7  C   -0.033529
     8  C   -0.509845
     9  C   -0.033318
    10  O   -0.351968
    11  C   -0.703562
    12  C   -0.564251
    13  C   -0.345389
    14  C    0.484566
    15  N   -1.929409
    16  C   -0.342447
    17  C   -0.569310
    18  C   -0.513475
    19  C   -0.526774
    20  C   -0.513538
    21  C   -0.567680
    22  C   -0.343053
    23  H    1.179959
    24  H    1.182419
    25  H    0.830410
    26  H    0.171849
    27  H    0.453972
    28  H    0.174677
    29  H    0.834204
    30  H    1.187021
    31  H    1.177271
    32  H    0.824150
    33  H    0.165937
    34  H    0.518188
    35  H    0.557446
    36  H    0.517921
    37  H    0.169177
    38  H    0.827643
 Sum of APT charges =  -0.00000
 APT charges with hydrogens summed into heavy atoms:
               1
     1  N    0.434068
     2  C    0.485659
     3  C    0.486439
     4  C   -0.394817
     5  C   -0.703679
     6  O   -0.352295
     7  C   -0.033529
     8  C   -0.055874
     9  C   -0.033318
    10  O   -0.351968
    11  C   -0.703562
    12  C   -0.389574
    13  C    0.488816
    14  C    0.484566
    15  N    0.434883
    16  C    0.481703
    17  C   -0.403373
    18  C    0.004713
    19  C    0.030673
    20  C    0.004383
    21  C   -0.398503
    22  C    0.484591
 Electronic spatial extent (au):  <R**2>=          12264.7462
 Charge=             -0.0000 electrons
 Dipole moment (field-independent basis, Debye):
    X=             -0.0067    Y=             -0.3479    Z=              1.3199  Tot=              1.3650
 Quadrupole moment (field-independent basis, Debye-Ang):
   XX=            -40.4566   YY=           -115.3400   ZZ=           -133.6069
   XY=              0.0871   XZ=             -0.0583   YZ=              4.6224
 Traceless Quadrupole moment (field-independent basis, Debye-Ang):
   XX=             56.0113   YY=            -18.8722   ZZ=            -37.1391
   XY=              0.0871   XZ=             -0.0583   YZ=              4.6224
 Octapole moment (field-independent basis, Debye-Ang**2):
  XXX=             -0.5119  YYY=              1.0985  ZZZ=             -4.1828  XYY=             -0.1556
  XXY=             -3.1143  XXZ=              8.4580  XZZ=              0.0697  YZZ=              0.0879
  YYZ=             -2.0594  XYZ=              0.3265
 Hexadecapole moment (field-independent basis, Debye-Ang**3):
 XXXX=          -7920.6635 YYYY=           -590.7783 ZZZZ=           -632.2770 XXXY=              4.3141
 XXXZ=             -4.5499 YYYX=              0.4292 YYYZ=             17.6591 ZZZX=             -0.0515
 ZZZY=             -4.9823 XXYY=          -2207.7487 XXZZ=          -2978.5500 YYZZ=           -215.6741
 XXYZ=            194.5827 YYXZ=             -0.0716 ZZXY=              0.1641
 N-N= 1.560095974507D+03 E-N=-5.342613433653D+03  KE= 9.464992961798D+02
  Exact polarizability:   0.000   0.000   0.000   0.000   0.000   0.000
 Approx polarizability: 435.085  -0.276 286.667  -0.134  11.290 239.885
 D2PCM: PCM CHGder 2nd derivatives, FixD1E=F FixD2E=F DoIter=F DoCFld=F I1PDM=0
 Calling FoFJK, ICntrl=    100147 FMM=F ISym2X=0 I1Cent= 0 IOpClX= 0 NMat=1 NMatS=1 NMatT=0.
 ***** Axes restored to original set *****
 -------------------------------------------------------------------
 Center     Atomic                   Forces (Hartrees/Bohr)
 Number     Number              X              Y              Z
 -------------------------------------------------------------------
      1        7           0.000002776    0.000027447   -0.000049802
      2        6          -0.000044888    0.000038172    0.000053916
      3        6           0.000085057   -0.000085665   -0.000021472
      4        6          -0.000018236   -0.000046897    0.000050581
      5        6          -0.000184694    0.000033623   -0.000030190
      6        8           0.000198352    0.000018291   -0.000067316
      7        6          -0.000180801    0.000010919   -0.000000117
[...]
   171    C   12  px     Ryd( 3p)     0.00478
   172    C   12  py     Val( 2p)     1.16951
   173    C   12  py     Ryd( 3p)     0.00466
   174    C   12  pz     Val( 2p)     1.06194
   175    C   12  pz     Ryd( 3p)     0.00358
   176    C   12  dxy    Ryd( 3d)     0.00065
   177    C   12  dxz    Ryd( 3d)     0.00049
   178    C   12  dyz    Ryd( 3d)     0.00046
   179    C   12  dx2y2  Ryd( 3d)     0.00058
   180    C   12  dz2    Ryd( 3d)     0.00046

   181    C   13  S      Cor( 1S)     1.99906
   182    C   13  S      Val( 2S)     0.95512
   183    C   13  S      Ryd( 3S)     0.00062
   184    C   13  S      Ryd( 4S)     0.00004
   185    C   13  px     Val( 2p)     1.09332
   186    C   13  px     Ryd( 3p)     0.00435
   187    C   13  py     Val( 2p)     1.15514
   188    C   13  py     Ryd( 3p)     0.00443
   189    C   13  pz     Val( 2p)     1.08202
   190    C   13  pz     Ryd( 3p)     0.00368
   191    C   13  dxy    Ryd( 3d)     0.00067
   192    C   13  dxz    Ryd( 3d)     0.00044
   193    C   13  dyz    Ryd( 3d)     0.00040
   194    C   13  dx2y2  Ryd( 3d)     0.00056
   195    C   13  dz2    Ryd( 3d)     0.00045

   196    C   14  S      Cor( 1S)     1.99898
   197    C   14  S      Val( 2S)     0.85179
   198    C   14  S      Ryd( 3S)     0.00116
   199    C   14  S      Ryd( 4S)     0.00009
   200    C   14  px     Val( 2p)     0.91660
   201    C   14  px     Ryd( 3p)     0.00458
   202    C   14  py     Val( 2p)     1.09802
   203    C   14  py     Ryd( 3p)     0.00443
   204    C   14  pz     Val( 2p)     0.94225
   205    C   14  pz     Ryd( 3p)     0.00224
   206    C   14  dxy    Ryd( 3d)     0.00091
   207    C   14  dxz    Ryd( 3d)     0.00121
   208    C   14  dyz    Ryd( 3d)     0.00092
   209    C   14  dx2y2  Ryd( 3d)     0.00109
   210    C   14  dz2    Ryd( 3d)     0.00077

   211    N   15  S      Cor( 1S)     1.99949
   212    N   15  S      Val( 2S)     1.36861
   213    N   15  S      Ryd( 3S)     0.00011
   214    N   15  S      Ryd( 4S)     0.00001
   215    N   15  px     Val( 2p)     1.32231
   216    N   15  px     Ryd( 3p)     0.00205
   217    N   15  py     Val( 2p)     1.42670
   218    N   15  py     Ryd( 3p)     0.00195
   219    N   15  pz     Val( 2p)     1.63022
   220    N   15  pz     Ryd( 3p)     0.00343
   221    N   15  dxy    Ryd( 3d)     0.00064
   222    N   15  dxz    Ryd( 3d)     0.00076
   223    N   15  dyz    Ryd( 3d)     0.00056
   224    N   15  dx2y2  Ryd( 3d)     0.00022
   225    N   15  dz2    Ryd( 3d)     0.00107

   226    C   16  S      Cor( 1S)     1.99906
   227    C   16  S      Val( 2S)     0.95511
   228    C   16  S      Ryd( 3S)     0.00062
   229    C   16  S      Ryd( 4S)     0.00004
   230    C   16  px     Val( 2p)     1.09318
   231    C   16  px     Ryd( 3p)     0.00435
   232    C   16  py     Val( 2p)     1.15321
   233    C   16  py     Ryd( 3p)     0.00444
   234    C   16  pz     Val( 2p)     1.08412
   235    C   16  pz     Ryd( 3p)     0.00368
   236    C   16  dxy    Ryd( 3d)     0.00066
   237    C   16  dxz    Ryd( 3d)     0.00045
   238    C   16  dyz    Ryd( 3d)     0.00040
   239    C   16  dx2y2  Ryd( 3d)     0.00056
   240    C   16  dz2    Ryd( 3d)     0.00045

   241    C   17  S      Cor( 1S)     1.99900
   242    C   17  S      Val( 2S)     0.96416
   243    C   17  S      Ryd( 3S)     0.00079
   244    C   17  S      Ryd( 4S)     0.00005
   245    C   17  px     Val( 2p)     1.09419
   246    C   17  px     Ryd( 3p)     0.00478
   247    C   17  py     Val( 2p)     1.17169
   248    C   17  py     Ryd( 3p)     0.00465
   249    C   17  pz     Val( 2p)     1.05956
   250    C   17  pz     Ryd( 3p)     0.00359
   251    C   17  dxy    Ryd( 3d)     0.00065
   252    C   17  dxz    Ryd( 3d)     0.00049
   253    C   17  dyz    Ryd( 3d)     0.00046
   254    C   17  dx2y2  Ryd( 3d)     0.00057
   255    C   17  dz2    Ryd( 3d)     0.00047

   256    C   18  S      Cor( 1S)     1.99901
   257    C   18  S      Val( 2S)     0.95816
   258    C   18  S      Ryd( 3S)     0.00060
   259    C   18  S      Ryd( 4S)     0.00004
   260    C   18  px     Val( 2p)     1.18201
   261    C   18  px     Ryd( 3p)     0.00328
   262    C   18  py     Val( 2p)     1.10393
   263    C   18  py     Ryd( 3p)     0.00178
   264    C   18  pz     Val( 2p)     1.09545
   265    C   18  pz     Ryd( 3p)     0.00401
   266    C   18  dxy    Ryd( 3d)     0.00042
   267    C   18  dxz    Ryd( 3d)     0.00051
   268    C   18  dyz    Ryd( 3d)     0.00053
   269    C   18  dx2y2  Ryd( 3d)     0.00047
   270    C   18  dz2    Ryd( 3d)     0.00062

   271    C   19  S      Cor( 1S)     1.99914
   272    C   19  S      Val( 2S)     0.95144
   273    C   19  S      Ryd( 3S)     0.00068
   274    C   19  S      Ryd( 4S)     0.00004
   275    C   19  px     Val( 2p)     1.05358
   276    C   19  px     Ryd( 3p)     0.00504
   277    C   19  py     Val( 2p)     1.04119
   278    C   19  py     Ryd( 3p)     0.00258
   279    C   19  pz     Val( 2p)     1.19733
   280    C   19  pz     Ryd( 3p)     0.00511
   281    C   19  dxy    Ryd( 3d)     0.00064
   282    C   19  dxz    Ryd( 3d)     0.00059
   283    C   19  dyz    Ryd( 3d)     0.00029
   284    C   19  dx2y2  Ryd( 3d)     0.00039
   285    C   19  dz2    Ryd( 3d)     0.00070

   286    C   20  S      Cor( 1S)     1.99901
   287    C   20  S      Val( 2S)     0.95816
   288    C   20  S      Ryd( 3S)     0.00060
   289    C   20  S      Ryd( 4S)     0.00004
   290    C   20  px     Val( 2p)     1.18201
   291    C   20  px     Ryd( 3p)     0.00328
   292    C   20  py     Val( 2p)     1.10393
   293    C   20  py     Ryd( 3p)     0.00178
   294    C   20  pz     Val( 2p)     1.09544
   295    C   20  pz     Ryd( 3p)     0.00401
   296    C   20  dxy    Ryd( 3d)     0.00042
   297    C   20  dxz    Ryd( 3d)     0.00051
   298    C   20  dyz    Ryd( 3d)     0.00053
   299    C   20  dx2y2  Ryd( 3d)     0.00047
   300    C   20  dz2    Ryd( 3d)     0.00062

   301    C   21  S      Cor( 1S)     1.99900
   302    C   21  S      Val( 2S)     0.96415
   303    C   21  S      Ryd( 3S)     0.00079
   304    C   21  S      Ryd( 4S)     0.00005
   305    C   21  px     Val( 2p)     1.09415
   306    C   21  px     Ryd( 3p)     0.00479
   307    C   21  py     Val( 2p)     1.17169
   308    C   21  py     Ryd( 3p)     0.00465
   309    C   21  pz     Val( 2p)     1.05990
   310    C   21  pz     Ryd( 3p)     0.00361
   311    C   21  dxy    Ryd( 3d)     0.00065
   312    C   21  dxz    Ryd( 3d)     0.00049
   313    C   21  dyz    Ryd( 3d)     0.00046
   314    C   21  dx2y2  Ryd( 3d)     0.00057
   315    C   21  dz2    Ryd( 3d)     0.00047

   316    C   22  S      Cor( 1S)     1.99906
   317    C   22  S      Val( 2S)     0.95512
   318    C   22  S      Ryd( 3S)     0.00062
   319    C   22  S      Ryd( 4S)     0.00004
   320    C   22  px     Val( 2p)     1.09324
   321    C   22  px     Ryd( 3p)     0.00435
   322    C   22  py     Val( 2p)     1.15314
   323    C   22  py     Ryd( 3p)     0.00443
   324    C   22  pz     Val( 2p)     1.08418
   325    C   22  pz     Ryd( 3p)     0.00370
   326    C   22  dxy    Ryd( 3d)     0.00066
   327    C   22  dxz    Ryd( 3d)     0.00045
   328    C   22  dyz    Ryd( 3d)     0.00040
   329    C   22  dx2y2  Ryd( 3d)     0.00056
   330    C   22  dz2    Ryd( 3d)     0.00045

   331    H   23  S      Val( 1S)     0.57077
   332    H   23  S      Ryd( 2S)     0.00132
   333    H   23  px     Ryd( 2p)     0.00033
   334    H   23  py     Ryd( 2p)     0.00046
   335    H   23  pz     Ryd( 2p)     0.00044

   336    H   24  S      Val( 1S)     0.57077
   337    H   24  S      Ryd( 2S)     0.00132
   338    H   24  px     Ryd( 2p)     0.00033
   339    H   24  py     Ryd( 2p)     0.00046
   340    H   24  pz     Ryd( 2p)     0.00044

   341    H   25  S      Val( 1S)     0.75179
   342    H   25  S      Ryd( 2S)     0.00099
   343    H   25  px     Ryd( 2p)     0.00014
   344    H   25  py     Ryd( 2p)     0.00033
   345    H   25  pz     Ryd( 2p)     0.00015

   346    H   26  S      Val( 1S)     0.74336
   347    H   26  S      Ryd( 2S)     0.00099
   348    H   26  px     Ryd( 2p)     0.00015
   349    H   26  py     Ryd( 2p)     0.00030
   350    H   26  pz     Ryd( 2p)     0.00015

   351    H   27  S      Val( 1S)     0.74483
   352    H   27  S      Ryd( 2S)     0.00156
   353    H   27  px     Ryd( 2p)     0.00006
   354    H   27  py     Ryd( 2p)     0.00014
   355    H   27  pz     Ryd( 2p)     0.00039

   356    H   28  S      Val( 1S)     0.74336
   357    H   28  S      Ryd( 2S)     0.00099
   358    H   28  px     Ryd( 2p)     0.00015
   359    H   28  py     Ryd( 2p)     0.00030
   360    H   28  pz     Ryd( 2p)     0.00015

   361    H   29  S      Val( 1S)     0.75179
   362    H   29  S      Ryd( 2S)     0.00099
   363    H   29  px     Ryd( 2p)     0.00014
   364    H   29  py     Ryd( 2p)     0.00033
   365    H   29  pz     Ryd( 2p)     0.00015

   366    H   30  S      Val( 1S)     0.57086
   367    H   30  S      Ryd( 2S)     0.00131
   368    H   30  px     Ryd( 2p)     0.00033
   369    H   30  py     Ryd( 2p)     0.00046
   370    H   30  pz     Ryd( 2p)     0.00044

   371    H   31  S      Val( 1S)     0.57087
   372    H   31  S      Ryd( 2S)     0.00132
   373    H   31  px     Ryd( 2p)     0.00033
   374    H   31  py     Ryd( 2p)     0.00046
   375    H   31  pz     Ryd( 2p)     0.00044

   376    H   32  S      Val( 1S)     0.75181
   377    H   32  S      Ryd( 2S)     0.00099
   378    H   32  px     Ryd( 2p)     0.00014
   379    H   32  py     Ryd( 2p)     0.00032
   380    H   32  pz     Ryd( 2p)     0.00016

   381    H   33  S      Val( 1S)     0.74336
   382    H   33  S      Ryd( 2S)     0.00099
   383    H   33  px     Ryd( 2p)     0.00015
   384    H   33  py     Ryd( 2p)     0.00031
   385    H   33  pz     Ryd( 2p)     0.00014

   386    H   34  S      Val( 1S)     0.74726
   387    H   34  S      Ryd( 2S)     0.00082
   388    H   34  px     Ryd( 2p)     0.00032
   389    H   34  py     Ryd( 2p)     0.00015
   390    H   34  pz     Ryd( 2p)     0.00015

   391    H   35  S      Val( 1S)     0.75622
   392    H   35  S      Ryd( 2S)     0.00074
   393    H   35  px     Ryd( 2p)     0.00007
   394    H   35  py     Ryd( 2p)     0.00014
   395    H   35  pz     Ryd( 2p)     0.00041

   396    H   36  S      Val( 1S)     0.74725
   397    H   36  S      Ryd( 2S)     0.00082
   398    H   36  px     Ryd( 2p)     0.00032
   399    H   36  py     Ryd( 2p)     0.00015
   400    H   36  pz     Ryd( 2p)     0.00015

   401    H   37  S      Val( 1S)     0.74336
   402    H   37  S      Ryd( 2S)     0.00099
   403    H   37  px     Ryd( 2p)     0.00015
   404    H   37  py     Ryd( 2p)     0.00031
   405    H   37  pz     Ryd( 2p)     0.00014

   406    H   38  S      Val( 1S)     0.75180
   407    H   38  S      Ryd( 2S)     0.00099
   408    H   38  px     Ryd( 2p)     0.00014
   409    H   38  py     Ryd( 2p)     0.00032
   410    H   38  pz     Ryd( 2p)     0.00016

 WARNING:  1 low occupancy (<1.9990e) core orbital  found on  C    2
           1 low occupancy (<1.9990e) core orbital  found on  C    4
           1 low occupancy (<1.9990e) core orbital  found on  C    5
           1 low occupancy (<1.9990e) core orbital  found on  C    7
           1 low occupancy (<1.9990e) core orbital  found on  C    8
           1 low occupancy (<1.9990e) core orbital  found on  C    9
           1 low occupancy (<1.9990e) core orbital  found on  C   11
           1 low occupancy (<1.9990e) core orbital  found on  C   12
           1 low occupancy (<1.9990e) core orbital  found on  C   14
           1 low occupancy (<1.9990e) core orbital  found on  C   17
           1 low occupancy (<1.9990e) core orbital  found on  C   21


 Summary of Natural Population Analysis:                  
                                                          
                                       Natural Population 
                Natural  -----------------------------------------------
    Atom  No    Charge         Core      Valence    Rydberg      Total
 -----------------------------------------------------------------------
      N    1   -0.75732      1.99949     5.74704    0.01079     7.75732
      C    2    0.17504      1.99898     3.80856    0.01742     5.82496
      C    3   -0.30038      1.99906     4.28567    0.01566     6.30038
      C    4   -0.30549      1.99900     4.28997    0.01652     6.30549
      C    5    0.31442      1.99870     3.66390    0.02299     5.68558
      O    6   -0.52281      1.99970     6.51170    0.01142     8.52281
      C    7    0.31704      1.99875     3.66208    0.02213     5.68296
      C    8   -0.37945      1.99895     4.36451    0.01598     6.37945
      C    9    0.31706      1.99875     3.66205    0.02213     5.68294
      O   10   -0.52288      1.99970     6.51176    0.01142     8.52288
      C   11    0.31389      1.99870     3.66443    0.02298     5.68611
      C   12   -0.30516      1.99900     4.28966    0.01650     6.30516
      C   13   -0.30029      1.99906     4.28559    0.01564     6.30029
      C   14    0.17494      1.99898     3.80867    0.01741     5.82506
      N   15   -0.75812      1.99949     5.74783    0.01080     7.75812
      C   16   -0.30032      1.99906     4.28562    0.01564     6.30032
      C   17   -0.30510      1.99900     4.28960    0.01650     6.30510
      C   18   -0.35084      1.99901     4.33955    0.01227     6.35084
      C   19   -0.25873      1.99914     4.24354    0.01606     6.25873
      C   20   -0.35083      1.99901     4.33954    0.01228     6.35083
      C   21   -0.30541      1.99900     4.28989    0.01652     6.30541
      C   22   -0.30040      1.99906     4.28568    0.01566     6.30040
      H   23    0.42667      0.00000     0.57077    0.00255     0.57333
      H   24    0.42668      0.00000     0.57077    0.00255     0.57332
      H   25    0.24660      0.00000     0.75179    0.00161     0.75340
      H   26    0.25505      0.00000     0.74336    0.00160     0.74495
      H   27    0.25302      0.00000     0.74483    0.00215     0.74698
      H   28    0.25505      0.00000     0.74336    0.00160     0.74495
      H   29    0.24660      0.00000     0.75179    0.00161     0.75340
      H   30    0.42659      0.00000     0.57086    0.00255     0.57341
      H   31    0.42658      0.00000     0.57087    0.00255     0.57342
      H   32    0.24658      0.00000     0.75181    0.00161     0.75342
      H   33    0.25505      0.00000     0.74336    0.00160     0.74495
      H   34    0.25130      0.00000     0.74726    0.00144     0.74870
      H   35    0.24241      0.00000     0.75622    0.00137     0.75759
      H   36    0.25131      0.00000     0.74725    0.00144     0.74869
      H   37    0.25504      0.00000     0.74336    0.00160     0.74496
      H   38    0.24659      0.00000     0.75180    0.00161     0.75341
 =======================================================================
   * Total *   -0.00000     43.97956   109.63629    0.38415   154.00000

                                 Natural Population      
 --------------------------------------------------------
   Core                      43.97956 ( 99.9535% of  44)
   Valence                  109.63629 ( 99.6694% of 110)
   Natural Minimal Basis    153.61585 ( 99.7506% of 154)
   Natural Rydberg Basis      0.38415 (  0.2494% of 154)
 --------------------------------------------------------

    Atom  No          Natural Electron Configuration
 ----------------------------------------------------------------------------
      N    1      [core]2S( 1.37)2p( 4.38)3p( 0.01)
      C    2      [core]2S( 0.85)2p( 2.96)3p( 0.01)
      C    3      [core]2S( 0.96)2p( 3.33)3p( 0.01)
      C    4      [core]2S( 0.96)2p( 3.33)3p( 0.01)
      C    5      [core]2S( 0.84)2p( 2.82)3p( 0.02)3d( 0.01)
      O    6      [core]2S( 1.57)2p( 4.94)3p( 0.01)3d( 0.01)
      C    7      [core]2S( 0.83)2p( 2.83)3p( 0.01)3d( 0.01)
      C    8      [core]2S( 0.96)2p( 3.41)3p( 0.01)
      C    9      [core]2S( 0.83)2p( 2.83)3p( 0.01)3d( 0.01)
      O   10      [core]2S( 1.57)2p( 4.94)3p( 0.01)3d( 0.01)
      C   11      [core]2S( 0.84)2p( 2.82)3p( 0.02)3d( 0.01)
      C   12      [core]2S( 0.96)2p( 3.33)3p( 0.01)
      C   13      [core]2S( 0.96)2p( 3.33)3p( 0.01)
      C   14      [core]2S( 0.85)2p( 2.96)3p( 0.01)
      N   15      [core]2S( 1.37)2p( 4.38)3p( 0.01)
      C   16      [core]2S( 0.96)2p( 3.33)3p( 0.01)
      C   17      [core]2S( 0.96)2p( 3.33)3p( 0.01)
      C   18      [core]2S( 0.96)2p( 3.38)3p( 0.01)
      C   19      [core]2S( 0.95)2p( 3.29)3p( 0.01)
      C   20      [core]2S( 0.96)2p( 3.38)3p( 0.01)
      C   21      [core]2S( 0.96)2p( 3.33)3p( 0.01)
      C   22      [core]2S( 0.96)2p( 3.33)3p( 0.01)
      H   23            1S( 0.57)
      H   24            1S( 0.57)
      H   25            1S( 0.75)
      H   26            1S( 0.74)
      H   27            1S( 0.74)
      H   28            1S( 0.74)
      H   29            1S( 0.75)
      H   30            1S( 0.57)
      H   31            1S( 0.57)
      H   32            1S( 0.75)
      H   33            1S( 0.74)
      H   34            1S( 0.75)
      H   35            1S( 0.76)
      H   36            1S( 0.75)
      H   37            1S( 0.74)
      H   38            1S( 0.75)


 NBO analysis skipped by request.
 1\1\GINC-DRG2-W004\SP\RB3LYP TD-FC\6-31G(d,p)\C18H16N2O2\QDUEZ\23-Jul-
 2024\0\\# TD(NStates=10, Root=1) B3LYP/6-31G** SCRF=(Solvent=water) vo
 lume pop=NPA density=current Geom=AllCheck Guess=Read\\WUPRYUDHUFLKFL-
 UHFFFAOYSA-N_conf_4\\0,1\N,0,-7.4696348242,0.2152091868,0.9769520068\C
 ,0,-6.2017197359,0.0908146537,0.4074777775\C,0,-5.5334926879,-1.148204
 9203,0.4002501836\C,0,-4.2424875035,-1.2593487314,-0.1110401954\C,0,-3
 .5975769166,-0.1341946951,-0.623406873\O,0,-2.341430779,-0.2639319566,
 -1.2181491006\C,0,-1.2066738475,-0.0972778546,-0.4547923602\C,0,0.0003
 298397,-0.2464386867,-1.1408344533\C,0,1.2069634792,-0.0963258579,-0.4
 543499729\O,0,2.3421305027,-0.2621610229,-1.217269334\C,0,3.5979511214
 ,-0.1308043095,-0.6221958267\C,0,4.2444891362,-1.255313577,-0.11047668
 41\C,0,5.535249518,-1.1425567295,0.4010882671\C,0,6.2015872112,0.09747
 42874,0.4092581439\N,0,7.4692358703,0.223425566,0.9789945069\C,0,5.532
 7191418,1.2196126866,-0.1153170105\C,0,4.2419677736,1.1059715318,-0.62
 66695954\C,0,1.2200170353,0.2018622884,0.9133964712\C,0,-0.0003972276,
 0.3455850222,1.5746163699\C,0,-1.2204585037,0.2009161242,0.912946219\C
 ,0,-4.2434826002,1.1015889755,-0.6288368733\C,0,-5.5345015387,1.213608
 4403,-0.1177936002\H,0,-8.0164558293,0.9921365836,0.6280419721\H,0,-8.
 0152415591,-0.6371887441,0.9865945017\H,0,-6.0330379916,-2.0281972244,
 0.7959510332\H,0,-3.7359820529,-2.2192967668,-0.1233523827\H,0,0.00061
 92448,-0.4773716637,-2.2001587225\H,0,3.739433304,-2.2160155008,-0.123
 5081663\H,0,6.0360452096,-2.0220588027,0.7962992938\H,0,8.0162168026,-
 0.6280980873,0.9879789874\H,0,8.0148611541,1.0015041708,0.6307704637\H
 ,0,6.0315220257,2.1848333226,-0.1232906367\H,0,3.7348745711,1.97253610
 38,-1.0391176667\H,0,2.1563629565,0.3179606325,1.44431006\H,0,-0.00068
 26045,0.5769930701,2.6358577381\H,0,-2.1570871861,0.3163086996,1.44351
 18289\H,0,-3.7376256213,1.9686369391,-1.04178721\H,0,-6.0347948884,2.1
 780528465,-0.1265121603\\Version=ES64L-G16RevA.03\State=1-A\HF=-955.52
 83174\RMSD=3.011e-09\Dipole=-0.0118383,0.1784231,0.811563\Quadrupole=6
 6.672203,-27.1757212,-39.4964819,0.0525851,-0.0115894,-2.840503\PG=C01
  [X(C18H16N2O2)]\\@


 THERE IS NO CURE FOR BIRTH AND DEATH SAVE TO ENJOY THE INTERVAL.

                               -- GEORGE SANTAYANA
 Job cpu time:       0 days  1 hours 21 minutes 39.5 seconds.
 Elapsed time:       0 days  0 hours 13 minutes 39.1 seconds.
 File lengths (MBytes):  RWF=   1375 Int=      0 D2E=      0 Chk=     84 Scr=      1
 Normal termination of Gaussian 16 at Tue Jul 23 00:16:24 2024.
