 Entering Gaussian System, Link 0=g16
 Initial command:
 /opt/sw/arch/manual/gaussian/G16_A03/g16/l1.exe "/scratch/1381592/Gau-154149.inp" -scrdir="/scratch/1381592/"
 Entering Link 1 = /opt/sw/arch/manual/gaussian/G16_A03/g16/l1.exe PID=    154150.
  
 Copyright (c) 1988,1990,1992,1993,1995,1998,2003,2009,2016,
            Gaussian, Inc.  All Rights Reserved.
  
 This is part of the Gaussian(R) 16 program.  It is based on
 the Gaussian(R) 09 system (copyright 2009, Gaussian, Inc.),
 the Gaussian(R) 03 system (copyright 2003, Gaussian, Inc.),
 the Gaussian(R) 98 system (copyright 1998, Gaussian, Inc.),
 the Gaussian(R) 94 system (copyright 1995, Gaussian, Inc.),
 the Gaussian 92(TM) system (copyright 1992, Gaussian, Inc.),
 the Gaussian 90(TM) system (copyright 1990, Gaussian, Inc.),
 the Gaussian 88(TM) system (copyright 1988, Gaussian, Inc.),
 the Gaussian 86(TM) system (copyright 1986, Carnegie Mellon
 University), and the Gaussian 82(TM) system (copyright 1983,
 Carnegie Mellon University). Gaussian is a federally registered
 trademark of Gaussian, Inc.
  
 This software contains proprietary and confidential information,
 including trade secrets, belonging to Gaussian, Inc.
  
 This software is provided under written license and may be
 used, copied, transmitted, or stored only in accord with that
 written license.
  
 The following legend is applicable only to US Government
 contracts under FAR:
  
                    RESTRICTED RIGHTS LEGEND
  
 Use, reproduction and disclosure by the US Government is
 subject to restrictions as set forth in subparagraphs (a)
 and (c) of the Commercial Computer Software - Restricted
 Rights clause in FAR 52.227-19.
  
 Gaussian, Inc.
 340 Quinnipiac St., Bldg. 40, Wallingford CT 06492
  
  
 ---------------------------------------------------------------
 Warning -- This program may not be used in any manner that
 competes with the business of Gaussian, Inc. or will provide
 assistance to any competitor of Gaussian, Inc.  The licensee
 of this program is prohibited from giving any competitor of
 Gaussian, Inc. access to this program.  By using this program,
 the user acknowledges that Gaussian, Inc. is engaged in the
 business of creating and licensing software in the field of
 computational chemistry and represents and warrants to the
 licensee that it is not a competitor of Gaussian, Inc. and that
 it will not use this program in any manner prohibited above.
 ---------------------------------------------------------------
  

 Cite this work as:
 Gaussian 16, Revision A.03,
 M. J. Frisch, G. W. Trucks, H. B. Schlegel, G. E. Scuseria, 
 M. A. Robb, J. R. Cheeseman, G. Scalmani, V. Barone, 
 G. A. Petersson, H. Nakatsuji, X. Li, M. Caricato, A. V. Marenich, 
 J. Bloino, B. G. Janesko, R. Gomperts, B. Mennucci, H. P. Hratchian, 
 J. V. Ortiz, A. F. Izmaylov, J. L. Sonnenberg, D. Williams-Young, 
 F. Ding, F. Lipparini, F. Egidi, J. Goings, B. Peng, A. Petrone, 
 T. Henderson, D. Ranasinghe, V. G. Zakrzewski, J. Gao, N. Rega, 
 G. Zheng, W. Liang, M. Hada, M. Ehara, K. Toyota, R. Fukuda, 
 J. Hasegawa, M. Ishida, T. Nakajima, Y. Honda, O. Kitao, H. Nakai, 
 T. Vreven, K. Throssell, J. A. Montgomery, Jr., J. E. Peralta, 
 F. Ogliaro, M. J. Bearpark, J. J. Heyd, E. N. Brothers, K. N. Kudin, 
 V. N. Staroverov, T. A. Keith, R. Kobayashi, J. Normand, 
 K. Raghavachari, A. P. Rendell, J. C. Burant, S. S. Iyengar, 
 J. Tomasi, M. Cossi, J. M. Millam, M. Klene, C. Adamo, R. Cammi, 
 J. W. Ochterski, R. L. Martin, K. Morokuma, O. Farkas, 
 J. B. Foresman, and D. J. Fox, Gaussian, Inc., Wallingford CT, 2016.
 
 ******************************************
 Gaussian 16:  ES64L-G16RevA.03 25-Dec-2016
                22-Jul-2024 
 ******************************************
 %nprocshared=6
 Will use up to    6 processors via shared memory.
 %mem=12GB
 %Chk=WUPRYUDHUFLKFL-UHFFFAOYSA-N_conf_2_0.chk
 -------------------------------------------------------
 # opt=CalcFc B3LYP/6-31G** SCRF=(Solvent=water) scf=xqc
 -------------------------------------------------------
 1/10=4,18=20,19=15,26=3,38=1/1,3;
 2/9=110,12=2,17=6,18=5,40=1/2;
 3/5=1,6=6,7=101,11=2,25=1,30=1,70=2201,71=2,72=1,74=-5,140=1/1,2,3;
 4//1;
 5/5=2,8=3,13=1,38=5,53=1/2,8;
 8/6=4,10=90,11=11/1;
 11/6=1,8=1,9=11,15=111,16=1/1,2,10;
 10/6=1,13=1/2;
 6/7=2,8=2,9=2,10=2,28=1/1;
 7/10=1,18=20,25=1/1,2,3,16;
 1/10=4,18=20,19=15,26=3/3(2);
 2/9=110/2;
 99//99;
 2/9=110/2;
 3/5=1,6=6,7=101,11=2,25=1,30=1,70=2205,71=1,72=1,74=-5/1,2,3;
 4/5=5,16=3,69=1/1;
 5/5=2,8=3,13=1,38=5,53=1/2,8;
 7//1,2,3,16;
 1/18=20,19=15,26=3/3(-5);
 2/9=110/2;
 6/7=2,8=2,9=2,10=2,19=2,28=1/1;
 99/9=1/99;
 ----------------------------------
 WUPRYUDHUFLKFL-UHFFFAOYSA-N_conf_2
 ----------------------------------
 Symbolic Z-matrix:
 Charge =  0 Multiplicity = 1
 N                    -7.46495   0.62928   0.79104 
 C                    -6.19906   0.26979   0.32634 
 C                    -5.50661   1.09053  -0.58404 
 C                    -4.2172    0.76588  -0.99901 
 C                    -3.59753  -0.38391  -0.51026 
 O                    -2.34208  -0.75688  -0.99284 
 C                    -1.20676  -0.2962   -0.36265 
 C                    -0.0001   -0.70176  -0.93655 
 C                     1.20682  -0.2898   -0.36796 
 O                     2.34192  -0.74258  -1.00407 
 C                     3.59737  -0.37604  -0.5164 
 C                     4.25748  -1.20418   0.3907 
 C                     5.54728  -0.88694   0.8107 
 C                     6.19891   0.26461   0.3302 
 N                     7.46482   0.61778   0.79958 
 C                     5.51689   1.08489  -0.58832 
 C                     4.22726   0.76679  -1.00802 
 C                     1.22051   0.52527   0.77021 
 C                     0.00056   0.91644   1.32324 
 C                    -1.21982   0.51877   0.77553 
 C                    -4.26788  -1.21236   0.38879 
 C                    -5.55787  -0.88876   0.80371 
 H                    -8.0297   -0.14264   1.12216 
 H                    -7.99328   1.22232   0.16367 
 H                    -5.98635   1.98608  -0.96925 
 H                    -3.69223   1.39722  -1.70896 
 H                    -0.00035  -1.3327   -1.81825 
 H                     3.76356  -2.09859   0.75714 
 H                     6.05837  -1.53679   1.5157 
 H                     8.02204  -0.1561    1.13872 
 H                     8.00097   1.20315   0.17167 
 H                     6.00463   1.97501  -0.97608 
 H                     3.71011   1.39774  -1.72401 
 H                     2.15723   0.84373   1.20987 
 H                     0.0008    1.54844   2.20663 
 H                    -2.15616   0.83224   1.21949 
 H                    -3.78177  -2.11193   0.75297 
 H                    -6.07701  -1.53906   1.50235 
 

 GradGradGradGradGradGradGradGradGradGradGradGradGradGradGradGradGradGrad
 Berny optimization.
 Initialization pass.
                           ----------------------------
                           !    Initial Parameters    !
                           ! (Angstroms and Degrees)  !
 --------------------------                            --------------------------
 ! Name  Definition              Value          Derivative Info.                !
 --------------------------------------------------------------------------------
 ! R1    R(1,2)                  1.3956         calculate D2E/DX2 analytically  !
 ! R2    R(1,23)                 1.0121         calculate D2E/DX2 analytically  !
 ! R3    R(1,24)                 1.0121         calculate D2E/DX2 analytically  !
 ! R4    R(2,3)                  1.4078         calculate D2E/DX2 analytically  !
 ! R5    R(2,22)                 1.4076         calculate D2E/DX2 analytically  !
 ! R6    R(3,4)                  1.3929         calculate D2E/DX2 analytically  !
 ! R7    R(3,25)                 1.0865         calculate D2E/DX2 analytically  !
 ! R8    R(4,5)                  1.3946         calculate D2E/DX2 analytically  !
 ! R9    R(4,26)                 1.0855         calculate D2E/DX2 analytically  !
 ! R10   R(5,6)                  1.3958         calculate D2E/DX2 analytically  !
 ! R11   R(5,21)                 1.3943         calculate D2E/DX2 analytically  !
 ! R12   R(6,7)                  1.3778         calculate D2E/DX2 analytically  !
 ! R13   R(7,8)                  1.3964         calculate D2E/DX2 analytically  !
 ! R14   R(7,20)                 1.3999         calculate D2E/DX2 analytically  !
 ! R15   R(8,9)                  1.3963         calculate D2E/DX2 analytically  !
 ! R16   R(8,27)                 1.0842         calculate D2E/DX2 analytically  !
 ! R17   R(9,10)                 1.3777         calculate D2E/DX2 analytically  !
 ! R18   R(9,18)                 1.4            calculate D2E/DX2 analytically  !
 ! R19   R(10,11)                1.3958         calculate D2E/DX2 analytically  !
 ! R20   R(11,12)                1.3944         calculate D2E/DX2 analytically  !
 ! R21   R(11,17)                1.3945         calculate D2E/DX2 analytically  !
 ! R22   R(12,13)                1.3931         calculate D2E/DX2 analytically  !
 ! R23   R(12,28)                1.0855         calculate D2E/DX2 analytically  !
 ! R24   R(13,14)                1.4077         calculate D2E/DX2 analytically  !
 ! R25   R(13,29)                1.0865         calculate D2E/DX2 analytically  !
 ! R26   R(14,15)                1.3956         calculate D2E/DX2 analytically  !
 ! R27   R(14,16)                1.4077         calculate D2E/DX2 analytically  !
 ! R28   R(15,30)                1.0121         calculate D2E/DX2 analytically  !
 ! R29   R(15,31)                1.0121         calculate D2E/DX2 analytically  !
 ! R30   R(16,17)                1.393          calculate D2E/DX2 analytically  !
 ! R31   R(16,32)                1.0865         calculate D2E/DX2 analytically  !
 ! R32   R(17,33)                1.0854         calculate D2E/DX2 analytically  !
 ! R33   R(18,19)                1.3954         calculate D2E/DX2 analytically  !
 ! R34   R(18,34)                1.0827         calculate D2E/DX2 analytically  !
 ! R35   R(19,20)                1.3955         calculate D2E/DX2 analytically  !
 ! R36   R(19,35)                1.0862         calculate D2E/DX2 analytically  !
 ! R37   R(20,36)                1.0826         calculate D2E/DX2 analytically  !
 ! R38   R(21,22)                1.3932         calculate D2E/DX2 analytically  !
 ! R39   R(21,37)                1.0854         calculate D2E/DX2 analytically  !
 ! R40   R(22,38)                1.0865         calculate D2E/DX2 analytically  !
 ! A1    A(2,1,23)             114.7463         calculate D2E/DX2 analytically  !
 ! A2    A(2,1,24)             114.7098         calculate D2E/DX2 analytically  !
 ! A3    A(23,1,24)            111.0009         calculate D2E/DX2 analytically  !
 ! A4    A(1,2,3)              120.7514         calculate D2E/DX2 analytically  !
 ! A5    A(1,2,22)             120.8165         calculate D2E/DX2 analytically  !
 ! A6    A(3,2,22)             118.3663         calculate D2E/DX2 analytically  !
 ! A7    A(2,3,4)              120.804          calculate D2E/DX2 analytically  !
 ! A8    A(2,3,25)             119.5119         calculate D2E/DX2 analytically  !
 ! A9    A(4,3,25)             119.6838         calculate D2E/DX2 analytically  !
 ! A10   A(3,4,5)              119.9387         calculate D2E/DX2 analytically  !
 ! A11   A(3,4,26)             120.4643         calculate D2E/DX2 analytically  !
 ! A12   A(5,4,26)             119.5946         calculate D2E/DX2 analytically  !
 ! A13   A(4,5,6)              119.9212         calculate D2E/DX2 analytically  !
 ! A14   A(4,5,21)             120.1477         calculate D2E/DX2 analytically  !
 ! A15   A(6,5,21)             119.7772         calculate D2E/DX2 analytically  !
 ! A16   A(5,6,7)              119.5832         calculate D2E/DX2 analytically  !
 ! A17   A(6,7,8)              115.2751         calculate D2E/DX2 analytically  !
 ! A18   A(6,7,20)             123.9753         calculate D2E/DX2 analytically  !
 ! A19   A(8,7,20)             120.7494         calculate D2E/DX2 analytically  !
 ! A20   A(7,8,9)              119.5962         calculate D2E/DX2 analytically  !
 ! A21   A(7,8,27)             120.2019         calculate D2E/DX2 analytically  !
 ! A22   A(9,8,27)             120.2019         calculate D2E/DX2 analytically  !
 ! A23   A(8,9,10)             115.2886         calculate D2E/DX2 analytically  !
 ! A24   A(8,9,18)             120.749          calculate D2E/DX2 analytically  !
 ! A25   A(10,9,18)            123.9624         calculate D2E/DX2 analytically  !
 ! A26   A(9,10,11)            119.5667         calculate D2E/DX2 analytically  !
 ! A27   A(10,11,12)           119.8087         calculate D2E/DX2 analytically  !
 ! A28   A(10,11,17)           119.8888         calculate D2E/DX2 analytically  !
 ! A29   A(12,11,17)           120.1485         calculate D2E/DX2 analytically  !
 ! A30   A(11,12,13)           119.9459         calculate D2E/DX2 analytically  !
 ! A31   A(11,12,28)           119.5762         calculate D2E/DX2 analytically  !
 ! A32   A(13,12,28)           120.4752         calculate D2E/DX2 analytically  !
 ! A33   A(12,13,14)           120.7956         calculate D2E/DX2 analytically  !
 ! A34   A(12,13,29)           119.6657         calculate D2E/DX2 analytically  !
 ! A35   A(14,13,29)           119.5384         calculate D2E/DX2 analytically  !
 ! A36   A(13,14,15)           120.8053         calculate D2E/DX2 analytically  !
 ! A37   A(13,14,16)           118.367          calculate D2E/DX2 analytically  !
 ! A38   A(15,14,16)           120.7621         calculate D2E/DX2 analytically  !
 ! A39   A(14,15,30)           114.7463         calculate D2E/DX2 analytically  !
 ! A40   A(14,15,31)           114.7227         calculate D2E/DX2 analytically  !
 ! A41   A(30,15,31)           111.0057         calculate D2E/DX2 analytically  !
 ! A42   A(14,16,17)           120.8012         calculate D2E/DX2 analytically  !
 ! A43   A(14,16,32)           119.5201         calculate D2E/DX2 analytically  !
 ! A44   A(17,16,32)           119.6784         calculate D2E/DX2 analytically  !
 ! A45   A(11,17,16)           119.941          calculate D2E/DX2 analytically  !
 ! A46   A(11,17,33)           119.5867         calculate D2E/DX2 analytically  !
 ! A47   A(16,17,33)           120.4698         calculate D2E/DX2 analytically  !
 ! A48   A(9,18,19)            118.4809         calculate D2E/DX2 analytically  !
 ! A49   A(9,18,34)            120.6541         calculate D2E/DX2 analytically  !
 ! A50   A(19,18,34)           120.8649         calculate D2E/DX2 analytically  !
 ! A51   A(18,19,20)           121.9456         calculate D2E/DX2 analytically  !
 ! A52   A(18,19,35)           119.0286         calculate D2E/DX2 analytically  !
 ! A53   A(20,19,35)           119.0258         calculate D2E/DX2 analytically  !
 ! A54   A(7,20,19)            118.4789         calculate D2E/DX2 analytically  !
 ! A55   A(7,20,36)            120.6655         calculate D2E/DX2 analytically  !
 ! A56   A(19,20,36)           120.8556         calculate D2E/DX2 analytically  !
 ! A57   A(5,21,22)            119.9476         calculate D2E/DX2 analytically  !
 ! A58   A(5,21,37)            119.5683         calculate D2E/DX2 analytically  !
 ! A59   A(22,21,37)           120.4815         calculate D2E/DX2 analytically  !
 ! A60   A(2,22,21)            120.795          calculate D2E/DX2 analytically  !
 ! A61   A(2,22,38)            119.5417         calculate D2E/DX2 analytically  !
 ! A62   A(21,22,38)           119.6632         calculate D2E/DX2 analytically  !
 ! D1    D(23,1,2,3)           156.6568         calculate D2E/DX2 analytically  !
 ! D2    D(23,1,2,22)          -26.3437         calculate D2E/DX2 analytically  !
 ! D3    D(24,1,2,3)            26.379          calculate D2E/DX2 analytically  !
 ! D4    D(24,1,2,22)         -156.6214         calculate D2E/DX2 analytically  !
 ! D5    D(1,2,3,4)            176.8886         calculate D2E/DX2 analytically  !
 ! D6    D(1,2,3,25)            -3.3105         calculate D2E/DX2 analytically  !
 ! D7    D(22,2,3,4)            -0.183          calculate D2E/DX2 analytically  !
 ! D8    D(22,2,3,25)          179.6179         calculate D2E/DX2 analytically  !
 ! D9    D(1,2,22,21)         -176.8482         calculate D2E/DX2 analytically  !
 ! D10   D(1,2,22,38)            3.2978         calculate D2E/DX2 analytically  !
 ! D11   D(3,2,22,21)            0.2214         calculate D2E/DX2 analytically  !
 ! D12   D(3,2,22,38)         -179.6325         calculate D2E/DX2 analytically  !
 ! D13   D(2,3,4,5)             -0.0564         calculate D2E/DX2 analytically  !
 ! D14   D(2,3,4,26)           179.3717         calculate D2E/DX2 analytically  !
 ! D15   D(25,3,4,5)          -179.857          calculate D2E/DX2 analytically  !
 ! D16   D(25,3,4,26)           -0.4289         calculate D2E/DX2 analytically  !
 ! D17   D(3,4,5,6)            175.7446         calculate D2E/DX2 analytically  !
 ! D18   D(3,4,5,21)             0.263          calculate D2E/DX2 analytically  !
 ! D19   D(26,4,5,6)            -3.6885         calculate D2E/DX2 analytically  !
 ! D20   D(26,4,5,21)         -179.1701         calculate D2E/DX2 analytically  !
 ! D21   D(4,5,6,7)             90.3428         calculate D2E/DX2 analytically  !
 ! D22   D(21,5,6,7)           -94.1588         calculate D2E/DX2 analytically  !
 ! D23   D(4,5,21,22)           -0.225          calculate D2E/DX2 analytically  !
 ! D24   D(4,5,21,37)          179.186          calculate D2E/DX2 analytically  !
 ! D25   D(6,5,21,22)         -175.7131         calculate D2E/DX2 analytically  !
 ! D26   D(6,5,21,37)            3.6979         calculate D2E/DX2 analytically  !
 ! D27   D(5,6,7,8)           -178.7188         calculate D2E/DX2 analytically  !
 ! D28   D(5,6,7,20)             1.4496         calculate D2E/DX2 analytically  !
 ! D29   D(6,7,8,9)           -179.8149         calculate D2E/DX2 analytically  !
 ! D30   D(6,7,8,27)             0.1838         calculate D2E/DX2 analytically  !
 ! D31   D(20,7,8,9)             0.0226         calculate D2E/DX2 analytically  !
 ! D32   D(20,7,8,27)         -179.9787         calculate D2E/DX2 analytically  !
 ! D33   D(6,7,20,19)          179.8234         calculate D2E/DX2 analytically  !
 ! D34   D(6,7,20,36)           -0.1642         calculate D2E/DX2 analytically  !
 ! D35   D(8,7,20,19)            0.0007         calculate D2E/DX2 analytically  !
 ! D36   D(8,7,20,36)         -179.987          calculate D2E/DX2 analytically  !
 ! D37   D(7,8,9,10)           179.9101         calculate D2E/DX2 analytically  !
 ! D38   D(7,8,9,18)            -0.0226         calculate D2E/DX2 analytically  !
 ! D39   D(27,8,9,10)           -0.0886         calculate D2E/DX2 analytically  !
 ! D40   D(27,8,9,18)          179.9787         calculate D2E/DX2 analytically  !
 ! D41   D(8,9,10,11)          179.5209         calculate D2E/DX2 analytically  !
 ! D42   D(18,9,10,11)          -0.5488         calculate D2E/DX2 analytically  !
 ! D43   D(8,9,18,19)           -0.0006         calculate D2E/DX2 analytically  !
 ! D44   D(8,9,18,34)          179.9946         calculate D2E/DX2 analytically  !
 ! D45   D(10,9,18,19)        -179.9272         calculate D2E/DX2 analytically  !
 ! D46   D(10,9,18,34)           0.0679         calculate D2E/DX2 analytically  !
 ! D47   D(9,10,11,12)          93.0053         calculate D2E/DX2 analytically  !
 ! D48   D(9,10,11,17)         -91.4975         calculate D2E/DX2 analytically  !
 ! D49   D(10,11,12,13)        175.7162         calculate D2E/DX2 analytically  !
 ! D50   D(10,11,12,28)         -3.6926         calculate D2E/DX2 analytically  !
 ! D51   D(17,11,12,13)          0.2308         calculate D2E/DX2 analytically  !
 ! D52   D(17,11,12,28)       -179.178          calculate D2E/DX2 analytically  !
 ! D53   D(10,11,17,16)       -175.7265         calculate D2E/DX2 analytically  !
 ! D54   D(10,11,17,33)          3.6956         calculate D2E/DX2 analytically  !
 ! D55   D(12,11,17,16)         -0.2447         calculate D2E/DX2 analytically  !
 ! D56   D(12,11,17,33)        179.1774         calculate D2E/DX2 analytically  !
 ! D57   D(11,12,13,14)          0.0            calculate D2E/DX2 analytically  !
 ! D58   D(11,12,13,29)       -179.8442         calculate D2E/DX2 analytically  !
 ! D59   D(28,12,13,14)        179.4034         calculate D2E/DX2 analytically  !
 ! D60   D(28,12,13,29)         -0.4408         calculate D2E/DX2 analytically  !
 ! D61   D(12,13,14,15)        176.8652         calculate D2E/DX2 analytically  !
 ! D62   D(12,13,14,16)         -0.2111         calculate D2E/DX2 analytically  !
 ! D63   D(29,13,14,15)         -3.2904         calculate D2E/DX2 analytically  !
 ! D64   D(29,13,14,16)        179.6333         calculate D2E/DX2 analytically  !
 ! D65   D(13,14,15,30)         26.2847         calculate D2E/DX2 analytically  !
 ! D66   D(13,14,15,31)        156.5824         calculate D2E/DX2 analytically  !
 ! D67   D(16,14,15,30)       -156.7092         calculate D2E/DX2 analytically  !
 ! D68   D(16,14,15,31)        -26.4115         calculate D2E/DX2 analytically  !
 ! D69   D(13,14,16,17)          0.197          calculate D2E/DX2 analytically  !
 ! D70   D(13,14,16,32)       -179.6181         calculate D2E/DX2 analytically  !
 ! D71   D(15,14,16,17)       -176.8806         calculate D2E/DX2 analytically  !
 ! D72   D(15,14,16,32)          3.3043         calculate D2E/DX2 analytically  !
 ! D73   D(14,16,17,11)          0.0281         calculate D2E/DX2 analytically  !
 ! D74   D(14,16,17,33)       -179.3888         calculate D2E/DX2 analytically  !
 ! D75   D(32,16,17,11)        179.8429         calculate D2E/DX2 analytically  !
 ! D76   D(32,16,17,33)          0.426          calculate D2E/DX2 analytically  !
 ! D77   D(9,18,19,20)           0.0247         calculate D2E/DX2 analytically  !
 ! D78   D(9,18,19,35)         179.9716         calculate D2E/DX2 analytically  !
 ! D79   D(34,18,19,20)       -179.9704         calculate D2E/DX2 analytically  !
 ! D80   D(34,18,19,35)         -0.0235         calculate D2E/DX2 analytically  !
 ! D81   D(18,19,20,7)          -0.0248         calculate D2E/DX2 analytically  !
 ! D82   D(18,19,20,36)        179.9629         calculate D2E/DX2 analytically  !
 ! D83   D(35,19,20,7)        -179.9717         calculate D2E/DX2 analytically  !
 ! D84   D(35,19,20,36)          0.0159         calculate D2E/DX2 analytically  !
 ! D85   D(5,21,22,2)           -0.0202         calculate D2E/DX2 analytically  !
 ! D86   D(5,21,22,38)         179.8336         calculate D2E/DX2 analytically  !
 ! D87   D(37,21,22,2)        -179.4256         calculate D2E/DX2 analytically  !
 ! D88   D(37,21,22,38)          0.4281         calculate D2E/DX2 analytically  !
 --------------------------------------------------------------------------------
 Trust Radius=3.00D-01 FncErr=1.00D-07 GrdErr=1.00D-06 EigMax=2.50D+02 EigMin=1.00D-04
 Number of steps in this run=    200 maximum allowed number of steps=    228.
 GradGradGradGradGradGradGradGradGradGradGradGradGradGradGradGradGradGrad

                          Input orientation:                          
 ---------------------------------------------------------------------
 Center     Atomic      Atomic             Coordinates (Angstroms)
 Number     Number       Type             X           Y           Z
 ---------------------------------------------------------------------
      1          7           0       -7.464951    0.629282    0.791035
      2          6           0       -6.199063    0.269793    0.326340
      3          6           0       -5.506609    1.090526   -0.584035
      4          6           0       -4.217199    0.765879   -0.999010
      5          6           0       -3.597530   -0.383913   -0.510261
      6          8           0       -2.342082   -0.756882   -0.992844
      7          6           0       -1.206759   -0.296195   -0.362652
      8          6           0       -0.000096   -0.701756   -0.936548
      9          6           0        1.206818   -0.289799   -0.367961
     10          8           0        2.341918   -0.742580   -1.004066
     11          6           0        3.597372   -0.376042   -0.516404
     12          6           0        4.257476   -1.204182    0.390696
     13          6           0        5.547278   -0.886939    0.810699
     14          6           0        6.198909    0.264614    0.330202
     15          7           0        7.464821    0.617781    0.799577
     16          6           0        5.516885    1.084887   -0.588319
     17          6           0        4.227255    0.766789   -1.008024
     18          6           0        1.220505    0.525273    0.770208
     19          6           0        0.000557    0.916443    1.323236
     20          6           0       -1.219816    0.518769    0.775526
     21          6           0       -4.267884   -1.212364    0.388787
     22          6           0       -5.557871   -0.888758    0.803714
     23          1           0       -8.029704   -0.142635    1.122155
     24          1           0       -7.993278    1.222322    0.163673
     25          1           0       -5.986354    1.986076   -0.969248
     26          1           0       -3.692230    1.397216   -1.708958
     27          1           0       -0.000345   -1.332695   -1.818250
     28          1           0        3.763564   -2.098594    0.757139
     29          1           0        6.058368   -1.536794    1.515697
     30          1           0        8.022042   -0.156104    1.138724
     31          1           0        8.000970    1.203148    0.171674
     32          1           0        6.004630    1.975009   -0.976076
     33          1           0        3.710109    1.397740   -1.724006
     34          1           0        2.157226    0.843726    1.209871
     35          1           0        0.000796    1.548442    2.206626
     36          1           0       -2.156158    0.832235    1.219488
     37          1           0       -3.781769   -2.111930    0.752971
     38          1           0       -6.077012   -1.539057    1.502354
 ---------------------------------------------------------------------
                    Distance matrix (angstroms):
                    1          2          3          4          5
     1  N    0.000000
     2  C    1.395581   0.000000
     3  C    2.436938   1.407792   0.000000
     4  C    3.710905   2.435249   1.392903   0.000000
     5  C    4.204388   2.809841   2.413296   1.394592   0.000000
     6  O    5.598880   4.203643   3.687041   2.415554   1.395759
     7  C    6.430589   5.071307   4.523352   3.255104   2.396929
     8  C    7.776906   6.400468   5.801571   4.465626   3.636520
     9  C    8.797020   7.459375   6.857265   5.561712   4.807376
    10  O   10.063750   8.703059   8.070693   6.730341   5.970723
    11  C   11.184590   9.853804   9.221598   7.912295   7.194909
    12  C   11.871696  10.560111  10.077358   8.810933   7.948942
    13  C   13.100283  11.813093  11.315656  10.067366   9.253404
    14  C   13.676492  12.397974  11.770179  10.512534   9.853790
    15  N   14.929779  13.676504  13.053577  11.820594  11.184573
    16  C   13.062858  11.779831  11.023496   9.747965   9.232336
    17  C   11.830604  10.523100   9.748471   8.444459   7.924591
    18  C    8.686104   7.437222   6.885314   5.723342   5.067512
    19  C    7.489961   6.312468   5.830683   4.817153   4.242507
    20  C    6.246132   5.005663   4.533421   3.492040   2.849843
    21  C    3.711428   2.435188   2.790004   2.417022   1.394271
    22  C    2.437532   1.407570   2.417859   2.790168   2.413366
    23  H    1.012147   2.038299   3.285997   4.456448   4.729394
    24  H    1.012131   2.037886   2.599992   3.977304   4.728296
    25  H    2.669407   2.160884   1.086533   2.149343   3.396174
    26  H    4.590546   3.420195   2.156729   1.085452   2.149014
    27  H    8.147273   6.752136   6.141191   4.780902   3.943446
    28  H   11.555172  10.249331   9.894713   8.659206   7.663690
    29  H   13.714852  12.446804  12.044101  10.826511   9.933278
    30  H   15.510792  14.250656  13.694757  12.458691  11.738207
    31  H   15.488952  14.231515  13.529171  12.281912  11.726423
    32  H   13.651493  12.390891  11.551824  10.293120   9.898635
    33  H   11.480328  10.181742   9.292029   7.985429   7.618993
    34  H    9.633675   8.422446   7.874857   6.746741   6.130511
    35  H    7.654158   6.603686   6.191041   5.355370   4.905448
    36  H    5.329920   4.178413   3.813782   3.028866   2.559023
    37  H    4.591462   3.420223   3.875356   3.397178   2.148428
    38  H    2.670963   2.160982   3.404862   3.876655   3.395999
                    6          7          8          9         10
     6  O    0.000000
     7  C    1.377800   0.000000
     8  C    2.343311   1.396378   0.000000
     9  C    3.633640   2.413591   1.396296   0.000000
    10  O    4.684035   3.633701   2.343343   1.377713   0.000000
    11  C    5.970691   4.807254   3.636535   2.396711   1.395826
    12  C    6.757842   5.590155   4.487865   3.273862   2.414084
    13  C    8.093929   6.880607   5.818980   4.537115   3.686264
    14  C    8.703013   7.459120   6.400484   5.071073   4.203700
    15  N   10.063688   8.796728   7.776908   6.430354   5.598915
    16  C    8.082024   6.867729   5.809513   4.529348   3.686855
    17  C    6.743737   5.574491   4.475738   3.263296   2.415100
    18  C    4.176637   2.801748   2.430737   1.399985   2.452155
    19  C    3.694888   2.402149   2.779423   2.402131   3.694680
    20  C    2.452325   1.399924   2.430760   2.801767   4.176589
    21  C    2.413521   3.282455   4.497916   5.603227   6.771279
    22  C    3.685961   4.543536   5.826864   6.891487   8.105313
    23  H    6.099145   6.984326   8.308157   9.357106  10.604305
    24  H    6.098426   6.974221   8.294789   9.338678  10.584929
    25  H    4.561260   5.331158   6.562072   7.568545   8.763954
    26  H    2.641185   3.295110   4.316730   5.352099   6.441005
    27  H    2.548840   2.156046   1.084197   2.155971   2.548986
    28  H    6.491652   5.404321   4.357163   3.327843   2.638502
    29  H    8.801625   7.605876   6.589065   5.351701   4.559823
    30  H   10.598093   9.351178   8.304167   6.981064   6.099124
    31  H   10.591343   9.344293   8.299028   6.977148   6.098614
    32  H    8.782432   7.585433   6.574448   5.340240   4.560870
    33  H    6.465757   5.375713   4.335158   3.309549   2.640309
    34  H    5.259056   3.884410   3.413161   2.162801   2.729834
    35  H    4.586960   3.385567   3.865609   3.385575   4.586739
    36  H    2.730252   2.162841   3.413242   3.884400   5.258985
    37  H    2.637560   3.342482   4.375399   5.427951   6.516275
    38  H    4.559333   5.361186   6.601380   7.623182   8.820142
                   11         12         13         14         15
    11  C    0.000000
    12  C    1.394412   0.000000
    13  C    2.413369   1.393067   0.000000
    14  C    2.809836   2.435197   1.407684   0.000000
    15  N    4.204361   3.711306   2.437474   1.395555   0.000000
    16  C    2.413300   2.790057   2.417907   1.407723   2.436985
    17  C    1.394455   2.417035   2.790167   2.435251   3.710992
    18  C    2.849076   3.515428   4.551587   5.004603   6.245070
    19  C    4.241683   4.846446   5.854997   6.311146   7.488568
    20  C    5.067057   5.754770   6.911643   7.436423   8.685235
    21  C    7.961222   8.525364   9.829614  10.570650  11.881690
    22  C    9.264128   9.829095  11.105151  11.822705  13.109546
    23  H   11.744286  12.354623  13.600935  14.256454  15.516526
    24  H   11.720087  12.490814  13.719121  14.225439  15.482980
    25  H    9.880915  10.814955  12.018614  12.374677  13.635801
    26  H    7.596376   8.624016   9.845534  10.162460  11.462114
    27  H    3.943800   4.798437   6.155176   6.752629   8.147765
    28  H    2.148655   1.085450   2.156991   3.420224   4.591274
    29  H    3.396068   2.149295   1.086530   2.161069   2.670792
    30  H    4.729220   3.978690   2.601188   2.038265   1.012133
    31  H    4.728527   4.456114   3.285943   2.037989   1.012113
    32  H    3.396120   3.876579   3.404773   2.160916   2.669676
    33  H    2.148794   3.397289   3.875523   3.420215   4.590716
    34  H    2.557710   3.045657   3.827139   4.176648   5.328223
    35  H    4.904477   5.384595   6.216362   6.601953   7.652293
    36  H    6.129956   6.780014   7.903518   8.421411   9.632526
    37  H    7.686114   8.098439   9.409307  10.268429  11.573214
    38  H    9.950964  10.399498  11.663094  12.462961  13.730517
                   16         17         18         19         20
    16  C    0.000000
    17  C    1.393013   0.000000
    18  C    4.540666   3.501569   0.000000
    19  C    5.840573   4.829301   1.395395   0.000000
    20  C    6.896644   5.736998   2.440335   1.395507   0.000000
    21  C   10.098208   8.833771   5.769513   4.860515   3.526628
    22  C   11.335045  10.088207   6.924376   5.867263   4.560773
    23  H   13.709216  12.473883   9.280966   8.102294   6.850707
    24  H   13.531773  12.285024   9.259998   8.083288   6.837334
    25  H   11.544772  10.286203   7.556353   6.499439   5.283665
    26  H    9.282305   7.975399   5.571491   4.802293   3.613469
    27  H    6.147948   4.789248   3.412131   3.863620   3.412140
    28  H    3.875428   3.397239   3.654039   4.855011   5.628943
    29  H    3.404893   3.876679   5.311572   6.538539   7.599023
    30  H    3.286114   4.456531   6.845508   8.094975   9.273581
    31  H    2.600433   3.977816   6.840502   8.087948   9.265846
    32  H    1.086539   2.149390   5.295195   6.515849   7.575049
    33  H    2.156873   1.085435   3.630486   4.824739   5.596821
    34  H    3.818240   3.034798   1.082664   2.160870   3.420331
    35  H    6.201116   5.367300   2.144262   1.086186   2.144334
    36  H    7.887179   6.761217   3.420224   2.160850   1.082635
    37  H    9.923894   8.690949   5.654899   4.878753   3.672150
    38  H   12.069567  10.853425   7.619137   6.557317   5.324968
                   21         22         23         24         25
    21  C    0.000000
    22  C    1.393180   0.000000
    23  H    3.979125   2.601550   0.000000
    24  H    4.456112   3.285958   1.668269   0.000000
    25  H    3.876521   3.404653   3.616719   2.427874   0.000000
    26  H    3.397325   3.875540   5.403705   4.694289   2.481317
    27  H    4.805973   6.160996   8.633240   8.622245   6.896909
    28  H    8.088587   9.399735  11.959941  12.231272  10.711015
    29  H   10.392625  11.656066  14.162356  14.383652  12.793002
    30  H   12.358008  13.603788  16.051760  16.104076  14.327164
    31  H   12.506263  13.733816  16.115119  15.994261  14.055601
    32  H   10.841898  12.044096  14.347457  14.064387  11.990991
    33  H    8.655918   9.874862  12.177709  11.855942   9.743572
    34  H    6.795861   7.917650  10.234947  10.211298   8.507139
    35  H    5.398909   6.229517   8.277968   8.257435   6.791441
    36  H    3.054478   3.834884   5.954695   5.944652   4.559859
    37  H    1.085429   2.157142   4.696741   5.403824   4.961843
    38  H    2.149350   1.086505   2.430546   3.617922   4.306228
                   26         27         28         29         30
    26  H    0.000000
    27  H    4.592861   0.000000
    28  H    8.595998   4.624526   0.000000
    29  H   10.680870   6.918444   2.481361   0.000000
    30  H   12.155092   8.630571   4.696116   2.429903   0.000000
    31  H   11.845057   8.626201   5.403691   3.617649   1.668291
    32  H    9.741666   6.907234   4.961920   4.306342   3.617177
    33  H    7.402354   4.607779   4.287574   4.962004   5.403926
    34  H    6.560644   4.308299   3.382682   4.580318   5.949856
    35  H    5.384525   4.949806   5.436939   6.833026   8.269600
    36  H    3.354775   4.308399   6.621679   8.554442  10.226392
    37  H    4.287565   4.638702   7.545346   9.886396  11.970965
    38  H    4.961996   6.927834   9.884602  12.135388  14.171383
                   31         32         33         34         35
    31  H    0.000000
    32  H    2.428677   0.000000
    33  H    4.694993   2.481424   0.000000
    34  H    5.946123   4.567350   3.365414   0.000000
    35  H    8.262145   6.808640   5.406624   2.477970   0.000000
    36  H   10.217766   8.527889   6.587643   4.313410   2.477871
    37  H   12.254003  10.745524   8.636054   6.649535   5.460699
    38  H   14.404165  12.824093  10.715499   8.577055   6.853349
                   36         37         38
    36  H    0.000000
    37  H    3.395343   0.000000
    38  H    4.590875   2.481511   0.000000
 Stoichiometry    C18H16N2O2
 Framework group  C1[X(C18H16N2O2)]
 Deg. of freedom   108
 Full point group                 C1      NOp   1
 Largest Abelian subgroup         C1      NOp   1
 Largest concise Abelian subgroup C1      NOp   1
                         Standard orientation:                         
 ---------------------------------------------------------------------
 Center     Atomic      Atomic             Coordinates (Angstroms)
 Number     Number       Type             X           Y           Z
 ---------------------------------------------------------------------
      1          7           0        7.464951   -0.629282    0.791035
      2          6           0        6.199063   -0.269793    0.326340
      3          6           0        5.506609   -1.090526   -0.584035
      4          6           0        4.217199   -0.765879   -0.999010
      5          6           0        3.597530    0.383913   -0.510261
      6          8           0        2.342082    0.756882   -0.992844
      7          6           0        1.206759    0.296195   -0.362652
      8          6           0        0.000096    0.701756   -0.936548
      9          6           0       -1.206818    0.289799   -0.367961
     10          8           0       -2.341918    0.742580   -1.004066
     11          6           0       -3.597372    0.376042   -0.516404
     12          6           0       -4.257476    1.204182    0.390696
     13          6           0       -5.547278    0.886939    0.810699
     14          6           0       -6.198909   -0.264614    0.330202
     15          7           0       -7.464821   -0.617781    0.799577
     16          6           0       -5.516885   -1.084887   -0.588319
     17          6           0       -4.227255   -0.766789   -1.008024
     18          6           0       -1.220505   -0.525273    0.770208
     19          6           0       -0.000557   -0.916443    1.323236
     20          6           0        1.219816   -0.518769    0.775526
     21          6           0        4.267884    1.212364    0.388787
     22          6           0        5.557871    0.888758    0.803714
     23          1           0        8.029704    0.142635    1.122155
     24          1           0        7.993278   -1.222322    0.163673
     25          1           0        5.986354   -1.986076   -0.969248
     26          1           0        3.692230   -1.397216   -1.708958
     27          1           0        0.000345    1.332695   -1.818250
     28          1           0       -3.763564    2.098594    0.757139
     29          1           0       -6.058368    1.536794    1.515697
     30          1           0       -8.022042    0.156104    1.138724
     31          1           0       -8.000970   -1.203148    0.171674
     32          1           0       -6.004630   -1.975009   -0.976076
     33          1           0       -3.710109   -1.397740   -1.724006
     34          1           0       -2.157226   -0.843726    1.209871
     35          1           0       -0.000796   -1.548442    2.206626
     36          1           0        2.156158   -0.832235    1.219488
     37          1           0        3.781769    2.111930    0.752971
     38          1           0        6.077012    1.539057    1.502354
 ---------------------------------------------------------------------
 Rotational constants (GHZ):           1.3445342           0.0839060           0.0836699
 Standard basis: 6-31G(d,p) (6D, 7F)
 There are   410 symmetry adapted cartesian basis functions of A   symmetry.
 There are   410 symmetry adapted basis functions of A   symmetry.
   410 basis functions,   728 primitive gaussians,   410 cartesian basis functions
    77 alpha electrons       77 beta electrons
       nuclear repulsion energy      1560.2469550750 Hartrees.
 NAtoms=   38 NActive=   38 NUniq=   38 SFac= 1.00D+00 NAtFMM=   60 NAOKFM=F Big=F
 Integral buffers will be    131072 words long.
 Raffenetti 2 integral format.
 Two-electron integral symmetry is turned on.
 Force inversion solution in PCM.
 ------------------------------------------------------------------------------
 Polarizable Continuum Model (PCM)
 =================================
 Model                : PCM.
 Atomic radii         : UFF (Universal Force Field).
 Polarization charges : Total charges.
 Charge compensation  : None.
 Solution method      : Matrix inversion.
 Cavity type          : Scaled VdW (van der Waals Surface) (Alpha=1.100).
 Cavity algorithm     : GePol (No added spheres)
                        Default sphere list used, NSphG=   38.
                        Lebedev-Laikov grids with approx.  5.0 points / Ang**2.
                        Smoothing algorithm: York/Karplus (Gamma=1.0000).
                        Polarization charges: spherical gaussians, with
                                              point-specific exponents (IZeta= 3).
                        Self-potential: point-specific (ISelfS= 7).
                        Self-field    : sphere-specific E.n sum rule (ISelfD= 2).
 1st derivatives      : Analytical E(r).r(x)/FMM algorithm (CHGder, D1EAlg=3).
                        Cavity 1st derivative terms included.
 2nd derivatives      : Analytical E(r).r(xy)/FMM algorithm (CHGder, D2EAlg=3).
                        Cavity 2nd derivative terms included.
 Solvent              : Water, Eps=  78.355300 Eps(inf)=   1.777849
 ------------------------------------------------------------------------------
 One-electron integrals computed using PRISM.
 NBasis=   410 RedAO= T EigKep=  4.05D-04  NBF=   410
 NBsUse=   410 1.00D-06 EigRej= -1.00D+00 NBFU=   410
 ExpMin= 1.61D-01 ExpMax= 5.48D+03 ExpMxC= 8.25D+02 IAcc=3 IRadAn=         5 AccDes= 0.00D+00
 Harris functional with IExCor=  402 and IRadAn=       5 diagonalized for initial guess.
 HarFok:  IExCor=  402 AccDes= 0.00D+00 IRadAn=         5 IDoV= 1 UseB2=F ITyADJ=14
 ICtDFT=  3500011 ScaDFX=  1.000000  1.000000  1.000000  1.000000
 FoFCou: FMM=F IPFlag=           0 FMFlag=      100000 FMFlg1=           0
         NFxFlg=           0 DoJE=T BraDBF=F KetDBF=T FulRan=T
         wScrn=  0.000000 ICntrl=       500 IOpCl=  0 I1Cent=   200000004 NGrid=           0
         NMat0=    1 NMatS0=      1 NMatT0=    0 NMatD0=    1 NMtDS0=    0 NMtDT0=    0
 Petite list used in FoFCou.
 Requested convergence on RMS density matrix=1.00D-08 within  32 cycles.
 Requested convergence on MAX density matrix=1.00D-06.
 Requested convergence on             energy=1.00D-06.
 No special actions if energy rises.
 Inv3:  Mode=1 IEnd=    26302563.
 Iteration    1 A*A^-1 deviation from unit magnitude is 3.55D-15 for   2376.
 Iteration    1 A*A^-1 deviation from orthogonality  is 2.47D-15 for   1709   1198.
 Iteration    1 A^-1*A deviation from unit magnitude is 3.11D-15 for   1444.
 Iteration    1 A^-1*A deviation from orthogonality  is 3.18D-15 for   2169   2023.
 Error on total polarization charges =  0.01078
 SCF Done:  E(RB3LYP) =  -955.528304813     A.U. after   12 cycles
            NFock= 12  Conv=0.53D-08     -V/T= 2.0095
 QCSCF skips out because SCF is already converged.
 DoSCS=F DFT=T ScalE2(SS,OS)=  1.000000  1.000000
 Range of M.O.s used for correlation:     1   410
 NBasis=   410 NAE=    77 NBE=    77 NFC=     0 NFV=     0
 NROrb=    410 NOA=    77 NOB=    77 NVA=   333 NVB=   333
 Symmetrizing basis deriv contribution to polar:
 IMax=3 JMax=2 DiffMx= 0.00D+00
 G2DrvN: will do    39 centers at a time, making    1 passes.
 Calling FoFCou, ICntrl=  3107 FMM=F I1Cent=   0 AccDes= 0.00D+00.
 NEqPCM:  Using equilibrium solvation (IEInf=0, Eps=  78.3553, EpsInf=   1.7778)
 G2PCM: DoFxE=T DoFxN=T DoGrad=T DoDP/DQ/DG/TGxP=FFFF NFrqRd=   0 IEInf=0 SqF1=F DoCFld=F IF1Alg=4.
 End of G2Drv F.D. properties file   721 does not exist.
 End of G2Drv F.D. properties file   722 does not exist.
 End of G2Drv F.D. properties file   788 does not exist.
          IDoAtm=11111111111111111111111111111111111111
 NEqPCM:  Using equilibrium solvation (IEInf=0, Eps=  78.3553, EpsInf=   1.7778)
          Differentiating once with respect to nuclear coordinates.
 CalDSu exits because no D1Ps are significant.
          There are   117 degrees of freedom in the 1st order CPHF.  IDoFFX=6 NUNeed=     0.
    111 vectors produced by pass  0 Test12= 2.56D-14 1.00D-09 XBig12= 1.35D-01 1.14D-01.
 AX will form   111 AO Fock derivatives at one time.
    111 vectors produced by pass  1 Test12= 2.56D-14 1.00D-09 XBig12= 2.34D-02 3.90D-02.
    111 vectors produced by pass  2 Test12= 2.56D-14 1.00D-09 XBig12= 2.80D-04 2.00D-03.
    111 vectors produced by pass  3 Test12= 2.56D-14 1.00D-09 XBig12= 1.32D-06 1.76D-04.
    111 vectors produced by pass  4 Test12= 2.56D-14 1.00D-09 XBig12= 2.07D-09 4.73D-06.
     85 vectors produced by pass  5 Test12= 2.56D-14 1.00D-09 XBig12= 2.31D-12 1.18D-07.
     21 vectors produced by pass  6 Test12= 2.56D-14 1.00D-09 XBig12= 2.04D-15 3.19D-09.
 InvSVY:  IOpt=1 It=  1 EMax= 4.44D-16
 Solved reduced A of dimension   661 with   117 vectors.
 End of Minotr F.D. properties file   721 does not exist.
 End of Minotr F.D. properties file   722 does not exist.
 End of Minotr F.D. properties file   788 does not exist.

 **********************************************************************

            Population analysis using the SCF density.

 **********************************************************************

 Orbital symmetries:
       Occupied  (A) (A) (A) (A) (A) (A) (A) (A) (A) (A) (A) (A)
                 (A) (A) (A) (A) (A) (A) (A) (A) (A) (A) (A) (A)
                 (A) (A) (A) (A) (A) (A) (A) (A) (A) (A) (A) (A)
                 (A) (A) (A) (A) (A) (A) (A) (A) (A) (A) (A) (A)
                 (A) (A) (A) (A) (A) (A) (A) (A) (A) (A) (A) (A)
                 (A) (A) (A) (A) (A) (A) (A) (A) (A) (A) (A) (A)
                 (A) (A) (A) (A) (A)
       Virtual   (A) (A) (A) (A) (A) (A) (A) (A) (A) (A) (A) (A)
                 (A) (A) (A) (A) (A) (A) (A) (A) (A) (A) (A) (A)
                 (A) (A) (A) (A) (A) (A) (A) (A) (A) (A) (A) (A)
                 (A) (A) (A) (A) (A) (A) (A) (A) (A) (A) (A) (A)
                 (A) (A) (A) (A) (A) (A) (A) (A) (A) (A) (A) (A)
                 (A) (A) (A) (A) (A) (A) (A) (A) (A) (A) (A) (A)
                 (A) (A) (A) (A) (A) (A) (A) (A) (A) (A) (A) (A)
                 (A) (A) (A) (A) (A) (A) (A) (A) (A) (A) (A) (A)
                 (A) (A) (A) (A) (A) (A) (A) (A) (A) (A) (A) (A)
                 (A) (A) (A) (A) (A) (A) (A) (A) (A) (A) (A) (A)
                 (A) (A) (A) (A) (A) (A) (A) (A) (A) (A) (A) (A)
                 (A) (A) (A) (A) (A) (A) (A) (A) (A) (A) (A) (A)
                 (A) (A) (A) (A) (A) (A) (A) (A) (A) (A) (A) (A)
                 (A) (A) (A) (A) (A) (A) (A) (A) (A) (A) (A) (A)
                 (A) (A) (A) (A) (A) (A) (A) (A) (A) (A) (A) (A)
                 (A) (A) (A) (A) (A) (A) (A) (A) (A) (A) (A) (A)
                 (A) (A) (A) (A) (A) (A) (A) (A) (A) (A) (A) (A)
                 (A) (A) (A) (A) (A) (A) (A) (A) (A) (A) (A) (A)
                 (A) (A) (A) (A) (A) (A) (A) (A) (A) (A) (A) (A)
                 (A) (A) (A) (A) (A) (A) (A) (A) (A) (A) (A) (A)
                 (A) (A) (A) (A) (A) (A) (A) (A) (A) (A) (A) (A)
                 (A) (A) (A) (A) (A) (A) (A) (A) (A) (A) (A) (A)
                 (A) (A) (A) (A) (A) (A) (A) (A) (A) (A) (A) (A)
                 (A) (A) (A) (A) (A) (A) (A) (A) (A) (A) (A) (A)
                 (A) (A) (A) (A) (A) (A) (A) (A) (A) (A) (A) (A)
                 (A) (A) (A) (A) (A) (A) (A) (A) (A) (A) (A) (A)
                 (A) (A) (A) (A) (A) (A) (A) (A) (A) (A) (A) (A)
                 (A) (A) (A) (A) (A) (A) (A) (A) (A)
 The electronic state is 1-A.
 Alpha  occ. eigenvalues --  -19.18610 -19.18609 -14.33840 -14.33840 -10.25531
 Alpha  occ. eigenvalues --  -10.25530 -10.23951 -10.23951 -10.23186 -10.23184
 Alpha  occ. eigenvalues --  -10.19593 -10.19392 -10.19391 -10.19387 -10.19385
 Alpha  occ. eigenvalues --  -10.18911 -10.18910 -10.18908 -10.18906 -10.18466
 Alpha  occ. eigenvalues --  -10.18406 -10.18404  -1.07339  -1.07187  -0.91698
 Alpha  occ. eigenvalues --   -0.91695  -0.85821  -0.84053  -0.83334  -0.75865
 Alpha  occ. eigenvalues --   -0.75372  -0.75031  -0.75030  -0.71533  -0.71319
 Alpha  occ. eigenvalues --   -0.63838  -0.62157  -0.62152  -0.61469  -0.60651
 Alpha  occ. eigenvalues --   -0.57326  -0.55322  -0.51921  -0.51559  -0.51186
 Alpha  occ. eigenvalues --   -0.51156  -0.49763  -0.49551  -0.48089  -0.44886
 Alpha  occ. eigenvalues --   -0.44821  -0.44516  -0.44398  -0.43473  -0.42333
 Alpha  occ. eigenvalues --   -0.42260  -0.41818  -0.40989  -0.40177  -0.39685
 Alpha  occ. eigenvalues --   -0.38796  -0.37958  -0.37587  -0.37521  -0.35746
 Alpha  occ. eigenvalues --   -0.35132  -0.34828  -0.33946  -0.30811  -0.30490
 Alpha  occ. eigenvalues --   -0.30345  -0.25725  -0.25647  -0.23487  -0.22041
 Alpha  occ. eigenvalues --   -0.20469  -0.20412
 Alpha virt. eigenvalues --   -0.01372  -0.00649   0.00621   0.01116   0.01314
 Alpha virt. eigenvalues --    0.01531   0.08845   0.09007   0.09866   0.10557
 Alpha virt. eigenvalues --    0.10774   0.12970   0.12985   0.14774   0.15532
 Alpha virt. eigenvalues --    0.16004   0.16365   0.16613   0.16906   0.17108
 Alpha virt. eigenvalues --    0.17117   0.17492   0.17595   0.18864   0.19937
 Alpha virt. eigenvalues --    0.19994   0.20014   0.23904   0.24016   0.25905
 Alpha virt. eigenvalues --    0.28558   0.29548   0.29977   0.32908   0.33245
 Alpha virt. eigenvalues --    0.33246   0.33307   0.34289   0.34296   0.35058
 Alpha virt. eigenvalues --    0.35607   0.38983   0.39405   0.44481   0.47679
 Alpha virt. eigenvalues --    0.48427   0.48737   0.50628   0.51303   0.52451
 Alpha virt. eigenvalues --    0.52828   0.52974   0.53689   0.54179   0.54843
 Alpha virt. eigenvalues --    0.55269   0.56297   0.56311   0.56355   0.57747
 Alpha virt. eigenvalues --    0.57777   0.58025   0.58471   0.58499   0.58788
 Alpha virt. eigenvalues --    0.58973   0.59858   0.60655   0.60667   0.60799
 Alpha virt. eigenvalues --    0.61259   0.61356   0.62699   0.63061   0.64396
 Alpha virt. eigenvalues --    0.64438   0.64903   0.65227   0.67685   0.68729
 Alpha virt. eigenvalues --    0.68856   0.70297   0.70324   0.73489   0.75947
 Alpha virt. eigenvalues --    0.76068   0.76243   0.76383   0.78325   0.78752
 Alpha virt. eigenvalues --    0.80023   0.80385   0.81406   0.81816   0.81914
 Alpha virt. eigenvalues --    0.81921   0.84322   0.84563   0.84724   0.85833
 Alpha virt. eigenvalues --    0.86226   0.86232   0.86656   0.87093   0.87257
 Alpha virt. eigenvalues --    0.88622   0.89104   0.89710   0.90783   0.91073
 Alpha virt. eigenvalues --    0.93664   0.93700   0.94009   0.94473   0.96163
 Alpha virt. eigenvalues --    0.98349   0.98425   0.99020   0.99499   1.02813
 Alpha virt. eigenvalues --    1.03701   1.03918   1.04175   1.07917   1.08194
 Alpha virt. eigenvalues --    1.10480   1.10592   1.13538   1.14422   1.14907
 Alpha virt. eigenvalues --    1.15450   1.16576   1.17050   1.17815   1.18009
 Alpha virt. eigenvalues --    1.19281   1.23659   1.24616   1.24769   1.27159
 Alpha virt. eigenvalues --    1.28935   1.30738   1.31848   1.31864   1.34095
 Alpha virt. eigenvalues --    1.34510   1.38053   1.38107   1.38184   1.38505
 Alpha virt. eigenvalues --    1.38720   1.39674   1.40012   1.40213   1.40299
 Alpha virt. eigenvalues --    1.41139   1.44177   1.44519   1.45085   1.46670
 Alpha virt. eigenvalues --    1.47490   1.47711   1.51929   1.51991   1.64448
 Alpha virt. eigenvalues --    1.65175   1.70694   1.73143   1.74931   1.75078
 Alpha virt. eigenvalues --    1.75464   1.76777   1.77790   1.77936   1.79918
 Alpha virt. eigenvalues --    1.79953   1.80410   1.81956   1.84645   1.85724
 Alpha virt. eigenvalues --    1.86270   1.86495   1.87732   1.89709   1.90115
 Alpha virt. eigenvalues --    1.90177   1.90581   1.90584   1.91021   1.91129
 Alpha virt. eigenvalues --    1.92188   1.92234   1.93079   1.93552   1.95930
 Alpha virt. eigenvalues --    1.96265   1.96357   1.96386   1.96824   1.98100
 Alpha virt. eigenvalues --    1.99109   2.01725   2.02126   2.02680   2.05378
 Alpha virt. eigenvalues --    2.05480   2.09312   2.09634   2.10472   2.13302
 Alpha virt. eigenvalues --    2.16476   2.17471   2.17578   2.19314   2.19908
 Alpha virt. eigenvalues --    2.22232   2.23569   2.26893   2.27106   2.28289
 Alpha virt. eigenvalues --    2.28725   2.29697   2.31806   2.32154   2.32345
 Alpha virt. eigenvalues --    2.32964   2.33353   2.33481   2.34074   2.35399
 Alpha virt. eigenvalues --    2.36039   2.37803   2.40353   2.40636   2.40642
 Alpha virt. eigenvalues --    2.41223   2.41890   2.41908   2.45043   2.45378
 Alpha virt. eigenvalues --    2.45737   2.46369   2.46385   2.46551   2.46986
 Alpha virt. eigenvalues --    2.47421   2.47960   2.48480   2.50705   2.54790
 Alpha virt. eigenvalues --    2.54865   2.55141   2.55448   2.56280   2.56802
 Alpha virt. eigenvalues --    2.57814   2.58332   2.59858   2.59917   2.64471
 Alpha virt. eigenvalues --    2.64858   2.64980   2.66449   2.67322   2.70578
 Alpha virt. eigenvalues --    2.71892   2.72668   2.73709   2.75398   2.75863
 Alpha virt. eigenvalues --    2.76592   2.76674   2.79245   2.82810   2.83142
 Alpha virt. eigenvalues --    2.84699   2.84711   2.88077   2.93104   2.99548
 Alpha virt. eigenvalues --    2.99852   3.01750   3.03025   3.06169   3.06302
 Alpha virt. eigenvalues --    3.06313   3.07180   3.11930   3.14148   3.19697
 Alpha virt. eigenvalues --    3.20071   3.22010   3.24653   3.24656   3.25454
 Alpha virt. eigenvalues --    3.28121   3.28144   3.31235   3.31280   3.35870
 Alpha virt. eigenvalues --    3.36320   3.40862   3.41791   3.47297   3.50144
 Alpha virt. eigenvalues --    3.50159   3.54325   3.54332   3.81539   3.82619
 Alpha virt. eigenvalues --    3.84695   4.04815   4.04888   4.11771   4.12967
 Alpha virt. eigenvalues --    4.13437   4.15302   4.15590   4.15631   4.15871
 Alpha virt. eigenvalues --    4.22994   4.23056   4.41573   4.43143   4.43298
 Alpha virt. eigenvalues --    4.43415   4.44071   4.46922   4.56076   4.70980
 Alpha virt. eigenvalues --    4.82857   4.85550   4.87737
          Condensed to atoms (all electrons):
               1          2          3          4          5          6
     1  N    6.821332   0.307426  -0.070670   0.004881   0.000454   0.000000
     2  C    0.307426   4.565271   0.532815  -0.025489  -0.031575   0.000127
     3  C   -0.070670   0.532815   4.965771   0.493440  -0.027724   0.004591
     4  C    0.004881  -0.025489   0.493440   4.922116   0.530487  -0.047973
     5  C    0.000454  -0.031575  -0.027724   0.530487   4.639021   0.186463
     6  O    0.000000   0.000127   0.004591  -0.047973   0.186463   8.359172
     7  C   -0.000000   0.000056  -0.000068  -0.003378  -0.028011   0.250424
     8  C   -0.000000  -0.000001   0.000005  -0.000042   0.001196  -0.049207
     9  C   -0.000000  -0.000000  -0.000000   0.000005  -0.000097   0.002651
    10  O   -0.000000  -0.000000   0.000000   0.000000   0.000000  -0.000011
    11  C   -0.000000  -0.000000  -0.000000   0.000000  -0.000000   0.000000
    12  C    0.000000   0.000000  -0.000000  -0.000000   0.000000   0.000000
    13  C    0.000000   0.000000  -0.000000  -0.000000  -0.000000   0.000000
    14  C    0.000000  -0.000000   0.000000   0.000000  -0.000000  -0.000000
    15  N    0.000000   0.000000   0.000000   0.000000  -0.000000  -0.000000
    16  C    0.000000   0.000000  -0.000000  -0.000000  -0.000000   0.000000
    17  C    0.000000   0.000000  -0.000000  -0.000000   0.000000   0.000000
    18  C   -0.000000   0.000000   0.000000  -0.000002   0.000023   0.000254
    19  C   -0.000000  -0.000000   0.000001  -0.000034   0.000205   0.004012
    20  C    0.000000   0.000014  -0.000294   0.000259   0.006269  -0.058033
    21  C    0.004868  -0.025551  -0.040322  -0.062391   0.533288  -0.048015
    22  C   -0.070680   0.533167  -0.045669  -0.040213  -0.027971   0.004564
    23  H    0.347132  -0.025938   0.005093  -0.000165  -0.000001  -0.000000
    24  H    0.347134  -0.025960  -0.008916   0.000019  -0.000002  -0.000000
    25  H   -0.007379  -0.041617   0.363258  -0.030593   0.003470  -0.000059
    26  H   -0.000100   0.003828  -0.035097   0.363330  -0.038823  -0.003035
    27  H   -0.000000   0.000000  -0.000000  -0.000006   0.000210  -0.000712
    28  H   -0.000000  -0.000000  -0.000000   0.000000   0.000000  -0.000000
    29  H    0.000000  -0.000000   0.000000  -0.000000   0.000000  -0.000000
    30  H    0.000000   0.000000   0.000000   0.000000  -0.000000  -0.000000
    31  H    0.000000   0.000000   0.000000   0.000000  -0.000000  -0.000000
    32  H    0.000000  -0.000000   0.000000   0.000000   0.000000  -0.000000
    33  H   -0.000000  -0.000000   0.000000   0.000000   0.000000  -0.000000
    34  H    0.000000  -0.000000   0.000000   0.000000  -0.000000   0.000002
    35  H    0.000000  -0.000000  -0.000000   0.000001   0.000005  -0.000055
    36  H   -0.000001  -0.000087   0.000123   0.001962   0.010026  -0.008512
    37  H   -0.000100   0.003843   0.000354   0.005970  -0.038896  -0.002728
    38  H   -0.007367  -0.041601   0.005235   0.000485   0.003475  -0.000059
               7          8          9         10         11         12
     1  N   -0.000000  -0.000000  -0.000000  -0.000000  -0.000000   0.000000
     2  C    0.000056  -0.000001  -0.000000  -0.000000  -0.000000   0.000000
     3  C   -0.000068   0.000005  -0.000000   0.000000  -0.000000  -0.000000
     4  C   -0.003378  -0.000042   0.000005   0.000000   0.000000  -0.000000
     5  C   -0.028011   0.001196  -0.000097   0.000000  -0.000000   0.000000
     6  O    0.250424  -0.049207   0.002651  -0.000011   0.000000   0.000000
     7  C    4.578056   0.515319  -0.004055   0.002649  -0.000097   0.000005
     8  C    0.515319   5.064498   0.515343  -0.049211   0.001198  -0.000066
     9  C   -0.004055   0.515343   4.577998   0.250469  -0.028024  -0.003330
    10  O    0.002649  -0.049211   0.250469   8.359179   0.186388  -0.048005
    11  C   -0.000097   0.001198  -0.028024   0.186388   4.639188   0.532438
    12  C    0.000005  -0.000066  -0.003330  -0.048005   0.532438   4.921536
    13  C   -0.000000   0.000006  -0.000062   0.004574  -0.027909   0.493131
    14  C   -0.000000  -0.000001   0.000056   0.000127  -0.031574  -0.025521
    15  N   -0.000000  -0.000000  -0.000000   0.000000   0.000454   0.004874
    16  C   -0.000000   0.000005  -0.000065   0.004582  -0.027801  -0.040296
    17  C    0.000005  -0.000052  -0.003361  -0.047968   0.531368  -0.062375
    18  C   -0.034945  -0.075540   0.481794  -0.058042   0.006277   0.000391
    19  C   -0.005110  -0.034416  -0.005133   0.004015   0.000206  -0.000032
    20  C    0.481805  -0.075553  -0.034929   0.000254   0.000023  -0.000001
    21  C   -0.003298  -0.000075   0.000005   0.000000   0.000000  -0.000000
    22  C   -0.000060   0.000006  -0.000000   0.000000  -0.000000  -0.000000
    23  H    0.000000  -0.000000   0.000000  -0.000000  -0.000000   0.000000
    24  H    0.000000  -0.000000   0.000000  -0.000000  -0.000000   0.000000
    25  H   -0.000004  -0.000000   0.000000  -0.000000   0.000000  -0.000000
    26  H    0.001213  -0.000140   0.000000  -0.000000   0.000000   0.000000
    27  H   -0.037650   0.349330  -0.037646  -0.000713   0.000210  -0.000005
    28  H   -0.000000  -0.000132   0.001074  -0.002820  -0.038870   0.363197
    29  H    0.000000  -0.000000  -0.000004  -0.000059   0.003474  -0.030606
    30  H    0.000000  -0.000000   0.000000  -0.000000  -0.000002   0.000017
    31  H    0.000000  -0.000000   0.000000  -0.000000  -0.000002  -0.000164
    32  H    0.000000  -0.000000  -0.000004  -0.000059   0.003471   0.000492
    33  H    0.000000  -0.000137   0.001150  -0.002940  -0.038847   0.005943
    34  H    0.000405   0.004936  -0.042878  -0.008523   0.010039   0.001923
    35  H    0.003004   0.000975   0.003004  -0.000055   0.000005   0.000001
    36  H   -0.042884   0.004937   0.000405   0.000002  -0.000000   0.000000
    37  H    0.001018  -0.000128  -0.000000  -0.000000   0.000000   0.000000
    38  H   -0.000004  -0.000000   0.000000  -0.000000   0.000000   0.000000
              13         14         15         16         17         18
     1  N    0.000000   0.000000   0.000000   0.000000   0.000000  -0.000000
     2  C    0.000000  -0.000000   0.000000   0.000000   0.000000   0.000000
     3  C   -0.000000   0.000000   0.000000  -0.000000  -0.000000   0.000000
     4  C   -0.000000   0.000000   0.000000  -0.000000  -0.000000  -0.000002
     5  C   -0.000000  -0.000000  -0.000000  -0.000000   0.000000   0.000023
     6  O    0.000000  -0.000000  -0.000000   0.000000   0.000000   0.000254
     7  C   -0.000000  -0.000000  -0.000000  -0.000000   0.000005  -0.034945
     8  C    0.000006  -0.000001  -0.000000   0.000005  -0.000052  -0.075540
     9  C   -0.000062   0.000056  -0.000000  -0.000065  -0.003361   0.481794
    10  O    0.004574   0.000127   0.000000   0.004582  -0.047968  -0.058042
    11  C   -0.027909  -0.031574   0.000454  -0.027801   0.531368   0.006277
    12  C    0.493131  -0.025521   0.004874  -0.040296  -0.062375   0.000391
    13  C    4.966115   0.533026  -0.070676  -0.045662  -0.040246  -0.000271
    14  C    0.533026   4.565221   0.307446   0.532917  -0.025508   0.000014
    15  N   -0.070676   0.307446   6.821294  -0.070679   0.004877   0.000000
    16  C   -0.045662   0.532917  -0.070679   4.965934   0.493309  -0.000284
    17  C   -0.040246  -0.025508   0.004877   0.493309   4.921781   0.000308
    18  C   -0.000271   0.000014   0.000000  -0.000284   0.000308   5.015960
    19  C    0.000001  -0.000000  -0.000000   0.000001  -0.000033   0.502977
    20  C    0.000000   0.000000  -0.000000   0.000000  -0.000001  -0.048687
    21  C   -0.000000   0.000000   0.000000  -0.000000  -0.000000  -0.000001
    22  C   -0.000000   0.000000   0.000000  -0.000000  -0.000000   0.000000
    23  H    0.000000   0.000000   0.000000   0.000000   0.000000   0.000000
    24  H    0.000000   0.000000   0.000000   0.000000   0.000000   0.000000
    25  H    0.000000  -0.000000   0.000000   0.000000   0.000000  -0.000000
    26  H   -0.000000  -0.000000  -0.000000   0.000000   0.000000   0.000001
    27  H   -0.000000   0.000000  -0.000000  -0.000000  -0.000005   0.007181
    28  H   -0.035076   0.003838  -0.000100   0.000357   0.005958   0.000319
    29  H    0.363280  -0.041590  -0.007371   0.005229   0.000488   0.000001
    30  H   -0.008890  -0.025949   0.347148   0.005093  -0.000165  -0.000000
    31  H    0.005089  -0.025944   0.347144  -0.008912   0.000017  -0.000000
    32  H    0.005226  -0.041619  -0.007374   0.363267  -0.030588   0.000001
    33  H    0.000360   0.003833  -0.000100  -0.035090   0.363278   0.000352
    34  H    0.000132  -0.000087  -0.000001   0.000128   0.001950   0.369346
    35  H   -0.000000  -0.000000   0.000000  -0.000000   0.000001  -0.035285
    36  H    0.000000  -0.000000   0.000000   0.000000   0.000000   0.004501
    37  H    0.000000  -0.000000  -0.000000  -0.000000   0.000000   0.000001
    38  H    0.000000  -0.000000   0.000000   0.000000  -0.000000  -0.000000
              19         20         21         22         23         24
     1  N   -0.000000   0.000000   0.004868  -0.070680   0.347132   0.347134
     2  C   -0.000000   0.000014  -0.025551   0.533167  -0.025938  -0.025960
     3  C    0.000001  -0.000294  -0.040322  -0.045669   0.005093  -0.008916
     4  C   -0.000034   0.000259  -0.062391  -0.040213  -0.000165   0.000019
     5  C    0.000205   0.006269   0.533288  -0.027971  -0.000001  -0.000002
     6  O    0.004012  -0.058033  -0.048015   0.004564  -0.000000  -0.000000
     7  C   -0.005110   0.481805  -0.003298  -0.000060   0.000000   0.000000
     8  C   -0.034416  -0.075553  -0.000075   0.000006  -0.000000  -0.000000
     9  C   -0.005133  -0.034929   0.000005  -0.000000   0.000000   0.000000
    10  O    0.004015   0.000254   0.000000   0.000000  -0.000000  -0.000000
    11  C    0.000206   0.000023   0.000000  -0.000000  -0.000000  -0.000000
    12  C   -0.000032  -0.000001  -0.000000  -0.000000   0.000000   0.000000
    13  C    0.000001   0.000000  -0.000000  -0.000000   0.000000   0.000000
    14  C   -0.000000   0.000000   0.000000   0.000000   0.000000   0.000000
    15  N   -0.000000  -0.000000   0.000000   0.000000   0.000000   0.000000
    16  C    0.000001   0.000000  -0.000000  -0.000000   0.000000   0.000000
    17  C   -0.000033  -0.000001  -0.000000  -0.000000   0.000000   0.000000
    18  C    0.502977  -0.048687  -0.000001   0.000000   0.000000   0.000000
    19  C    4.860672   0.502911  -0.000031   0.000001  -0.000000  -0.000000
    20  C    0.502911   5.016011   0.000447  -0.000261  -0.000000  -0.000000
    21  C   -0.000031   0.000447   4.921332   0.493040   0.000016  -0.000164
    22  C    0.000001  -0.000261   0.493040   4.966169  -0.008890   0.005090
    23  H   -0.000000  -0.000000   0.000016  -0.008890   0.428216  -0.029428
    24  H   -0.000000  -0.000000  -0.000164   0.005090  -0.029428   0.428254
    25  H   -0.000000   0.000001   0.000495   0.005224  -0.000091   0.004350
    26  H   -0.000029   0.000379   0.005931   0.000363   0.000003  -0.000007
    27  H   -0.000459   0.007179  -0.000005  -0.000000  -0.000000  -0.000000
    28  H   -0.000024   0.000001   0.000000   0.000000  -0.000000  -0.000000
    29  H   -0.000000  -0.000000   0.000000   0.000000   0.000000   0.000000
    30  H   -0.000000   0.000000   0.000000   0.000000   0.000000   0.000000
    31  H   -0.000000   0.000000   0.000000   0.000000   0.000000   0.000000
    32  H   -0.000000  -0.000000  -0.000000   0.000000   0.000000   0.000000
    33  H   -0.000026   0.000001   0.000000  -0.000000  -0.000000  -0.000000
    34  H   -0.037856   0.004499   0.000000   0.000000   0.000000  -0.000000
    35  H    0.368995  -0.035287   0.000001  -0.000000  -0.000000  -0.000000
    36  H   -0.037857   0.369355   0.001915   0.000134  -0.000000  -0.000000
    37  H   -0.000022   0.000295   0.363137  -0.035067  -0.000007   0.000003
    38  H   -0.000000   0.000000  -0.030607   0.363290   0.004332  -0.000092
              25         26         27         28         29         30
     1  N   -0.007379  -0.000100  -0.000000  -0.000000   0.000000   0.000000
     2  C   -0.041617   0.003828   0.000000  -0.000000  -0.000000   0.000000
     3  C    0.363258  -0.035097  -0.000000  -0.000000   0.000000   0.000000
     4  C   -0.030593   0.363330  -0.000006   0.000000  -0.000000   0.000000
     5  C    0.003470  -0.038823   0.000210   0.000000   0.000000  -0.000000
     6  O   -0.000059  -0.003035  -0.000712  -0.000000  -0.000000  -0.000000
     7  C   -0.000004   0.001213  -0.037650  -0.000000   0.000000   0.000000
     8  C   -0.000000  -0.000140   0.349330  -0.000132  -0.000000  -0.000000
     9  C    0.000000   0.000000  -0.037646   0.001074  -0.000004   0.000000
    10  O   -0.000000  -0.000000  -0.000713  -0.002820  -0.000059  -0.000000
    11  C    0.000000   0.000000   0.000210  -0.038870   0.003474  -0.000002
    12  C   -0.000000   0.000000  -0.000005   0.363197  -0.030606   0.000017
    13  C    0.000000  -0.000000  -0.000000  -0.035076   0.363280  -0.008890
    14  C   -0.000000  -0.000000   0.000000   0.003838  -0.041590  -0.025949
    15  N    0.000000  -0.000000  -0.000000  -0.000100  -0.007371   0.347148
    16  C    0.000000   0.000000  -0.000000   0.000357   0.005229   0.005093
    17  C    0.000000   0.000000  -0.000005   0.005958   0.000488  -0.000165
    18  C   -0.000000   0.000001   0.007181   0.000319   0.000001  -0.000000
    19  C   -0.000000  -0.000029  -0.000459  -0.000024  -0.000000  -0.000000
    20  C    0.000001   0.000379   0.007179   0.000001  -0.000000   0.000000
    21  C    0.000495   0.005931  -0.000005   0.000000   0.000000   0.000000
    22  C    0.005224   0.000363  -0.000000   0.000000   0.000000   0.000000
    23  H   -0.000091   0.000003  -0.000000  -0.000000   0.000000   0.000000
    24  H    0.004350  -0.000007  -0.000000  -0.000000   0.000000   0.000000
    25  H    0.606449  -0.006142  -0.000000  -0.000000   0.000000   0.000000
    26  H   -0.006142   0.600870   0.000011  -0.000000  -0.000000  -0.000000
    27  H   -0.000000   0.000011   0.610414   0.000011  -0.000000  -0.000000
    28  H   -0.000000  -0.000000   0.000011   0.601153  -0.006158  -0.000007
    29  H    0.000000  -0.000000  -0.000000  -0.006158   0.606428   0.004337
    30  H    0.000000  -0.000000  -0.000000  -0.000007   0.004337   0.428193
    31  H    0.000000  -0.000000  -0.000000   0.000003  -0.000092  -0.029427
    32  H   -0.000000  -0.000000  -0.000000   0.000015  -0.000183  -0.000091
    33  H   -0.000000  -0.000000   0.000011  -0.000172   0.000015   0.000003
    34  H    0.000000   0.000000  -0.000121   0.000014   0.000001  -0.000000
    35  H   -0.000000   0.000000   0.000014   0.000000  -0.000000  -0.000000
    36  H    0.000001   0.000012  -0.000121   0.000000   0.000000   0.000000
    37  H    0.000015  -0.000172   0.000010  -0.000000  -0.000000  -0.000000
    38  H   -0.000183   0.000015  -0.000000  -0.000000  -0.000000   0.000000
              31         32         33         34         35         36
     1  N    0.000000   0.000000  -0.000000   0.000000   0.000000  -0.000001
     2  C    0.000000  -0.000000  -0.000000  -0.000000  -0.000000  -0.000087
     3  C    0.000000   0.000000   0.000000   0.000000  -0.000000   0.000123
     4  C    0.000000   0.000000   0.000000   0.000000   0.000001   0.001962
     5  C   -0.000000   0.000000   0.000000  -0.000000   0.000005   0.010026
     6  O   -0.000000  -0.000000  -0.000000   0.000002  -0.000055  -0.008512
     7  C    0.000000   0.000000   0.000000   0.000405   0.003004  -0.042884
     8  C   -0.000000  -0.000000  -0.000137   0.004936   0.000975   0.004937
     9  C    0.000000  -0.000004   0.001150  -0.042878   0.003004   0.000405
    10  O   -0.000000  -0.000059  -0.002940  -0.008523  -0.000055   0.000002
    11  C   -0.000002   0.003471  -0.038847   0.010039   0.000005  -0.000000
    12  C   -0.000164   0.000492   0.005943   0.001923   0.000001   0.000000
    13  C    0.005089   0.005226   0.000360   0.000132  -0.000000   0.000000
    14  C   -0.025944  -0.041619   0.003833  -0.000087  -0.000000  -0.000000
    15  N    0.347144  -0.007374  -0.000100  -0.000001   0.000000   0.000000
    16  C   -0.008912   0.363267  -0.035090   0.000128  -0.000000   0.000000
    17  C    0.000017  -0.030588   0.363278   0.001950   0.000001   0.000000
    18  C   -0.000000   0.000001   0.000352   0.369346  -0.035285   0.004501
    19  C   -0.000000  -0.000000  -0.000026  -0.037856   0.368995  -0.037857
    20  C    0.000000  -0.000000   0.000001   0.004499  -0.035287   0.369355
    21  C    0.000000  -0.000000   0.000000   0.000000   0.000001   0.001915
    22  C    0.000000   0.000000  -0.000000   0.000000  -0.000000   0.000134
    23  H    0.000000   0.000000  -0.000000   0.000000  -0.000000  -0.000000
    24  H    0.000000   0.000000  -0.000000  -0.000000  -0.000000  -0.000000
    25  H    0.000000  -0.000000  -0.000000   0.000000  -0.000000   0.000001
    26  H   -0.000000  -0.000000  -0.000000   0.000000   0.000000   0.000012
    27  H   -0.000000  -0.000000   0.000011  -0.000121   0.000014  -0.000121
    28  H    0.000003   0.000015  -0.000172   0.000014   0.000000   0.000000
    29  H   -0.000092  -0.000183   0.000015   0.000001  -0.000000   0.000000
    30  H   -0.029427  -0.000091   0.000003  -0.000000  -0.000000   0.000000
    31  H    0.428215   0.004343  -0.000007  -0.000000  -0.000000   0.000000
    32  H    0.004343   0.606459  -0.006148   0.000001  -0.000000   0.000000
    33  H   -0.000007  -0.006148   0.600986   0.000013   0.000000   0.000000
    34  H   -0.000000   0.000001   0.000013   0.595786  -0.005385  -0.000135
    35  H   -0.000000  -0.000000   0.000000  -0.005385   0.598142  -0.005385
    36  H    0.000000   0.000000   0.000000  -0.000135  -0.005385   0.595801
    37  H   -0.000000  -0.000000  -0.000000   0.000000   0.000000   0.000015
    38  H    0.000000   0.000000  -0.000000   0.000000  -0.000000   0.000001
              37         38
     1  N   -0.000100  -0.007367
     2  C    0.003843  -0.041601
     3  C    0.000354   0.005235
     4  C    0.005970   0.000485
     5  C   -0.038896   0.003475
     6  O   -0.002728  -0.000059
     7  C    0.001018  -0.000004
     8  C   -0.000128  -0.000000
     9  C   -0.000000   0.000000
    10  O   -0.000000  -0.000000
    11  C    0.000000   0.000000
    12  C    0.000000   0.000000
    13  C    0.000000   0.000000
    14  C   -0.000000  -0.000000
    15  N   -0.000000   0.000000
    16  C   -0.000000   0.000000
    17  C    0.000000  -0.000000
    18  C    0.000001  -0.000000
    19  C   -0.000022  -0.000000
    20  C    0.000295   0.000000
    21  C    0.363137  -0.030607
    22  C   -0.035067   0.363290
    23  H   -0.000007   0.004332
    24  H    0.000003  -0.000092
    25  H    0.000015  -0.000183
    26  H   -0.000172   0.000015
    27  H    0.000010  -0.000000
    28  H   -0.000000  -0.000000
    29  H   -0.000000  -0.000000
    30  H   -0.000000   0.000000
    31  H   -0.000000   0.000000
    32  H   -0.000000   0.000000
    33  H   -0.000000  -0.000000
    34  H    0.000000   0.000000
    35  H    0.000000  -0.000000
    36  H    0.000015   0.000001
    37  H    0.601280  -0.006164
    38  H   -0.006164   0.606474
 Mulliken charges:
               1
     1  N   -0.676929
     2  C    0.271270
     3  C   -0.141926
     4  C   -0.112670
     5  C    0.278508
     6  O   -0.593862
     7  C    0.325607
     8  C   -0.173054
     9  C    0.325634
    10  O   -0.593834
    11  C    0.278385
    12  C   -0.113547
    13  C   -0.142148
    14  C    0.271314
    15  N   -0.676936
    16  C   -0.142033
    17  C   -0.113039
    18  C   -0.136641
    19  C   -0.122937
    20  C   -0.136658
    21  C   -0.114016
    22  C   -0.142236
    23  H    0.279729
    24  H    0.279720
    25  H    0.102806
    26  H    0.107588
    27  H    0.102862
    28  H    0.107418
    29  H    0.102810
    30  H    0.279740
    31  H    0.279737
    32  H    0.102792
    33  H    0.107523
    34  H    0.105812
    35  H    0.107304
    36  H    0.105795
    37  H    0.107342
    38  H    0.102771
 Sum of Mulliken charges =  -0.00000
 Mulliken charges with hydrogens summed into heavy atoms:
               1
     1  N   -0.117481
     2  C    0.271270
     3  C   -0.039120
     4  C   -0.005082
     5  C    0.278508
     6  O   -0.593862
     7  C    0.325607
     8  C   -0.070192
     9  C    0.325634
    10  O   -0.593834
    11  C    0.278385
    12  C   -0.006129
    13  C   -0.039338
    14  C    0.271314
    15  N   -0.117459
    16  C   -0.039241
    17  C   -0.005516
    18  C   -0.030829
    19  C   -0.015633
    20  C   -0.030863
    21  C   -0.006674
    22  C   -0.039465
 APT charges:
               1
     1  N   -1.929318
     2  C    0.483890
     3  C   -0.344851
     4  C   -0.572870
     5  C   -0.702219
     6  O   -0.352188
     7  C   -0.033166
     8  C   -0.509925
     9  C   -0.033137
    10  O   -0.351940
    11  C   -0.702374
    12  C   -0.563346
    13  C   -0.344351
    14  C    0.483565
    15  N   -1.929564
    16  C   -0.344882
    17  C   -0.569126
    18  C   -0.513503
    19  C   -0.527062
    20  C   -0.513582
    21  C   -0.559512
    22  C   -0.344506
    23  H    1.196662
    24  H    1.165832
    25  H    0.816240
    26  H    0.157918
    27  H    0.454366
    28  H    0.178265
    29  H    0.836348
    30  H    1.189695
    31  H    1.173296
    32  H    0.822192
    33  H    0.163837
    34  H    0.517931
    35  H    0.556998
    36  H    0.517911
    37  H    0.184098
    38  H    0.842379
 Sum of APT charges =  -0.00000
 APT charges with hydrogens summed into heavy atoms:
               1
     1  N    0.433176
     2  C    0.483890
     3  C    0.471389
     4  C   -0.414952
     5  C   -0.702219
     6  O   -0.352188
     7  C   -0.033166
     8  C   -0.055559
     9  C   -0.033137
    10  O   -0.351940
    11  C   -0.702374
    12  C   -0.385081
    13  C    0.491997
    14  C    0.483565
    15  N    0.433427
    16  C    0.477309
    17  C   -0.405289
    18  C    0.004427
    19  C    0.029937
    20  C    0.004329
    21  C   -0.375414
    22  C    0.497873
 Electronic spatial extent (au):  <R**2>=          12256.5196
 Charge=             -0.0000 electrons
 Dipole moment (field-independent basis, Debye):
    X=             -0.0039    Y=             -0.9157    Z=              1.0459  Tot=              1.3901
 Quadrupole moment (field-independent basis, Debye-Ang):
   XX=            -40.4416   YY=           -121.0969   ZZ=           -127.8578
   XY=             -0.1221   XZ=             -0.1031   YZ=              9.6671
 Traceless Quadrupole moment (field-independent basis, Debye-Ang):
   XX=             56.0239   YY=            -24.6315   ZZ=            -31.3923
   XY=             -0.1221   XZ=             -0.1031   YZ=              9.6671
 Octapole moment (field-independent basis, Debye-Ang**2):
  XXX=             -0.1966  YYY=              2.7135  ZZZ=             -4.0880  XYY=              0.3460
  XXY=            -10.0233  XXZ=              5.9193  XZZ=             -0.3551  YZZ=              0.1768
  YYZ=             -1.6658  XYZ=             -0.1185
 Hexadecapole moment (field-independent basis, Debye-Ang**3):
 XXXX=          -7914.1546 YYYY=           -632.2168 ZZZZ=           -632.3038 XXXY=             -5.7519
 XXXZ=             -5.2507 YYYX=             -0.7274 YYYZ=             23.1568 ZZZX=             -0.4893
 ZZZY=              3.7990 XXYY=          -2447.1168 XXZZ=          -2733.6262 YYZZ=           -196.7799
 XXYZ=            406.5920 YYXZ=             -0.2046 ZZXY=             -0.2297
 N-N= 1.560246955075D+03 E-N=-5.342914902509D+03  KE= 9.464980616417D+02
  Exact polarizability:   0.000   0.000   0.000   0.000   0.000   0.000
 Approx polarizability: 434.659   0.417 274.047   0.261  23.597 252.980
 D2PCM: PCM CHGder 2nd derivatives, FixD1E=F FixD2E=F DoIter=F DoCFld=F I1PDM=0
 Calling FoFJK, ICntrl=    100147 FMM=F ISym2X=0 I1Cent= 0 IOpClX= 0 NMat=1 NMatS=1 NMatT=0.
 ***** Axes restored to original set *****
 -------------------------------------------------------------------
 Center     Atomic                   Forces (Hartrees/Bohr)
 Number     Number              X              Y              Z
 -------------------------------------------------------------------
      1        7           0.000005483   -0.000062601   -0.000032754
      2        6          -0.000036560    0.000080129    0.000035068
      3        6           0.000019931    0.000011777   -0.000032118
      4        6          -0.000019808    0.000009911    0.000016718
      5        6          -0.000030532    0.000059314    0.000011400
      6        8           0.000046082   -0.000030344   -0.000059957
      7        6           0.000002345   -0.000043240    0.000038191
      8        6          -0.000029743    0.000004143   -0.000009323
[...]
   172    C   12  py     Val( 2p)     1.17762
   173    C   12  py     Ryd( 3p)     0.00459
   174    C   12  pz     Val( 2p)     1.05501
   175    C   12  pz     Ryd( 3p)     0.00369
   176    C   12  dxy    Ryd( 3d)     0.00067
   177    C   12  dxz    Ryd( 3d)     0.00047
   178    C   12  dyz    Ryd( 3d)     0.00044
   179    C   12  dx2y2  Ryd( 3d)     0.00056
   180    C   12  dz2    Ryd( 3d)     0.00049

   181    C   13  S      Cor( 1S)     1.99906
   182    C   13  S      Val( 2S)     0.95515
   183    C   13  S      Ryd( 3S)     0.00062
   184    C   13  S      Ryd( 4S)     0.00004
   185    C   13  px     Val( 2p)     1.09370
   186    C   13  px     Ryd( 3p)     0.00435
   187    C   13  py     Val( 2p)     1.14406
   188    C   13  py     Ryd( 3p)     0.00444
   189    C   13  pz     Val( 2p)     1.09266
   190    C   13  pz     Ryd( 3p)     0.00371
   191    C   13  dxy    Ryd( 3d)     0.00065
   192    C   13  dxz    Ryd( 3d)     0.00046
   193    C   13  dyz    Ryd( 3d)     0.00042
   194    C   13  dx2y2  Ryd( 3d)     0.00056
   195    C   13  dz2    Ryd( 3d)     0.00043

   196    C   14  S      Cor( 1S)     1.99898
   197    C   14  S      Val( 2S)     0.85185
   198    C   14  S      Ryd( 3S)     0.00117
   199    C   14  S      Ryd( 4S)     0.00009
   200    C   14  px     Val( 2p)     0.91668
   201    C   14  px     Ryd( 3p)     0.00457
   202    C   14  py     Val( 2p)     1.09472
   203    C   14  py     Ryd( 3p)     0.00439
   204    C   14  pz     Val( 2p)     0.94514
   205    C   14  pz     Ryd( 3p)     0.00230
   206    C   14  dxy    Ryd( 3d)     0.00092
   207    C   14  dxz    Ryd( 3d)     0.00119
   208    C   14  dyz    Ryd( 3d)     0.00091
   209    C   14  dx2y2  Ryd( 3d)     0.00110
   210    C   14  dz2    Ryd( 3d)     0.00079

   211    N   15  S      Cor( 1S)     1.99949
   212    N   15  S      Val( 2S)     1.36858
   213    N   15  S      Ryd( 3S)     0.00011
   214    N   15  S      Ryd( 4S)     0.00001
   215    N   15  px     Val( 2p)     1.32318
   216    N   15  px     Ryd( 3p)     0.00204
   217    N   15  py     Val( 2p)     1.43129
   218    N   15  py     Ryd( 3p)     0.00198
   219    N   15  pz     Val( 2p)     1.62288
   220    N   15  pz     Ryd( 3p)     0.00338
   221    N   15  dxy    Ryd( 3d)     0.00065
   222    N   15  dxz    Ryd( 3d)     0.00075
   223    N   15  dyz    Ryd( 3d)     0.00058
   224    N   15  dx2y2  Ryd( 3d)     0.00022
   225    N   15  dz2    Ryd( 3d)     0.00104

   226    C   16  S      Cor( 1S)     1.99906
   227    C   16  S      Val( 2S)     0.95506
   228    C   16  S      Ryd( 3S)     0.00062
   229    C   16  S      Ryd( 4S)     0.00004
   230    C   16  px     Val( 2p)     1.09272
   231    C   16  px     Ryd( 3p)     0.00435
   232    C   16  py     Val( 2p)     1.16101
   233    C   16  py     Ryd( 3p)     0.00440
   234    C   16  pz     Val( 2p)     1.07701
   235    C   16  pz     Ryd( 3p)     0.00376
   236    C   16  dxy    Ryd( 3d)     0.00067
   237    C   16  dxz    Ryd( 3d)     0.00044
   238    C   16  dyz    Ryd( 3d)     0.00040
   239    C   16  dx2y2  Ryd( 3d)     0.00055
   240    C   16  dz2    Ryd( 3d)     0.00046

   241    C   17  S      Cor( 1S)     1.99900
   242    C   17  S      Val( 2S)     0.96413
   243    C   17  S      Ryd( 3S)     0.00079
   244    C   17  S      Ryd( 4S)     0.00005
   245    C   17  px     Val( 2p)     1.09461
   246    C   17  px     Ryd( 3p)     0.00479
   247    C   17  py     Val( 2p)     1.15890
   248    C   17  py     Ryd( 3p)     0.00468
   249    C   17  pz     Val( 2p)     1.07249
   250    C   17  pz     Ryd( 3p)     0.00360
   251    C   17  dxy    Ryd( 3d)     0.00063
   252    C   17  dxz    Ryd( 3d)     0.00051
   253    C   17  dyz    Ryd( 3d)     0.00048
   254    C   17  dx2y2  Ryd( 3d)     0.00058
   255    C   17  dz2    Ryd( 3d)     0.00043

   256    C   18  S      Cor( 1S)     1.99901
   257    C   18  S      Val( 2S)     0.95814
   258    C   18  S      Ryd( 3S)     0.00061
   259    C   18  S      Ryd( 4S)     0.00004
   260    C   18  px     Val( 2p)     1.18206
   261    C   18  px     Ryd( 3p)     0.00328
   262    C   18  py     Val( 2p)     1.10369
   263    C   18  py     Ryd( 3p)     0.00183
   264    C   18  pz     Val( 2p)     1.09560
   265    C   18  pz     Ryd( 3p)     0.00396
   266    C   18  dxy    Ryd( 3d)     0.00043
   267    C   18  dxz    Ryd( 3d)     0.00051
   268    C   18  dyz    Ryd( 3d)     0.00052
   269    C   18  dx2y2  Ryd( 3d)     0.00048
   270    C   18  dz2    Ryd( 3d)     0.00062

   271    C   19  S      Cor( 1S)     1.99914
   272    C   19  S      Val( 2S)     0.95137
   273    C   19  S      Ryd( 3S)     0.00068
   274    C   19  S      Ryd( 4S)     0.00004
   275    C   19  px     Val( 2p)     1.05359
   276    C   19  px     Ryd( 3p)     0.00504
   277    C   19  py     Val( 2p)     1.04489
   278    C   19  py     Ryd( 3p)     0.00265
   279    C   19  pz     Val( 2p)     1.19392
   280    C   19  pz     Ryd( 3p)     0.00505
   281    C   19  dxy    Ryd( 3d)     0.00064
   282    C   19  dxz    Ryd( 3d)     0.00059
   283    C   19  dyz    Ryd( 3d)     0.00031
   284    C   19  dx2y2  Ryd( 3d)     0.00039
   285    C   19  dz2    Ryd( 3d)     0.00068

   286    C   20  S      Cor( 1S)     1.99901
   287    C   20  S      Val( 2S)     0.95813
   288    C   20  S      Ryd( 3S)     0.00061
   289    C   20  S      Ryd( 4S)     0.00004
   290    C   20  px     Val( 2p)     1.18202
   291    C   20  px     Ryd( 3p)     0.00328
   292    C   20  py     Val( 2p)     1.10372
   293    C   20  py     Ryd( 3p)     0.00183
   294    C   20  pz     Val( 2p)     1.09569
   295    C   20  pz     Ryd( 3p)     0.00396
   296    C   20  dxy    Ryd( 3d)     0.00042
   297    C   20  dxz    Ryd( 3d)     0.00051
   298    C   20  dyz    Ryd( 3d)     0.00052
   299    C   20  dx2y2  Ryd( 3d)     0.00048
   300    C   20  dz2    Ryd( 3d)     0.00062

   301    C   21  S      Cor( 1S)     1.99900
   302    C   21  S      Val( 2S)     0.96419
   303    C   21  S      Ryd( 3S)     0.00079
   304    C   21  S      Ryd( 4S)     0.00005
   305    C   21  px     Val( 2p)     1.09368
   306    C   21  px     Ryd( 3p)     0.00478
   307    C   21  py     Val( 2p)     1.17763
   308    C   21  py     Ryd( 3p)     0.00458
   309    C   21  pz     Val( 2p)     1.05389
   310    C   21  pz     Ryd( 3p)     0.00364
   311    C   21  dxy    Ryd( 3d)     0.00067
   312    C   21  dxz    Ryd( 3d)     0.00047
   313    C   21  dyz    Ryd( 3d)     0.00044
   314    C   21  dx2y2  Ryd( 3d)     0.00056
   315    C   21  dz2    Ryd( 3d)     0.00050

   316    C   22  S      Cor( 1S)     1.99906
   317    C   22  S      Val( 2S)     0.95513
   318    C   22  S      Ryd( 3S)     0.00062
   319    C   22  S      Ryd( 4S)     0.00004
   320    C   22  px     Val( 2p)     1.09345
   321    C   22  px     Ryd( 3p)     0.00434
   322    C   22  py     Val( 2p)     1.14404
   323    C   22  py     Ryd( 3p)     0.00444
   324    C   22  pz     Val( 2p)     1.09272
   325    C   22  pz     Ryd( 3p)     0.00365
   326    C   22  dxy    Ryd( 3d)     0.00065
   327    C   22  dxz    Ryd( 3d)     0.00046
   328    C   22  dyz    Ryd( 3d)     0.00042
   329    C   22  dx2y2  Ryd( 3d)     0.00056
   330    C   22  dz2    Ryd( 3d)     0.00043

   331    H   23  S      Val( 1S)     0.57098
   332    H   23  S      Ryd( 2S)     0.00131
   333    H   23  px     Ryd( 2p)     0.00033
   334    H   23  py     Ryd( 2p)     0.00048
   335    H   23  pz     Ryd( 2p)     0.00042

   336    H   24  S      Val( 1S)     0.57095
   337    H   24  S      Ryd( 2S)     0.00131
   338    H   24  px     Ryd( 2p)     0.00033
   339    H   24  py     Ryd( 2p)     0.00045
   340    H   24  pz     Ryd( 2p)     0.00046

   341    H   25  S      Val( 1S)     0.75185
   342    H   25  S      Ryd( 2S)     0.00099
   343    H   25  px     Ryd( 2p)     0.00014
   344    H   25  py     Ryd( 2p)     0.00034
   345    H   25  pz     Ryd( 2p)     0.00014

   346    H   26  S      Val( 1S)     0.74335
   347    H   26  S      Ryd( 2S)     0.00099
   348    H   26  px     Ryd( 2p)     0.00015
   349    H   26  py     Ryd( 2p)     0.00028
   350    H   26  pz     Ryd( 2p)     0.00017

   351    H   27  S      Val( 1S)     0.74489
   352    H   27  S      Ryd( 2S)     0.00156
   353    H   27  px     Ryd( 2p)     0.00006
   354    H   27  py     Ryd( 2p)     0.00015
   355    H   27  pz     Ryd( 2p)     0.00039

   356    H   28  S      Val( 1S)     0.74333
   357    H   28  S      Ryd( 2S)     0.00099
   358    H   28  px     Ryd( 2p)     0.00015
   359    H   28  py     Ryd( 2p)     0.00032
   360    H   28  pz     Ryd( 2p)     0.00013

   361    H   29  S      Val( 1S)     0.75181
   362    H   29  S      Ryd( 2S)     0.00099
   363    H   29  px     Ryd( 2p)     0.00014
   364    H   29  py     Ryd( 2p)     0.00030
   365    H   29  pz     Ryd( 2p)     0.00017

   366    H   30  S      Val( 1S)     0.57065
   367    H   30  S      Ryd( 2S)     0.00132
   368    H   30  px     Ryd( 2p)     0.00033
   369    H   30  py     Ryd( 2p)     0.00048
   370    H   30  pz     Ryd( 2p)     0.00042

   371    H   31  S      Val( 1S)     0.57060
   372    H   31  S      Ryd( 2S)     0.00132
   373    H   31  px     Ryd( 2p)     0.00033
   374    H   31  py     Ryd( 2p)     0.00045
   375    H   31  pz     Ryd( 2p)     0.00046

   376    H   32  S      Val( 1S)     0.75182
   377    H   32  S      Ryd( 2S)     0.00099
   378    H   32  px     Ryd( 2p)     0.00014
   379    H   32  py     Ryd( 2p)     0.00034
   380    H   32  pz     Ryd( 2p)     0.00014

   381    H   33  S      Val( 1S)     0.74334
   382    H   33  S      Ryd( 2S)     0.00099
   383    H   33  px     Ryd( 2p)     0.00015
   384    H   33  py     Ryd( 2p)     0.00028
   385    H   33  pz     Ryd( 2p)     0.00017

   386    H   34  S      Val( 1S)     0.74727
   387    H   34  S      Ryd( 2S)     0.00082
   388    H   34  px     Ryd( 2p)     0.00032
   389    H   34  py     Ryd( 2p)     0.00015
   390    H   34  pz     Ryd( 2p)     0.00015

   391    H   35  S      Val( 1S)     0.75628
   392    H   35  S      Ryd( 2S)     0.00074
   393    H   35  px     Ryd( 2p)     0.00007
   394    H   35  py     Ryd( 2p)     0.00015
   395    H   35  pz     Ryd( 2p)     0.00041

   396    H   36  S      Val( 1S)     0.74726
   397    H   36  S      Ryd( 2S)     0.00082
   398    H   36  px     Ryd( 2p)     0.00032
   399    H   36  py     Ryd( 2p)     0.00015
   400    H   36  pz     Ryd( 2p)     0.00015

   401    H   37  S      Val( 1S)     0.74332
   402    H   37  S      Ryd( 2S)     0.00099
   403    H   37  px     Ryd( 2p)     0.00015
   404    H   37  py     Ryd( 2p)     0.00032
   405    H   37  pz     Ryd( 2p)     0.00013

   406    H   38  S      Val( 1S)     0.75182
   407    H   38  S      Ryd( 2S)     0.00099
   408    H   38  px     Ryd( 2p)     0.00014
   409    H   38  py     Ryd( 2p)     0.00030
   410    H   38  pz     Ryd( 2p)     0.00018

 WARNING:  1 low occupancy (<1.9990e) core orbital  found on  C    2
           1 low occupancy (<1.9990e) core orbital  found on  C    4
           1 low occupancy (<1.9990e) core orbital  found on  C    5
           1 low occupancy (<1.9990e) core orbital  found on  C    7
           1 low occupancy (<1.9990e) core orbital  found on  C    8
           1 low occupancy (<1.9990e) core orbital  found on  C    9
           1 low occupancy (<1.9990e) core orbital  found on  C   11
           1 low occupancy (<1.9990e) core orbital  found on  C   12
           1 low occupancy (<1.9990e) core orbital  found on  C   14
           1 low occupancy (<1.9990e) core orbital  found on  C   17
           1 low occupancy (<1.9990e) core orbital  found on  C   21


 Summary of Natural Population Analysis:                  
                                                          
                                       Natural Population 
                Natural  -----------------------------------------------
    Atom  No    Charge         Core      Valence    Rydberg      Total
 -----------------------------------------------------------------------
      N    1   -0.75911      1.99949     5.74881    0.01081     7.75911
      C    2    0.17486      1.99898     3.80875    0.01741     5.82514
      C    3   -0.30023      1.99906     4.28557    0.01561     6.30023
      C    4   -0.30445      1.99900     4.28898    0.01647     6.30445
      C    5    0.31326      1.99870     3.66506    0.02298     5.68674
      O    6   -0.52305      1.99970     6.51195    0.01141     8.52305
      C    7    0.31697      1.99875     3.66214    0.02214     5.68303
      C    8   -0.37965      1.99895     4.36470    0.01599     6.37965
      C    9    0.31689      1.99875     3.66223    0.02214     5.68311
      O   10   -0.52284      1.99970     6.51174    0.01141     8.52284
      C   11    0.31516      1.99870     3.66316    0.02299     5.68484
      C   12   -0.30590      1.99900     4.29035    0.01656     6.30590
      C   13   -0.30031      1.99906     4.28557    0.01568     6.30031
      C   14    0.17522      1.99898     3.80838    0.01742     5.82478
      N   15   -0.75618      1.99949     5.74593    0.01077     7.75618
      C   16   -0.30054      1.99906     4.28579    0.01569     6.30054
      C   17   -0.30568      1.99900     4.29014    0.01654     6.30568
      C   18   -0.35079      1.99901     4.33949    0.01229     6.35079
      C   19   -0.25897      1.99914     4.24377    0.01607     6.25897
      C   20   -0.35085      1.99901     4.33956    0.01228     6.35085
      C   21   -0.30486      1.99900     4.28939    0.01648     6.30486
      C   22   -0.30000      1.99906     4.28534    0.01560     6.30000
      H   23    0.42647      0.00000     0.57098    0.00255     0.57353
      H   24    0.42650      0.00000     0.57095    0.00255     0.57350
      H   25    0.24654      0.00000     0.75185    0.00161     0.75346
      H   26    0.25505      0.00000     0.74335    0.00160     0.74495
      H   27    0.25296      0.00000     0.74489    0.00215     0.74704
      H   28    0.25507      0.00000     0.74333    0.00160     0.74493
      H   29    0.24658      0.00000     0.75181    0.00161     0.75342
      H   30    0.42680      0.00000     0.57065    0.00255     0.57320
      H   31    0.42685      0.00000     0.57060    0.00255     0.57315
      H   32    0.24657      0.00000     0.75182    0.00161     0.75343
      H   33    0.25507      0.00000     0.74334    0.00160     0.74493
      H   34    0.25129      0.00000     0.74727    0.00144     0.74871
      H   35    0.24235      0.00000     0.75628    0.00137     0.75765
      H   36    0.25130      0.00000     0.74726    0.00144     0.74870
      H   37    0.25508      0.00000     0.74332    0.00159     0.74492
      H   38    0.24657      0.00000     0.75182    0.00161     0.75343
 =======================================================================
   * Total *   -0.00000     43.97956   109.63631    0.38413   154.00000

                                 Natural Population      
 --------------------------------------------------------
   Core                      43.97956 ( 99.9535% of  44)
   Valence                  109.63631 ( 99.6694% of 110)
   Natural Minimal Basis    153.61587 ( 99.7506% of 154)
   Natural Rydberg Basis      0.38413 (  0.2494% of 154)
 --------------------------------------------------------

    Atom  No          Natural Electron Configuration
 ----------------------------------------------------------------------------
      N    1      [core]2S( 1.37)2p( 4.38)3p( 0.01)
      C    2      [core]2S( 0.85)2p( 2.96)3p( 0.01)
      C    3      [core]2S( 0.96)2p( 3.33)3p( 0.01)
      C    4      [core]2S( 0.96)2p( 3.32)3p( 0.01)
      C    5      [core]2S( 0.84)2p( 2.82)3p( 0.02)3d( 0.01)
      O    6      [core]2S( 1.57)2p( 4.94)3p( 0.01)3d( 0.01)
      C    7      [core]2S( 0.83)2p( 2.83)3p( 0.01)3d( 0.01)
      C    8      [core]2S( 0.96)2p( 3.41)3p( 0.01)
      C    9      [core]2S( 0.83)2p( 2.83)3p( 0.01)3d( 0.01)
      O   10      [core]2S( 1.57)2p( 4.94)3p( 0.01)3d( 0.01)
      C   11      [core]2S( 0.84)2p( 2.82)3p( 0.02)3d( 0.01)
      C   12      [core]2S( 0.96)2p( 3.33)3p( 0.01)
      C   13      [core]2S( 0.96)2p( 3.33)3p( 0.01)
      C   14      [core]2S( 0.85)2p( 2.96)3p( 0.01)
      N   15      [core]2S( 1.37)2p( 4.38)3p( 0.01)
      C   16      [core]2S( 0.96)2p( 3.33)3p( 0.01)
      C   17      [core]2S( 0.96)2p( 3.33)3p( 0.01)
      C   18      [core]2S( 0.96)2p( 3.38)3p( 0.01)
      C   19      [core]2S( 0.95)2p( 3.29)3p( 0.01)
      C   20      [core]2S( 0.96)2p( 3.38)3p( 0.01)
      C   21      [core]2S( 0.96)2p( 3.33)3p( 0.01)
      C   22      [core]2S( 0.96)2p( 3.33)3p( 0.01)
      H   23            1S( 0.57)
      H   24            1S( 0.57)
      H   25            1S( 0.75)
      H   26            1S( 0.74)
      H   27            1S( 0.74)
      H   28            1S( 0.74)
      H   29            1S( 0.75)
      H   30            1S( 0.57)
      H   31            1S( 0.57)
      H   32            1S( 0.75)
      H   33            1S( 0.74)
      H   34            1S( 0.75)
      H   35            1S( 0.76)
      H   36            1S( 0.75)
      H   37            1S( 0.74)
      H   38            1S( 0.75)


 NBO analysis skipped by request.
 1\1\GINC-DRG2-W014\SP\RB3LYP TD-FC\6-31G(d,p)\C18H16N2O2\QDUEZ\22-Jul-
 2024\0\\# TD(NStates=10, Root=1) B3LYP/6-31G** SCRF=(Solvent=water) vo
 lume pop=NPA density=current Geom=AllCheck Guess=Read\\WUPRYUDHUFLKFL-
 UHFFFAOYSA-N_conf_2\\0,1\N,0,-7.4624856429,0.619414265,0.8016429462\C,
 0,-6.1975103013,0.2632837573,0.332473199\C,0,-5.5272390363,1.064517075
 3,-0.6110279888\C,0,-4.2380703872,0.7447956456,-1.0307425985\C,0,-3.59
 73252129,-0.3813279097,-0.5152196411\O,0,-2.3421774541,-0.7499164763,-
 1.0022991919\C,0,-1.2067947722,-0.2861383495,-0.3745571332\C,0,0.00014
 1572,-0.7047070779,-0.9385799173\C,0,1.2067787177,-0.2868420346,-0.373
 6084179\O,0,2.3425976833,-0.7509789258,-1.0004553912\C,0,3.5976015705,
 -0.3840025071,-0.5115945179\C,0,4.2461917866,-1.198511869,0.4159723205
 \C,0,5.5351179575,-0.8809969627,0.8385109243\C,0,6.1976057638,0.256641
 1557,0.3398113418\N,0,7.4623866554,0.6105522818,0.8111179681\C,0,5.527
 0824404,1.0629409982,-0.5991801976\C,0,4.2380617328,0.7450691899,-1.02
 08526643\C,0,1.2197832188,0.5464896321,0.7513617544\C,0,-0.0003705434,
 0.9499250178,1.2949519644\C,0,-1.2203528404,0.547424931,0.7500802015\C
 ,0,-4.2456056579,-1.1907935111,0.4168956233\C,0,-5.5346196746,-0.87119
 29888,0.8377238499\H,0,-8.0118664678,-0.1494872371,1.1640175615\H,0,-8
 .0070336229,1.1861021563,0.1638681719\H,0,-6.0238183313,1.9408096921,-
 1.0183531846\H,0,-3.7294450238,1.3612512534,-1.7652415352\H,0,0.000314
 412,-1.3493592913,-1.8103132044\H,0,3.7441607823,-2.0825110887,0.79647
 38835\H,0,6.0372006226,-1.5195691273,1.5600497132\H,0,8.0116704998,-0.
 1599268111,1.1702051295\H,0,8.007204359,1.180478379,0.1764795806\H,0,6
 .023246892,1.9417323948,-1.0016478486\H,0,3.7293851801,1.3654894758,-1
 .7519534924\H,0,2.156318183,0.8690879049,1.1883428932\H,0,-0.000586752
 ,1.5962272329,2.1679235045\H,0,-2.1570189357,0.8709132157,1.1860857099
 \H,0,-3.7432638341,-2.072404473,0.8024607146\H,0,-6.0364765391,-1.5057
 480136,1.5629079689\\Version=ES64L-G16RevA.03\State=1-A\HF=-955.528324
 \RMSD=7.536e-09\Dipole=0.0435306,0.519313,0.672939\Quadrupole=66.67266
 48,-31.400282,-35.2723828,0.0255974,0.1276702,-6.4961936\PG=C01 [X(C18
 H16N2O2)]\\@


 ARTHROPOD AXIOM: A COMPUTER SYSTEM IS LIKE A SPIDER'S WEB.
 YOU CANNOT PULL ON ONE END WITHOUT MAKING THE OTHER END MOVE.
     -- GREG WETTSTEIN
 Job cpu time:       0 days  1 hours 11 minutes  5.4 seconds.
 Elapsed time:       0 days  0 hours 11 minutes 52.9 seconds.
 File lengths (MBytes):  RWF=   1380 Int=      0 D2E=      0 Chk=     84 Scr=      1
 Normal termination of Gaussian 16 at Mon Jul 22 19:03:23 2024.
