 Entering Gaussian System, Link 0=g16
 Initial command:
 /opt/sw/arch/manual/gaussian/G16_A03/g16/l1.exe "/scratch/1381412/Gau-192181.inp" -scrdir="/scratch/1381412/"
 Entering Link 1 = /opt/sw/arch/manual/gaussian/G16_A03/g16/l1.exe PID=    192182.
  
 Copyright (c) 1988,1990,1992,1993,1995,1998,2003,2009,2016,
            Gaussian, Inc.  All Rights Reserved.
  
 This is part of the Gaussian(R) 16 program.  It is based on
 the Gaussian(R) 09 system (copyright 2009, Gaussian, Inc.),
 the Gaussian(R) 03 system (copyright 2003, Gaussian, Inc.),
 the Gaussian(R) 98 system (copyright 1998, Gaussian, Inc.),
 the Gaussian(R) 94 system (copyright 1995, Gaussian, Inc.),
 the Gaussian 92(TM) system (copyright 1992, Gaussian, Inc.),
 the Gaussian 90(TM) system (copyright 1990, Gaussian, Inc.),
 the Gaussian 88(TM) system (copyright 1988, Gaussian, Inc.),
 the Gaussian 86(TM) system (copyright 1986, Carnegie Mellon
 University), and the Gaussian 82(TM) system (copyright 1983,
 Carnegie Mellon University). Gaussian is a federally registered
 trademark of Gaussian, Inc.
  
 This software contains proprietary and confidential information,
 including trade secrets, belonging to Gaussian, Inc.
  
 This software is provided under written license and may be
 used, copied, transmitted, or stored only in accord with that
 written license.
  
 The following legend is applicable only to US Government
 contracts under FAR:
  
                    RESTRICTED RIGHTS LEGEND
  
 Use, reproduction and disclosure by the US Government is
 subject to restrictions as set forth in subparagraphs (a)
 and (c) of the Commercial Computer Software - Restricted
 Rights clause in FAR 52.227-19.
  
 Gaussian, Inc.
 340 Quinnipiac St., Bldg. 40, Wallingford CT 06492
  
  
 ---------------------------------------------------------------
 Warning -- This program may not be used in any manner that
 competes with the business of Gaussian, Inc. or will provide
 assistance to any competitor of Gaussian, Inc.  The licensee
 of this program is prohibited from giving any competitor of
 Gaussian, Inc. access to this program.  By using this program,
 the user acknowledges that Gaussian, Inc. is engaged in the
 business of creating and licensing software in the field of
 computational chemistry and represents and warrants to the
 licensee that it is not a competitor of Gaussian, Inc. and that
 it will not use this program in any manner prohibited above.
 ---------------------------------------------------------------
  

 Cite this work as:
 Gaussian 16, Revision A.03,
 M. J. Frisch, G. W. Trucks, H. B. Schlegel, G. E. Scuseria, 
 M. A. Robb, J. R. Cheeseman, G. Scalmani, V. Barone, 
 G. A. Petersson, H. Nakatsuji, X. Li, M. Caricato, A. V. Marenich, 
 J. Bloino, B. G. Janesko, R. Gomperts, B. Mennucci, H. P. Hratchian, 
 J. V. Ortiz, A. F. Izmaylov, J. L. Sonnenberg, D. Williams-Young, 
 F. Ding, F. Lipparini, F. Egidi, J. Goings, B. Peng, A. Petrone, 
 T. Henderson, D. Ranasinghe, V. G. Zakrzewski, J. Gao, N. Rega, 
 G. Zheng, W. Liang, M. Hada, M. Ehara, K. Toyota, R. Fukuda, 
 J. Hasegawa, M. Ishida, T. Nakajima, Y. Honda, O. Kitao, H. Nakai, 
 T. Vreven, K. Throssell, J. A. Montgomery, Jr., J. E. Peralta, 
 F. Ogliaro, M. J. Bearpark, J. J. Heyd, E. N. Brothers, K. N. Kudin, 
 V. N. Staroverov, T. A. Keith, R. Kobayashi, J. Normand, 
 K. Raghavachari, A. P. Rendell, J. C. Burant, S. S. Iyengar, 
 J. Tomasi, M. Cossi, J. M. Millam, M. Klene, C. Adamo, R. Cammi, 
 J. W. Ochterski, R. L. Martin, K. Morokuma, O. Farkas, 
 J. B. Foresman, and D. J. Fox, Gaussian, Inc., Wallingford CT, 2016.
 
 ******************************************
 Gaussian 16:  ES64L-G16RevA.03 25-Dec-2016
                19-Jul-2024 
 ******************************************
 %nprocshared=6
 Will use up to    6 processors via shared memory.
 %mem=12GB
 %Chk=WUPRYUDHUFLKFL-UHFFFAOYSA-N_conf_3_0.chk
 -------------------------------------------------------
 # opt=CalcFc B3LYP/6-31G** SCRF=(Solvent=water) scf=xqc
 -------------------------------------------------------
 1/10=4,18=20,19=15,26=3,38=1/1,3;
 2/9=110,12=2,17=6,18=5,40=1/2;
 3/5=1,6=6,7=101,11=2,25=1,30=1,70=2201,71=2,72=1,74=-5,140=1/1,2,3;
 4//1;
 5/5=2,8=3,13=1,38=5,53=1/2,8;
 8/6=4,10=90,11=11/1;
 11/6=1,8=1,9=11,15=111,16=1/1,2,10;
 10/6=1,13=1/2;
 6/7=2,8=2,9=2,10=2,28=1/1;
 7/10=1,18=20,25=1/1,2,3,16;
 1/10=4,18=20,19=15,26=3/3(2);
 2/9=110/2;
 99//99;
 2/9=110/2;
 3/5=1,6=6,7=101,11=2,25=1,30=1,70=2205,71=1,72=1,74=-5/1,2,3;
 4/5=5,16=3,69=1/1;
 5/5=2,8=3,13=1,38=5,53=1/2,8;
 7//1,2,3,16;
 1/18=20,19=15,26=3/3(-5);
 2/9=110/2;
 6/7=2,8=2,9=2,10=2,19=2,28=1/1;
 99/9=1/99;
 ----------------------------------
 WUPRYUDHUFLKFL-UHFFFAOYSA-N_conf_3
 ----------------------------------
 Symbolic Z-matrix:
 Charge =  0 Multiplicity = 1
 N                     7.36958  -0.04404  -0.58643 
 C                     6.06259  -0.39668  -0.23117 
 C                     5.70278  -0.49824   1.11577 
 C                     4.37499  -0.73156   1.48366 
 C                     3.38663  -0.8056    0.50472 
 O                     2.10357  -1.06598   0.92749 
 C                     1.09494  -0.29197   0.39927 
 C                    -0.05952  -0.95499  -0.01528 
 C                    -1.13388  -0.22051  -0.51563 
 O                    -2.22844  -0.93142  -0.95314 
 C                    -3.46802  -0.49113  -0.54959 
 C                    -4.47451  -0.46138  -1.51216 
 C                    -5.76479  -0.05723  -1.15845 
 C                    -6.05345   0.34536   0.14862 
 N                    -7.37084   0.63473   0.5216 
 C                    -5.05566   0.23288   1.12123 
 C                    -3.7624   -0.17048   0.77589 
 C                    -1.0486    1.17077  -0.62457 
 C                     0.09982   1.83233  -0.18711 
 C                     1.16863   1.10298   0.33628 
 C                     3.72613  -0.67145  -0.84183 
 C                     5.05673  -0.43823  -1.20123 
 H                     7.61764  -0.29655  -1.53792 
 H                     8.07079  -0.33992   0.08535 
 H                     6.45612  -0.40117   1.89273 
 H                     4.11179  -0.83573   2.53232 
 H                    -0.12174  -2.03703   0.05131 
 H                    -4.2601   -0.7613   -2.53388 
 H                    -6.54517  -0.06337  -1.91452 
 H                    -7.9427    0.99511  -0.23564 
 H                    -7.44523   1.19756   1.3631 
 H                    -5.27812   0.45346   2.16176 
 H                    -3.00283  -0.25061   1.54817 
 H                    -1.87036   1.74337  -1.04601 
 H                     0.1624    2.91538  -0.25421 
 H                     2.05312   1.62663   0.68933 
 H                     2.96648  -0.73801  -1.61526 
 H                     5.30164  -0.29596  -2.25031 
 

 GradGradGradGradGradGradGradGradGradGradGradGradGradGradGradGradGradGrad
 Berny optimization.
 Initialization pass.
                           ----------------------------
                           !    Initial Parameters    !
                           ! (Angstroms and Degrees)  !
 --------------------------                            --------------------------
 ! Name  Definition              Value          Derivative Info.                !
 --------------------------------------------------------------------------------
 ! R1    R(1,2)                  1.3996         calculate D2E/DX2 analytically  !
 ! R2    R(1,23)                 1.0152         calculate D2E/DX2 analytically  !
 ! R3    R(1,24)                 1.0152         calculate D2E/DX2 analytically  !
 ! R4    R(2,3)                  1.3979         calculate D2E/DX2 analytically  !
 ! R5    R(2,22)                 1.398          calculate D2E/DX2 analytically  !
 ! R6    R(3,4)                  1.3974         calculate D2E/DX2 analytically  !
 ! R7    R(3,25)                 1.0866         calculate D2E/DX2 analytically  !
 ! R8    R(4,5)                  1.3931         calculate D2E/DX2 analytically  !
 ! R9    R(4,26)                 1.0862         calculate D2E/DX2 analytically  !
 ! R10   R(5,6)                  1.3758         calculate D2E/DX2 analytically  !
 ! R11   R(5,21)                 1.3951         calculate D2E/DX2 analytically  !
 ! R12   R(6,7)                  1.3768         calculate D2E/DX2 analytically  !
 ! R13   R(7,8)                  1.3944         calculate D2E/DX2 analytically  !
 ! R14   R(7,20)                 1.3983         calculate D2E/DX2 analytically  !
 ! R15   R(8,9)                  1.3943         calculate D2E/DX2 analytically  !
 ! R16   R(8,27)                 1.0859         calculate D2E/DX2 analytically  !
 ! R17   R(9,10)                 1.3765         calculate D2E/DX2 analytically  !
 ! R18   R(9,18)                 1.3981         calculate D2E/DX2 analytically  !
 ! R19   R(10,11)                1.376          calculate D2E/DX2 analytically  !
 ! R20   R(11,12)                1.393          calculate D2E/DX2 analytically  !
 ! R21   R(11,17)                1.3951         calculate D2E/DX2 analytically  !
 ! R22   R(12,13)                1.3976         calculate D2E/DX2 analytically  !
 ! R23   R(12,28)                1.0862         calculate D2E/DX2 analytically  !
 ! R24   R(13,14)                1.3978         calculate D2E/DX2 analytically  !
 ! R25   R(13,29)                1.0866         calculate D2E/DX2 analytically  !
 ! R26   R(14,15)                1.3994         calculate D2E/DX2 analytically  !
 ! R27   R(14,16)                1.3979         calculate D2E/DX2 analytically  !
 ! R28   R(15,30)                1.015          calculate D2E/DX2 analytically  !
 ! R29   R(15,31)                1.0151         calculate D2E/DX2 analytically  !
 ! R30   R(16,17)                1.398          calculate D2E/DX2 analytically  !
 ! R31   R(16,32)                1.0867         calculate D2E/DX2 analytically  !
 ! R32   R(17,33)                1.0862         calculate D2E/DX2 analytically  !
 ! R33   R(18,19)                1.3957         calculate D2E/DX2 analytically  !
 ! R34   R(18,34)                1.0866         calculate D2E/DX2 analytically  !
 ! R35   R(19,20)                1.3958         calculate D2E/DX2 analytically  !
 ! R36   R(19,35)                1.0869         calculate D2E/DX2 analytically  !
 ! R37   R(20,36)                1.0868         calculate D2E/DX2 analytically  !
 ! R38   R(21,22)                1.3979         calculate D2E/DX2 analytically  !
 ! R39   R(21,37)                1.0861         calculate D2E/DX2 analytically  !
 ! R40   R(22,38)                1.0866         calculate D2E/DX2 analytically  !
 ! A1    A(2,1,23)             113.7921         calculate D2E/DX2 analytically  !
 ! A2    A(2,1,24)             113.8054         calculate D2E/DX2 analytically  !
 ! A3    A(23,1,24)            112.2688         calculate D2E/DX2 analytically  !
 ! A4    A(1,2,3)              120.2166         calculate D2E/DX2 analytically  !
 ! A5    A(1,2,22)             120.2152         calculate D2E/DX2 analytically  !
 ! A6    A(3,2,22)             118.7665         calculate D2E/DX2 analytically  !
 ! A7    A(2,3,4)              120.6889         calculate D2E/DX2 analytically  !
 ! A8    A(2,3,25)             120.2695         calculate D2E/DX2 analytically  !
 ! A9    A(4,3,25)             119.041          calculate D2E/DX2 analytically  !
 ! A10   A(3,4,5)              119.8675         calculate D2E/DX2 analytically  !
 ! A11   A(3,4,26)             120.0276         calculate D2E/DX2 analytically  !
 ! A12   A(5,4,26)             120.0943         calculate D2E/DX2 analytically  !
 ! A13   A(4,5,6)              117.115          calculate D2E/DX2 analytically  !
 ! A14   A(4,5,21)             120.0318         calculate D2E/DX2 analytically  !
 ! A15   A(6,5,21)             122.8017         calculate D2E/DX2 analytically  !
 ! A16   A(5,6,7)              117.3183         calculate D2E/DX2 analytically  !
 ! A17   A(6,7,8)              116.9561         calculate D2E/DX2 analytically  !
 ! A18   A(6,7,20)             122.6509         calculate D2E/DX2 analytically  !
 ! A19   A(8,7,20)             120.3052         calculate D2E/DX2 analytically  !
 ! A20   A(7,8,9)              119.6152         calculate D2E/DX2 analytically  !
 ! A21   A(7,8,27)             120.2013         calculate D2E/DX2 analytically  !
 ! A22   A(9,8,27)             120.1836         calculate D2E/DX2 analytically  !
 ! A23   A(8,9,10)             117.0456         calculate D2E/DX2 analytically  !
 ! A24   A(8,9,18)             120.3417         calculate D2E/DX2 analytically  !
 ! A25   A(10,9,18)            122.5234         calculate D2E/DX2 analytically  !
 ! A26   A(9,10,11)            117.2497         calculate D2E/DX2 analytically  !
 ! A27   A(10,11,12)           117.0707         calculate D2E/DX2 analytically  !
 ! A28   A(10,11,17)           122.8395         calculate D2E/DX2 analytically  !
 ! A29   A(12,11,17)           119.943          calculate D2E/DX2 analytically  !
 ! A30   A(11,12,13)           119.8906         calculate D2E/DX2 analytically  !
 ! A31   A(11,12,28)           120.097          calculate D2E/DX2 analytically  !
 ! A32   A(13,12,28)           120.0095         calculate D2E/DX2 analytically  !
 ! A33   A(12,13,14)           120.7039         calculate D2E/DX2 analytically  !
 ! A34   A(12,13,29)           119.0331         calculate D2E/DX2 analytically  !
 ! A35   A(14,13,29)           120.2626         calculate D2E/DX2 analytically  !
 ! A36   A(13,14,15)           120.2113         calculate D2E/DX2 analytically  !
 ! A37   A(13,14,16)           118.6862         calculate D2E/DX2 analytically  !
 ! A38   A(15,14,16)           120.2075         calculate D2E/DX2 analytically  !
 ! A39   A(14,15,30)           113.8875         calculate D2E/DX2 analytically  !
 ! A40   A(14,15,31)           113.8651         calculate D2E/DX2 analytically  !
 ! A41   A(30,15,31)           112.3517         calculate D2E/DX2 analytically  !
 ! A42   A(14,16,17)           120.7725         calculate D2E/DX2 analytically  !
 ! A43   A(14,16,32)           120.2483         calculate D2E/DX2 analytically  !
 ! A44   A(17,16,32)           118.9782         calculate D2E/DX2 analytically  !
 ! A45   A(11,17,16)           119.7488         calculate D2E/DX2 analytically  !
 ! A46   A(11,17,33)           120.7295         calculate D2E/DX2 analytically  !
 ! A47   A(16,17,33)           119.5091         calculate D2E/DX2 analytically  !
 ! A48   A(9,18,19)            119.8312         calculate D2E/DX2 analytically  !
 ! A49   A(9,18,34)            120.5614         calculate D2E/DX2 analytically  !
 ! A50   A(19,18,34)           119.6073         calculate D2E/DX2 analytically  !
 ! A51   A(18,19,20)           119.9953         calculate D2E/DX2 analytically  !
 ! A52   A(18,19,35)           120.0228         calculate D2E/DX2 analytically  !
 ! A53   A(20,19,35)           119.9818         calculate D2E/DX2 analytically  !
 ! A54   A(7,20,19)            119.8552         calculate D2E/DX2 analytically  !
 ! A55   A(7,20,36)            120.5916         calculate D2E/DX2 analytically  !
 ! A56   A(19,20,36)           119.553          calculate D2E/DX2 analytically  !
 ! A57   A(5,21,22)            119.7239         calculate D2E/DX2 analytically  !
 ! A58   A(5,21,37)            120.7439         calculate D2E/DX2 analytically  !
 ! A59   A(22,21,37)           119.5302         calculate D2E/DX2 analytically  !
 ! A60   A(2,22,21)            120.7584         calculate D2E/DX2 analytically  !
 ! A61   A(2,22,38)            120.2542         calculate D2E/DX2 analytically  !
 ! A62   A(21,22,38)           118.9861         calculate D2E/DX2 analytically  !
 ! D1    D(23,1,2,3)           160.4042         calculate D2E/DX2 analytically  !
 ! D2    D(23,1,2,22)          -29.9753         calculate D2E/DX2 analytically  !
 ! D3    D(24,1,2,3)            30.076          calculate D2E/DX2 analytically  !
 ! D4    D(24,1,2,22)         -160.3035         calculate D2E/DX2 analytically  !
 ! D5    D(1,2,3,4)            174.2369         calculate D2E/DX2 analytically  !
 ! D6    D(1,2,3,25)            -6.0655         calculate D2E/DX2 analytically  !
 ! D7    D(22,2,3,4)             4.4675         calculate D2E/DX2 analytically  !
 ! D8    D(22,2,3,25)         -175.8349         calculate D2E/DX2 analytically  !
 ! D9    D(1,2,22,21)         -174.2422         calculate D2E/DX2 analytically  !
 ! D10   D(1,2,22,38)            6.197          calculate D2E/DX2 analytically  !
 ! D11   D(3,2,22,21)           -4.4725         calculate D2E/DX2 analytically  !
 ! D12   D(3,2,22,38)          175.9666         calculate D2E/DX2 analytically  !
 ! D13   D(2,3,4,5)             -2.8602         calculate D2E/DX2 analytically  !
 ! D14   D(2,3,4,26)           178.3217         calculate D2E/DX2 analytically  !
 ! D15   D(25,3,4,5)           177.4385         calculate D2E/DX2 analytically  !
 ! D16   D(25,3,4,26)           -1.3796         calculate D2E/DX2 analytically  !
 ! D17   D(3,4,5,6)            178.6366         calculate D2E/DX2 analytically  !
 ! D18   D(3,4,5,21)             1.1747         calculate D2E/DX2 analytically  !
 ! D19   D(26,4,5,6)            -2.546          calculate D2E/DX2 analytically  !
 ! D20   D(26,4,5,21)          179.992          calculate D2E/DX2 analytically  !
 ! D21   D(4,5,6,7)            134.0997         calculate D2E/DX2 analytically  !
 ! D22   D(21,5,6,7)           -48.5144         calculate D2E/DX2 analytically  !
 ! D23   D(4,5,21,22)           -1.1748         calculate D2E/DX2 analytically  !
 ! D24   D(4,5,21,37)          179.3314         calculate D2E/DX2 analytically  !
 ! D25   D(6,5,21,22)         -178.4871         calculate D2E/DX2 analytically  !
 ! D26   D(6,5,21,37)            2.0192         calculate D2E/DX2 analytically  !
 ! D27   D(5,6,7,8)            135.2831         calculate D2E/DX2 analytically  !
 ! D28   D(5,6,7,20)           -48.1186         calculate D2E/DX2 analytically  !
 ! D29   D(6,7,8,9)            177.7875         calculate D2E/DX2 analytically  !
 ! D30   D(6,7,8,27)            -2.1994         calculate D2E/DX2 analytically  !
 ! D31   D(20,7,8,9)             1.1049         calculate D2E/DX2 analytically  !
 ! D32   D(20,7,8,27)         -178.882          calculate D2E/DX2 analytically  !
 ! D33   D(6,7,20,19)         -178.7178         calculate D2E/DX2 analytically  !
 ! D34   D(6,7,20,36)            1.4389         calculate D2E/DX2 analytically  !
 ! D35   D(8,7,20,19)           -2.23           calculate D2E/DX2 analytically  !
 ! D36   D(8,7,20,36)          177.9268         calculate D2E/DX2 analytically  !
 ! D37   D(7,8,9,10)           177.78           calculate D2E/DX2 analytically  !
 ! D38   D(7,8,9,18)             1.1296         calculate D2E/DX2 analytically  !
 ! D39   D(27,8,9,10)           -2.2331         calculate D2E/DX2 analytically  !
 ! D40   D(27,8,9,18)         -178.8834         calculate D2E/DX2 analytically  !
 ! D41   D(8,9,10,11)          133.925          calculate D2E/DX2 analytically  !
 ! D42   D(18,9,10,11)         -49.5036         calculate D2E/DX2 analytically  !
 ! D43   D(8,9,18,19)           -2.2333         calculate D2E/DX2 analytically  !
 ! D44   D(8,9,18,34)          177.8673         calculate D2E/DX2 analytically  !
 ! D45   D(10,9,18,19)        -178.6948         calculate D2E/DX2 analytically  !
 ! D46   D(10,9,18,34)           1.4057         calculate D2E/DX2 analytically  !
 ! D47   D(9,10,11,12)         136.5551         calculate D2E/DX2 analytically  !
 ! D48   D(9,10,11,17)         -47.8587         calculate D2E/DX2 analytically  !
 ! D49   D(10,11,12,13)        178.3475         calculate D2E/DX2 analytically  !
 ! D50   D(10,11,12,28)         -1.0309         calculate D2E/DX2 analytically  !
 ! D51   D(17,11,12,13)          2.6269         calculate D2E/DX2 analytically  !
 ! D52   D(17,11,12,28)       -176.7515         calculate D2E/DX2 analytically  !
 ! D53   D(10,11,17,16)       -178.0954         calculate D2E/DX2 analytically  !
 ! D54   D(10,11,17,33)          0.6086         calculate D2E/DX2 analytically  !
 ! D55   D(12,11,17,16)         -2.6313         calculate D2E/DX2 analytically  !
 ! D56   D(12,11,17,33)        176.0727         calculate D2E/DX2 analytically  !
 ! D57   D(11,12,13,14)          1.3131         calculate D2E/DX2 analytically  !
 ! D58   D(11,12,13,29)       -178.4607         calculate D2E/DX2 analytically  !
 ! D59   D(28,12,13,14)       -179.308          calculate D2E/DX2 analytically  !
 ! D60   D(28,12,13,29)          0.9182         calculate D2E/DX2 analytically  !
 ! D61   D(12,13,14,15)       -174.3473         calculate D2E/DX2 analytically  !
 ! D62   D(12,13,14,16)         -5.1514         calculate D2E/DX2 analytically  !
 ! D63   D(29,13,14,15)          5.4238         calculate D2E/DX2 analytically  !
 ! D64   D(29,13,14,16)        174.6196         calculate D2E/DX2 analytically  !
 ! D65   D(13,14,15,30)        -30.222          calculate D2E/DX2 analytically  !
 ! D66   D(13,14,15,31)       -160.8191         calculate D2E/DX2 analytically  !
 ! D67   D(16,14,15,30)        160.7474         calculate D2E/DX2 analytically  !
 ! D68   D(16,14,15,31)         30.1503         calculate D2E/DX2 analytically  !
 ! D69   D(13,14,16,17)          5.1468         calculate D2E/DX2 analytically  !
 ! D70   D(13,14,16,32)       -174.4934         calculate D2E/DX2 analytically  !
 ! D71   D(15,14,16,17)        174.3431         calculate D2E/DX2 analytically  !
 ! D72   D(15,14,16,32)         -5.2971         calculate D2E/DX2 analytically  !
 ! D73   D(14,16,17,11)         -1.3021         calculate D2E/DX2 analytically  !
 ! D74   D(14,16,17,33)        179.978          calculate D2E/DX2 analytically  !
 ! D75   D(32,16,17,11)        178.3426         calculate D2E/DX2 analytically  !
 ! D76   D(32,16,17,33)         -0.3773         calculate D2E/DX2 analytically  !
 ! D77   D(9,18,19,20)           1.0992         calculate D2E/DX2 analytically  !
 ! D78   D(9,18,19,35)        -178.9251         calculate D2E/DX2 analytically  !
 ! D79   D(34,18,19,20)       -179.0004         calculate D2E/DX2 analytically  !
 ! D80   D(34,18,19,35)          0.9754         calculate D2E/DX2 analytically  !
 ! D81   D(18,19,20,7)           1.118          calculate D2E/DX2 analytically  !
 ! D82   D(18,19,20,36)       -179.0372         calculate D2E/DX2 analytically  !
 ! D83   D(35,19,20,7)        -178.8578         calculate D2E/DX2 analytically  !
 ! D84   D(35,19,20,36)          0.9871         calculate D2E/DX2 analytically  !
 ! D85   D(5,21,22,2)            2.8636         calculate D2E/DX2 analytically  !
 ! D86   D(5,21,22,38)        -177.5701         calculate D2E/DX2 analytically  !
 ! D87   D(37,21,22,2)        -177.6365         calculate D2E/DX2 analytically  !
 ! D88   D(37,21,22,38)          1.9299         calculate D2E/DX2 analytically  !
 --------------------------------------------------------------------------------
 Trust Radius=3.00D-01 FncErr=1.00D-07 GrdErr=1.00D-06 EigMax=2.50D+02 EigMin=1.00D-04
 Number of steps in this run=    200 maximum allowed number of steps=    228.
 GradGradGradGradGradGradGradGradGradGradGradGradGradGradGradGradGradGrad

                          Input orientation:                          
 ---------------------------------------------------------------------
 Center     Atomic      Atomic             Coordinates (Angstroms)
 Number     Number       Type             X           Y           Z
 ---------------------------------------------------------------------
      1          7           0        7.369578   -0.044037   -0.586435
      2          6           0        6.062591   -0.396681   -0.231171
      3          6           0        5.702782   -0.498236    1.115767
      4          6           0        4.374989   -0.731562    1.483661
      5          6           0        3.386626   -0.805597    0.504717
      6          8           0        2.103572   -1.065981    0.927490
      7          6           0        1.094937   -0.291968    0.399266
      8          6           0       -0.059519   -0.954992   -0.015279
      9          6           0       -1.133878   -0.220511   -0.515632
     10          8           0       -2.228436   -0.931419   -0.953138
     11          6           0       -3.468015   -0.491133   -0.549587
     12          6           0       -4.474507   -0.461385   -1.512161
     13          6           0       -5.764790   -0.057231   -1.158450
     14          6           0       -6.053453    0.345360    0.148624
     15          7           0       -7.370840    0.634728    0.521605
     16          6           0       -5.055655    0.232883    1.121230
     17          6           0       -3.762404   -0.170480    0.775894
     18          6           0       -1.048605    1.170768   -0.624571
     19          6           0        0.099816    1.832329   -0.187113
     20          6           0        1.168631    1.102978    0.336280
     21          6           0        3.726125   -0.671449   -0.841826
     22          6           0        5.056730   -0.438234   -1.201228
     23          1           0        7.617635   -0.296548   -1.537920
     24          1           0        8.070792   -0.339921    0.085354
     25          1           0        6.456120   -0.401170    1.892735
     26          1           0        4.111791   -0.835735    2.532321
     27          1           0       -0.121738   -2.037025    0.051309
     28          1           0       -4.260099   -0.761304   -2.533882
     29          1           0       -6.545171   -0.063366   -1.914515
     30          1           0       -7.942697    0.995111   -0.235636
     31          1           0       -7.445231    1.197556    1.363097
     32          1           0       -5.278123    0.453460    2.161765
     33          1           0       -3.002827   -0.250611    1.548166
     34          1           0       -1.870365    1.743372   -1.046009
     35          1           0        0.162397    2.915379   -0.254207
     36          1           0        2.053123    1.626627    0.689333
     37          1           0        2.966477   -0.738013   -1.615265
     38          1           0        5.301641   -0.295961   -2.250311
 ---------------------------------------------------------------------
                    Distance matrix (angstroms):
                    1          2          3          4          5
     1  N    0.000000
     2  C    1.399566   0.000000
     3  C    2.425283   1.397862   0.000000
     4  C    3.704801   2.429155   1.397434   0.000000
     5  C    4.199344   2.805269   2.415043   1.393081   0.000000
     6  O    5.573792   4.179030   3.648575   2.362308   1.375778
     7  C    6.356429   5.008593   4.667778   3.482513   2.350909
     8  C    7.506500   6.151306   5.889992   4.686321   3.488357
     9  C    8.505582   7.204244   7.034097   5.882683   4.671016
    10  O    9.645921   8.339564   8.208059   7.041531   5.802594
    11  C   10.846874   9.536392   9.320782   8.105839   6.942374
    12  C   11.887536  10.614875  10.511165   9.346739   8.123035
    13  C   13.146825  11.868531  11.699220  10.500028   9.331377
    14  C   13.448781  12.144686  11.826077  10.568561   9.516649
    15  N   14.797581  13.493982  13.136066  11.864097  10.853474
    16  C   12.545088  11.217876  10.783252   9.486757   8.528226
    17  C   11.215746   9.879063   9.476955   8.187363   7.182308
    18  C    8.505469   7.292515   7.169071   6.121999   4.985236
    19  C    7.518620   6.365934   6.206630   5.257578   4.270878
    20  C    6.373287   5.149934   4.871346   3.868172   2.930961
    21  C    3.705890   2.430529   2.787355   2.415063   1.395147
    22  C    2.425413   1.398032   2.406128   2.785577   2.415460
    23  H    1.015194   2.033662   3.278627   4.453532   4.725774
    24  H    1.015159   2.033784   2.587332   3.970844   4.725900
    25  H    2.666126   2.160060   1.086563   2.146534   3.392926
    26  H    4.578930   3.411052   2.156799   1.086192   2.153590
    27  H    7.778080   6.404409   6.117677   4.896572   3.745746
    28  H   11.813399  10.582691  10.613583   9.523984   8.228453
    29  H   13.977997  12.724009  12.624740  11.456176  10.249106
    30  H   15.351503  14.074274  13.793312  12.556383  11.495400
    31  H   14.994026  13.694691  13.259228  11.977213  11.048917
    32  H   12.952392  11.621561  11.071590   9.749188   8.911167
    33  H   10.591788   9.239545   8.719857   7.393757   6.497838
    34  H    9.422451   8.256850   8.188445   7.178368   6.044662
    35  H    7.798204   6.766281   6.650223   5.836634   4.981694
    36  H    5.716940   4.584423   4.244632   3.403391   2.779933
    37  H    4.574647   3.408541   3.873422   3.404011   2.162271
    38  H    2.666142   2.160120   3.395926   3.871819   3.393699
                    6          7          8          9         10
     6  O    0.000000
     7  C    1.376758   0.000000
     8  C    2.362222   1.394352   0.000000
     9  C    3.643968   2.410345   1.394297   0.000000
    10  O    4.724528   3.644544   2.363120   1.376539   0.000000
    11  C    5.792650   4.664818   3.481163   2.350018   1.375958
    12  C    7.041914   5.890753   4.687902   3.494409   2.361837
    13  C    8.202429   7.038284   5.887523   4.678164   3.648582
    14  C    8.314780   7.181121   6.135554   4.996365   4.180287
    15  N    9.634398   8.517224   7.501391   6.380203   5.574226
    16  C    7.278675   6.215021   5.259665   4.273782   3.694830
    17  C    5.935872   4.873435   3.866881   2.929111   2.433442
    18  C    4.165112   2.789733   2.422475   1.398140   2.432930
    19  C    3.695616   2.418004   2.797155   2.417453   3.694029
    20  C    2.434754   1.398311   2.422228   2.789073   4.164305
    21  C    2.432862   2.933848   3.885188   4.891767   5.961273
    22  C    3.694137   4.275368   5.277264   6.232260   7.306054
    23  H    6.088938   6.804285   7.854342   8.811347   9.883833
    24  H    6.069932   6.983079   8.154164   9.225041  10.368338
    25  H    4.507588   5.566386   6.811813   7.964982   9.154325
    26  H    2.580977   3.734570   4.889204   6.097997   7.235749
    27  H    2.581205   2.155597   1.085864   2.155359   2.582529
    28  H    7.250533   6.123727   4.901606   3.760192   2.579795
    29  H    9.158765   7.986056   6.816581   5.591391   4.506879
    30  H   10.321263   9.150874   8.123789   6.922149   6.072816
    31  H    9.823085   8.722507   7.815506   6.736001   6.091997
    32  H    7.636855   6.654169   5.827270   4.979704   4.573959
    33  H    5.208203   4.255978   3.406402   2.784445   2.705495
    34  H    5.251603   3.876137   3.409213   2.163458   2.700249
    35  H    4.584299   3.403488   3.884083   3.403304   4.582842
    36  H    2.703591   2.164085   3.409471   3.875672   5.251005
    37  H    2.705138   2.785668   3.429823   4.276670   5.240509
    38  H    4.573729   4.971583   5.845659   6.665637   7.667368
                   11         12         13         14         15
    11  C    0.000000
    12  C    1.393004   0.000000
    13  C    2.415400   1.397598   0.000000
    14  C    2.805657   2.429427   1.397802   0.000000
    15  N    4.200840   3.704917   2.425034   1.399413   0.000000
    16  C    2.415870   2.784688   2.404990   1.397932   2.425100
    17  C    1.395129   2.413900   2.786407   2.430733   3.705918
    18  C    2.936168   3.897249   4.902592   5.131047   6.447613
    19  C    4.273088   5.285954   6.237590   6.339284   7.599159
    20  C    4.982413   6.140764   7.186977   7.264138   8.554307
    21  C    7.202331   8.230665   9.516038   9.882057  11.256450
    22  C    8.549778   9.536336  10.828309  11.219282  12.592215
    23  H   11.131321  12.093294  13.389943  13.789675  15.157945
    24  H   11.557252  12.647187  13.894253  14.141001  15.478509
    25  H   10.220641  11.448824  12.600741  12.652615  13.933338
    26  H    8.189650   9.498552  10.572356  10.507577  11.749726
    27  H    3.734760   4.886071   6.101405   6.393002   7.740086
    28  H    2.153558   1.086203   2.156763   3.411256   4.578386
    29  H    3.393361   2.146614   1.086585   2.159951   2.665285
    30  H    4.725490   3.972308   2.588878   2.034471   1.015041
    31  H    4.725281   4.454705   3.279721   2.034263   1.015095
    32  H    3.394138   3.870461   3.394330   2.159990   2.665042
    33  H    2.162133   3.402333   3.871899   3.408844   4.573531
    34  H    2.791404   3.443808   4.292012   4.569444   5.825953
    35  H    4.987129   5.872466   6.692205   6.738254   7.909039
    36  H    6.041754   7.198356   8.207889   8.224998   9.477503
    37  H    6.526814   7.446838   8.769673   9.254412  10.644752
    38  H    8.935179   9.805372  11.122727  11.623440  13.005440
                   16         17         18         19         20
    16  C    0.000000
    17  C    1.398019   0.000000
    18  C    4.470336   3.335409   0.000000
    19  C    5.554176   4.455936   1.395673   0.000000
    20  C    6.333637   5.111758   2.417430   1.395801   0.000000
    21  C    9.043842   7.677634   5.122403   4.455073   3.328258
    22  C   10.397333   9.042003   6.340073   5.545708   4.456072
    23  H   12.960080  11.613567   8.836908   7.929338   6.860099
    24  H   13.179710  11.854538   9.270899   8.266158   7.055830
    25  H   11.555008  10.281964   8.070236   7.051020   5.713366
    26  H    9.336766   8.095094   6.373516   5.532615   4.152517
    27  H    5.535409   4.154933   3.406733   3.883019   3.406741
    28  H    3.870550   3.398734   4.206193   5.589554   6.417514
    29  H    3.394432   3.872153   5.779211   7.122740   8.119678
    30  H    3.279799   4.456079   6.907288   8.086117   9.129897
    31  H    2.588275   3.972348   6.698386   7.728766   8.675363
    32  H    1.086674   2.146472   5.115371   6.028328   6.731635
    33  H    2.151777   1.086178   3.249629   4.120221   4.549938
    34  H    4.138185   3.249919   1.086635   2.151099   3.399459
    35  H    6.026249   5.097813   2.155774   1.086929   2.155453
    36  H    7.256982   6.087482   3.399245   2.150786   1.086821
    37  H    8.531450   7.163628   4.554755   4.106582   3.229554
    38  H   10.905070   9.556704   6.717138   5.987102   5.072401
                   21         22         23         24         25
    21  C    0.000000
    22  C    1.397879   0.000000
    23  H    3.971013   2.586827   0.000000
    24  H    4.454851   3.278647   1.685898   0.000000
    25  H    3.873467   3.395920   3.623459   2.424364   0.000000
    26  H    3.400088   3.871731   5.398938   4.680509   2.468562
    27  H    4.179538   5.562509   8.090291   8.366532   7.023894
    28  H    8.164000   9.417199  11.928474  12.613042  11.600085
    29  H   10.345044  11.629849  14.169731  14.754739  13.551488
    30  H   11.802809  13.113807  15.668065  16.072248  14.622089
    31  H   11.539241  12.866647  15.412274  15.644278  14.003000
    32  H    9.558424  10.904770  13.436918  13.532718  11.768400
    33  H    7.153179   8.517677  11.059849  11.170176   9.466418
    34  H    6.098668   7.264168   9.717273  10.219916   9.086563
    35  H    5.090264   6.008166   8.218575   8.558913   7.431003
    36  H    3.228705   4.106035   6.294685   6.359594   4.994649
    37  H    1.086142   2.151849   4.672703   5.394869   4.959550
    38  H    2.146409   1.086646   2.423083   3.622907   4.302176
                   26         27         28         29         30
    26  H    0.000000
    27  H    5.051860   0.000000
    28  H    9.785729   5.043482   0.000000
    29  H   11.573320   7.001449   2.468256   0.000000
    30  H   12.502970   8.393067   4.682783   2.427362   0.000000
    31  H   11.792630   8.112759   5.400800   3.625296   1.686535
    32  H    9.485242   6.102856   4.955918   4.299835   3.625033
    33  H    7.206158   3.705743   4.301703   4.957158   5.397785
    34  H    7.432525   4.307343   3.768023   5.086494   6.171695
    35  H    6.118276   4.969947   6.186548   7.524693   8.329485
    36  H    3.701073   4.308067   7.479846   9.141485  10.058369
    37  H    4.303924   3.741921   7.284764   9.540238  11.131808
    38  H    4.957890   6.143436   9.577256  11.853852  13.458762
                   31         32         33         34         35
    31  H    0.000000
    32  H    2.426501   0.000000
    33  H    4.676152   2.459510   0.000000
    34  H    6.097610   4.854534   3.462395   0.000000
    35  H    7.965086   6.441834   4.826042   2.476422   0.000000
    36  H    9.531883   7.569118   5.461158   4.291712   2.475075
    37  H   11.000942   9.146528   6.773288   5.465927   4.802355
    38  H   13.333044  11.487361   9.132069   7.552939   6.380358
                   36         37         38
    36  H    0.000000
    37  H    3.425917   0.000000
    38  H    4.784425   2.460018   0.000000
 Stoichiometry    C18H16N2O2
 Framework group  C1[X(C18H16N2O2)]
 Deg. of freedom   108
 Full point group                 C1      NOp   1
 Largest Abelian subgroup         C1      NOp   1
 Largest concise Abelian subgroup C1      NOp   1
                         Standard orientation:                         
 ---------------------------------------------------------------------
 Center     Atomic      Atomic             Coordinates (Angstroms)
 Number     Number       Type             X           Y           Z
 ---------------------------------------------------------------------
      1          7           0       -7.357399   -0.617665    0.497869
      2          6           0       -6.075974   -0.272415    0.053419
      3          6           0       -5.742447    1.068393   -0.158738
      4          6           0       -4.434263    1.434720   -0.486274
      5          6           0       -3.436269    0.464560   -0.545213
      6          8           0       -2.174994    0.883244   -0.901099
      7          6           0       -1.119730    0.421471   -0.147013
      8          6           0        0.005042   -0.024397   -0.840056
      9          6           0        1.123464   -0.460331   -0.130722
     10          8           0        2.186296   -0.933106   -0.866745
     11          6           0        3.440714   -0.485739   -0.520970
     12          6           0        4.461932   -1.432194   -0.478586
     13          6           0        5.765868   -1.036449   -0.168074
     14          6           0        6.055050    0.298566    0.128506
     15          7           0        7.379817    0.705925    0.321917
     16          6           0        5.038079    1.249418    0.002558
     17          6           0        3.731093    0.862048   -0.307582
     18          6           0        1.111976   -0.473960    1.267305
     19          6           0       -0.007193   -0.005266    1.957006
     20          6           0       -1.120165    0.454071    1.250917
     21          6           0       -3.747835   -0.873368   -0.301681
     22          6           0       -5.058961   -1.231264    0.025313
     23          1           0       -7.603680   -1.587131    0.324375
     24          1           0       -8.083130    0.023898    0.194128
     25          1           0       -6.501491    1.841394   -0.075436
     26          1           0       -4.192802    2.476678   -0.675572
     27          1           0        0.010157   -0.031937   -1.925882
     28          1           0        4.247866   -2.474604   -0.696285
     29          1           0        6.556303   -1.782008   -0.163637
     30          1           0        7.981019   -0.017932    0.702569
     31          1           0        7.470420    1.585068    0.821233
     32          1           0        5.255800    2.305214    0.139500
     33          1           0        2.956719    1.618061   -0.400166
     34          1           0        1.968589   -0.845283    1.823281
     35          1           0       -0.012610    0.001836    3.043899
     36          1           0       -1.981642    0.832117    1.795084
     37          1           0       -2.980964   -1.640670   -0.355168
     38          1           0       -5.280184   -2.270802    0.251634
 ---------------------------------------------------------------------
 Rotational constants (GHZ):           1.2996545           0.0882757           0.0872459
 Standard basis: 6-31G(d,p) (6D, 7F)
 There are   410 symmetry adapted cartesian basis functions of A   symmetry.
 There are   410 symmetry adapted basis functions of A   symmetry.
   410 basis functions,   728 primitive gaussians,   410 cartesian basis functions
    77 alpha electrons       77 beta electrons
       nuclear repulsion energy      1573.3989293924 Hartrees.
 NAtoms=   38 NActive=   38 NUniq=   38 SFac= 1.00D+00 NAtFMM=   60 NAOKFM=F Big=F
 Integral buffers will be    131072 words long.
 Raffenetti 2 integral format.
 Two-electron integral symmetry is turned on.
 Force inversion solution in PCM.
 ------------------------------------------------------------------------------
 Polarizable Continuum Model (PCM)
 =================================
 Model                : PCM.
 Atomic radii         : UFF (Universal Force Field).
 Polarization charges : Total charges.
 Charge compensation  : None.
 Solution method      : Matrix inversion.
 Cavity type          : Scaled VdW (van der Waals Surface) (Alpha=1.100).
 Cavity algorithm     : GePol (No added spheres)
                        Default sphere list used, NSphG=   38.
                        Lebedev-Laikov grids with approx.  5.0 points / Ang**2.
                        Smoothing algorithm: York/Karplus (Gamma=1.0000).
                        Polarization charges: spherical gaussians, with
                                              point-specific exponents (IZeta= 3).
                        Self-potential: point-specific (ISelfS= 7).
                        Self-field    : sphere-specific E.n sum rule (ISelfD= 2).
 1st derivatives      : Analytical E(r).r(x)/FMM algorithm (CHGder, D1EAlg=3).
                        Cavity 1st derivative terms included.
 2nd derivatives      : Analytical E(r).r(xy)/FMM algorithm (CHGder, D2EAlg=3).
                        Cavity 2nd derivative terms included.
 Solvent              : Water, Eps=  78.355300 Eps(inf)=   1.777849
 ------------------------------------------------------------------------------
 One-electron integrals computed using PRISM.
 NBasis=   410 RedAO= T EigKep=  4.16D-04  NBF=   410
 NBsUse=   410 1.00D-06 EigRej= -1.00D+00 NBFU=   410
 ExpMin= 1.61D-01 ExpMax= 5.48D+03 ExpMxC= 8.25D+02 IAcc=3 IRadAn=         5 AccDes= 0.00D+00
 Harris functional with IExCor=  402 and IRadAn=       5 diagonalized for initial guess.
 HarFok:  IExCor=  402 AccDes= 0.00D+00 IRadAn=         5 IDoV= 1 UseB2=F ITyADJ=14
 ICtDFT=  3500011 ScaDFX=  1.000000  1.000000  1.000000  1.000000
 FoFCou: FMM=F IPFlag=           0 FMFlag=      100000 FMFlg1=           0
         NFxFlg=           0 DoJE=T BraDBF=F KetDBF=T FulRan=T
         wScrn=  0.000000 ICntrl=       500 IOpCl=  0 I1Cent=   200000004 NGrid=           0
         NMat0=    1 NMatS0=      1 NMatT0=    0 NMatD0=    1 NMtDS0=    0 NMtDT0=    0
 Petite list used in FoFCou.
 Requested convergence on RMS density matrix=1.00D-08 within  32 cycles.
 Requested convergence on MAX density matrix=1.00D-06.
 Requested convergence on             energy=1.00D-06.
 No special actions if energy rises.
 Inv3:  Mode=1 IEnd=    26928048.
 Iteration    1 A*A^-1 deviation from unit magnitude is 3.33D-15 for   1466.
 Iteration    1 A*A^-1 deviation from orthogonality  is 2.89D-15 for   2753   2643.
 Iteration    1 A^-1*A deviation from unit magnitude is 3.44D-15 for    906.
 Iteration    1 A^-1*A deviation from orthogonality  is 1.55D-15 for   2776    209.
 Error on total polarization charges =  0.01078
 SCF Done:  E(RB3LYP) =  -955.522162279     A.U. after   12 cycles
            NFock= 12  Conv=0.52D-08     -V/T= 2.0094
 QCSCF skips out because SCF is already converged.
 DoSCS=F DFT=T ScalE2(SS,OS)=  1.000000  1.000000
 Range of M.O.s used for correlation:     1   410
 NBasis=   410 NAE=    77 NBE=    77 NFC=     0 NFV=     0
 NROrb=    410 NOA=    77 NOB=    77 NVA=   333 NVB=   333
 Symmetrizing basis deriv contribution to polar:
 IMax=3 JMax=2 DiffMx= 0.00D+00
 G2DrvN: will do    39 centers at a time, making    1 passes.
 Calling FoFCou, ICntrl=  3107 FMM=F I1Cent=   0 AccDes= 0.00D+00.
 NEqPCM:  Using equilibrium solvation (IEInf=0, Eps=  78.3553, EpsInf=   1.7778)
 G2PCM: DoFxE=T DoFxN=T DoGrad=T DoDP/DQ/DG/TGxP=FFFF NFrqRd=   0 IEInf=0 SqF1=F DoCFld=F IF1Alg=4.
 End of G2Drv F.D. properties file   721 does not exist.
 End of G2Drv F.D. properties file   722 does not exist.
 End of G2Drv F.D. properties file   788 does not exist.
          IDoAtm=11111111111111111111111111111111111111
 NEqPCM:  Using equilibrium solvation (IEInf=0, Eps=  78.3553, EpsInf=   1.7778)
          Differentiating once with respect to nuclear coordinates.
 CalDSu exits because no D1Ps are significant.
          There are   117 degrees of freedom in the 1st order CPHF.  IDoFFX=6 NUNeed=     0.
    111 vectors produced by pass  0 Test12= 2.56D-14 1.00D-09 XBig12= 1.51D-01 1.01D-01.
 AX will form   111 AO Fock derivatives at one time.
    111 vectors produced by pass  1 Test12= 2.56D-14 1.00D-09 XBig12= 2.26D-02 2.55D-02.
    111 vectors produced by pass  2 Test12= 2.56D-14 1.00D-09 XBig12= 2.24D-04 1.55D-03.
    111 vectors produced by pass  3 Test12= 2.56D-14 1.00D-09 XBig12= 8.22D-07 1.00D-04.
    111 vectors produced by pass  4 Test12= 2.56D-14 1.00D-09 XBig12= 1.45D-09 2.74D-06.
     83 vectors produced by pass  5 Test12= 2.56D-14 1.00D-09 XBig12= 1.69D-12 9.57D-08.
     24 vectors produced by pass  6 Test12= 2.56D-14 1.00D-09 XBig12= 1.77D-15 3.26D-09.
 InvSVY:  IOpt=1 It=  1 EMax= 3.89D-16
 Solved reduced A of dimension   662 with   117 vectors.
 End of Minotr F.D. properties file   721 does not exist.
 End of Minotr F.D. properties file   722 does not exist.
 End of Minotr F.D. properties file   788 does not exist.

 **********************************************************************

            Population analysis using the SCF density.

 **********************************************************************

 Orbital symmetries:
       Occupied  (A) (A) (A) (A) (A) (A) (A) (A) (A) (A) (A) (A)
                 (A) (A) (A) (A) (A) (A) (A) (A) (A) (A) (A) (A)
                 (A) (A) (A) (A) (A) (A) (A) (A) (A) (A) (A) (A)
                 (A) (A) (A) (A) (A) (A) (A) (A) (A) (A) (A) (A)
                 (A) (A) (A) (A) (A) (A) (A) (A) (A) (A) (A) (A)
                 (A) (A) (A) (A) (A) (A) (A) (A) (A) (A) (A) (A)
                 (A) (A) (A) (A) (A)
       Virtual   (A) (A) (A) (A) (A) (A) (A) (A) (A) (A) (A) (A)
                 (A) (A) (A) (A) (A) (A) (A) (A) (A) (A) (A) (A)
                 (A) (A) (A) (A) (A) (A) (A) (A) (A) (A) (A) (A)
                 (A) (A) (A) (A) (A) (A) (A) (A) (A) (A) (A) (A)
                 (A) (A) (A) (A) (A) (A) (A) (A) (A) (A) (A) (A)
                 (A) (A) (A) (A) (A) (A) (A) (A) (A) (A) (A) (A)
                 (A) (A) (A) (A) (A) (A) (A) (A) (A) (A) (A) (A)
                 (A) (A) (A) (A) (A) (A) (A) (A) (A) (A) (A) (A)
                 (A) (A) (A) (A) (A) (A) (A) (A) (A) (A) (A) (A)
                 (A) (A) (A) (A) (A) (A) (A) (A) (A) (A) (A) (A)
                 (A) (A) (A) (A) (A) (A) (A) (A) (A) (A) (A) (A)
                 (A) (A) (A) (A) (A) (A) (A) (A) (A) (A) (A) (A)
                 (A) (A) (A) (A) (A) (A) (A) (A) (A) (A) (A) (A)
                 (A) (A) (A) (A) (A) (A) (A) (A) (A) (A) (A) (A)
                 (A) (A) (A) (A) (A) (A) (A) (A) (A) (A) (A) (A)
                 (A) (A) (A) (A) (A) (A) (A) (A) (A) (A) (A) (A)
                 (A) (A) (A) (A) (A) (A) (A) (A) (A) (A) (A) (A)
                 (A) (A) (A) (A) (A) (A) (A) (A) (A) (A) (A) (A)
                 (A) (A) (A) (A) (A) (A) (A) (A) (A) (A) (A) (A)
                 (A) (A) (A) (A) (A) (A) (A) (A) (A) (A) (A) (A)
                 (A) (A) (A) (A) (A) (A) (A) (A) (A) (A) (A) (A)
                 (A) (A) (A) (A) (A) (A) (A) (A) (A) (A) (A) (A)
                 (A) (A) (A) (A) (A) (A) (A) (A) (A) (A) (A) (A)
                 (A) (A) (A) (A) (A) (A) (A) (A) (A) (A) (A) (A)
                 (A) (A) (A) (A) (A) (A) (A) (A) (A) (A) (A) (A)
                 (A) (A) (A) (A) (A) (A) (A) (A) (A) (A) (A) (A)
                 (A) (A) (A) (A) (A) (A) (A) (A) (A) (A) (A) (A)
                 (A) (A) (A) (A) (A) (A) (A) (A) (A)
 The electronic state is 1-A.
 Alpha  occ. eigenvalues --  -19.18639 -19.18636 -14.33532 -14.33519 -10.25527
 Alpha  occ. eigenvalues --  -10.25509 -10.24064 -10.24062 -10.22575 -10.22555
 Alpha  occ. eigenvalues --  -10.19941 -10.19207 -10.19200 -10.19107 -10.19102
 Alpha  occ. eigenvalues --  -10.19078 -10.18989 -10.18956 -10.18723 -10.18709
 Alpha  occ. eigenvalues --  -10.18644 -10.18623  -1.08147  -1.08004  -0.91393
 Alpha  occ. eigenvalues --   -0.91377  -0.86163  -0.83845  -0.83259  -0.76120
 Alpha  occ. eigenvalues --   -0.75862  -0.74770  -0.74649  -0.71515  -0.71438
 Alpha  occ. eigenvalues --   -0.63988  -0.62797  -0.61884  -0.61529  -0.60457
 Alpha  occ. eigenvalues --   -0.57291  -0.55351  -0.51980  -0.51404  -0.51047
 Alpha  occ. eigenvalues --   -0.50780  -0.49695  -0.49641  -0.48861  -0.45526
 Alpha  occ. eigenvalues --   -0.45232  -0.44257  -0.44173  -0.43786  -0.42331
 Alpha  occ. eigenvalues --   -0.42272  -0.41850  -0.40995  -0.39536  -0.39213
 Alpha  occ. eigenvalues --   -0.38338  -0.38147  -0.37608  -0.37363  -0.35967
 Alpha  occ. eigenvalues --   -0.35405  -0.35079  -0.34010  -0.32274  -0.29710
 Alpha  occ. eigenvalues --   -0.28905  -0.25467  -0.25346  -0.24817  -0.23606
 Alpha  occ. eigenvalues --   -0.19784  -0.19392
 Alpha virt. eigenvalues --   -0.01508  -0.00692  -0.00210   0.00173   0.02129
 Alpha virt. eigenvalues --    0.02162   0.08907   0.09134   0.09809   0.10680
 Alpha virt. eigenvalues --    0.10871   0.13113   0.13153   0.14876   0.15110
 Alpha virt. eigenvalues --    0.15662   0.16332   0.16451   0.16881   0.17149
 Alpha virt. eigenvalues --    0.17194   0.17735   0.17754   0.18858   0.19694
 Alpha virt. eigenvalues --    0.20155   0.20252   0.24814   0.24874   0.26431
 Alpha virt. eigenvalues --    0.28573   0.28742   0.29331   0.33370   0.33490
 Alpha virt. eigenvalues --    0.33589   0.33746   0.34123   0.34906   0.35783
 Alpha virt. eigenvalues --    0.35856   0.38839   0.39291   0.44312   0.48293
 Alpha virt. eigenvalues --    0.48400   0.49153   0.50117   0.50882   0.51485
 Alpha virt. eigenvalues --    0.52394   0.52995   0.53391   0.54421   0.54581
 Alpha virt. eigenvalues --    0.55139   0.55489   0.56499   0.56997   0.57911
 Alpha virt. eigenvalues --    0.58345   0.58539   0.58898   0.59187   0.59409
 Alpha virt. eigenvalues --    0.59485   0.60276   0.60541   0.60789   0.61353
 Alpha virt. eigenvalues --    0.61870   0.62070   0.62719   0.63018   0.63428
 Alpha virt. eigenvalues --    0.64533   0.66386   0.66710   0.67420   0.68223
 Alpha virt. eigenvalues --    0.69340   0.69716   0.70138   0.70579   0.72573
 Alpha virt. eigenvalues --    0.75667   0.75980   0.76801   0.78014   0.78580
 Alpha virt. eigenvalues --    0.80193   0.80606   0.81793   0.81995   0.82513
 Alpha virt. eigenvalues --    0.83027   0.83544   0.83838   0.84282   0.85045
 Alpha virt. eigenvalues --    0.85729   0.86092   0.86924   0.87563   0.87858
 Alpha virt. eigenvalues --    0.88734   0.89023   0.89468   0.90029   0.90683
 Alpha virt. eigenvalues --    0.91765   0.92534   0.93395   0.94360   0.97871
 Alpha virt. eigenvalues --    0.98926   0.99283   0.99455   0.99794   1.02020
 Alpha virt. eigenvalues --    1.03143   1.04085   1.05082   1.05490   1.05971
 Alpha virt. eigenvalues --    1.12245   1.12617   1.13188   1.14659   1.15354
 Alpha virt. eigenvalues --    1.16070   1.16264   1.17484   1.18147   1.19476
 Alpha virt. eigenvalues --    1.21407   1.23039   1.23621   1.24635   1.26306
 Alpha virt. eigenvalues --    1.28632   1.30152   1.31733   1.31979   1.33728
 Alpha virt. eigenvalues --    1.34923   1.35910   1.36526   1.36978   1.37992
 Alpha virt. eigenvalues --    1.38631   1.39852   1.40407   1.40594   1.41041
 Alpha virt. eigenvalues --    1.41890   1.42345   1.43404   1.45785   1.46866
 Alpha virt. eigenvalues --    1.49201   1.50073   1.52271   1.52965   1.65341
 Alpha virt. eigenvalues --    1.67248   1.69776   1.74454   1.75258   1.75394
 Alpha virt. eigenvalues --    1.76011   1.77112   1.77512   1.77587   1.79995
 Alpha virt. eigenvalues --    1.80101   1.81063   1.81136   1.83415   1.85388
 Alpha virt. eigenvalues --    1.85587   1.86612   1.87564   1.88501   1.89352
 Alpha virt. eigenvalues --    1.90158   1.90426   1.90716   1.91483   1.91708
 Alpha virt. eigenvalues --    1.92056   1.92588   1.93385   1.94857   1.95573
 Alpha virt. eigenvalues --    1.96370   1.97553   1.97812   1.98402   2.00157
 Alpha virt. eigenvalues --    2.01132   2.01259   2.02118   2.03906   2.05631
 Alpha virt. eigenvalues --    2.06063   2.06762   2.08993   2.09410   2.12116
 Alpha virt. eigenvalues --    2.13605   2.16600   2.16635   2.21756   2.23322
 Alpha virt. eigenvalues --    2.24279   2.25300   2.25778   2.26461   2.26604
 Alpha virt. eigenvalues --    2.27424   2.29085   2.30137   2.30715   2.31337
 Alpha virt. eigenvalues --    2.32764   2.33178   2.34443   2.35232   2.35959
 Alpha virt. eigenvalues --    2.36911   2.38615   2.39574   2.40945   2.41289
 Alpha virt. eigenvalues --    2.41371   2.42045   2.42508   2.44959   2.45552
 Alpha virt. eigenvalues --    2.45753   2.46233   2.46506   2.47257   2.47415
 Alpha virt. eigenvalues --    2.48816   2.49111   2.50466   2.51374   2.51729
 Alpha virt. eigenvalues --    2.53582   2.55137   2.56132   2.56927   2.57275
 Alpha virt. eigenvalues --    2.57624   2.59427   2.59707   2.60048   2.62080
 Alpha virt. eigenvalues --    2.63401   2.63955   2.65896   2.66744   2.70151
 Alpha virt. eigenvalues --    2.71820   2.72912   2.74064   2.74951   2.77641
 Alpha virt. eigenvalues --    2.77995   2.78084   2.79545   2.82618   2.83329
 Alpha virt. eigenvalues --    2.84767   2.87033   2.91488   2.93988   2.97773
 Alpha virt. eigenvalues --    2.98463   3.00415   3.01009   3.05078   3.05636
 Alpha virt. eigenvalues --    3.07999   3.09507   3.12183   3.13867   3.18395
 Alpha virt. eigenvalues --    3.19001   3.20532   3.24050   3.24998   3.25014
 Alpha virt. eigenvalues --    3.28328   3.28429   3.31275   3.33877   3.37023
 Alpha virt. eigenvalues --    3.37383   3.38974   3.41656   3.45676   3.48677
 Alpha virt. eigenvalues --    3.48742   3.54326   3.54585   3.81206   3.83346
 Alpha virt. eigenvalues --    3.84647   4.03668   4.03825   4.13458   4.13497
 Alpha virt. eigenvalues --    4.13767   4.14283   4.15735   4.16274   4.16386
 Alpha virt. eigenvalues --    4.18548   4.21041   4.40826   4.41726   4.44003
 Alpha virt. eigenvalues --    4.45064   4.45359   4.46121   4.56330   4.72407
 Alpha virt. eigenvalues --    4.82728   4.85880   4.87451
          Condensed to atoms (all electrons):
               1          2          3          4          5          6
     1  N    6.832403   0.297805  -0.070117   0.004446   0.000548   0.000000
     2  C    0.297805   4.581134   0.538340  -0.027141  -0.034503   0.000170
     3  C   -0.070117   0.538340   4.946931   0.505630  -0.027509   0.004052
     4  C    0.004446  -0.027141   0.505630   4.928723   0.544347  -0.052187
     5  C    0.000548  -0.034503  -0.027509   0.544347   4.627434   0.217919
     6  O    0.000000   0.000170   0.004052  -0.052187   0.217919   8.350978
     7  C   -0.000000   0.000063  -0.000057  -0.001570  -0.031141   0.224615
     8  C   -0.000000   0.000000   0.000006  -0.000159  -0.001701  -0.043898
     9  C    0.000000  -0.000000  -0.000000   0.000006  -0.000067   0.003412
    10  O    0.000000  -0.000000   0.000000  -0.000000  -0.000000  -0.000013
    11  C   -0.000000  -0.000000  -0.000000   0.000000   0.000000  -0.000000
    12  C    0.000000   0.000000   0.000000  -0.000000   0.000000  -0.000000
    13  C    0.000000   0.000000  -0.000000   0.000000  -0.000000   0.000000
    14  C    0.000000  -0.000000  -0.000000   0.000000   0.000000  -0.000000
    15  N    0.000000   0.000000   0.000000   0.000000   0.000000   0.000000
    16  C    0.000000   0.000000  -0.000000  -0.000000   0.000000  -0.000000
    17  C    0.000000   0.000000   0.000000  -0.000000   0.000000   0.000000
    18  C   -0.000000   0.000000  -0.000000   0.000000   0.000051   0.000195
    19  C   -0.000000   0.000000   0.000001  -0.000011  -0.000173   0.004224
    20  C    0.000000   0.000021  -0.000065   0.000631   0.002182  -0.055846
    21  C    0.004703  -0.023764  -0.039287  -0.066388   0.496016  -0.055384
    22  C   -0.070542   0.536208  -0.048065  -0.039008  -0.020333   0.004428
    23  H    0.343962  -0.025261   0.005428  -0.000184  -0.000006  -0.000000
    24  H    0.343871  -0.025021  -0.009399  -0.000075   0.000004  -0.000000
    25  H   -0.007288  -0.042134   0.364155  -0.031457   0.003797  -0.000065
    26  H   -0.000102   0.004191  -0.035207   0.360809  -0.039654  -0.001113
    27  H   -0.000000   0.000000  -0.000000  -0.000016   0.000311  -0.001176
    28  H    0.000000  -0.000000   0.000000   0.000000   0.000000   0.000000
    29  H    0.000000   0.000000   0.000000  -0.000000   0.000000  -0.000000
    30  H    0.000000   0.000000   0.000000  -0.000000   0.000000  -0.000000
    31  H    0.000000   0.000000   0.000000  -0.000000   0.000000  -0.000000
    32  H    0.000000   0.000000   0.000000  -0.000000   0.000000   0.000000
    33  H   -0.000000  -0.000000   0.000000   0.000000   0.000000  -0.000001
    34  H    0.000000  -0.000000   0.000000   0.000000  -0.000000   0.000002
    35  H    0.000000  -0.000000  -0.000000  -0.000000  -0.000002  -0.000053
    36  H   -0.000000  -0.000040   0.000094   0.001238   0.006912  -0.007072
    37  H   -0.000104   0.003830   0.000481   0.005374  -0.041027  -0.006948
    38  H   -0.007198  -0.041516   0.005112   0.000613   0.003428  -0.000055
               7          8          9         10         11         12
     1  N   -0.000000  -0.000000   0.000000   0.000000  -0.000000   0.000000
     2  C    0.000063   0.000000  -0.000000  -0.000000  -0.000000   0.000000
     3  C   -0.000057   0.000006  -0.000000   0.000000  -0.000000   0.000000
     4  C   -0.001570  -0.000159   0.000006  -0.000000   0.000000  -0.000000
     5  C   -0.031141  -0.001701  -0.000067  -0.000000   0.000000   0.000000
     6  O    0.224615  -0.043898   0.003412  -0.000013  -0.000000  -0.000000
     7  C    4.618921   0.495802  -0.005186   0.003462  -0.000061   0.000007
     8  C    0.495802   5.084557   0.497141  -0.043895  -0.002004  -0.000165
     9  C   -0.005186   0.497141   4.616929   0.224218  -0.031061  -0.001622
    10  O    0.003462  -0.043895   0.224218   8.349427   0.220097  -0.052686
    11  C   -0.000061  -0.002004  -0.031061   0.220097   4.626802   0.542528
    12  C    0.000007  -0.000165  -0.001622  -0.052686   0.542528   4.933610
    13  C   -0.000000   0.000006  -0.000003   0.004096  -0.026446   0.503271
    14  C    0.000000   0.000000   0.000017   0.000135  -0.034022  -0.025596
    15  N    0.000000   0.000000  -0.000000  -0.000000   0.000534   0.004545
    16  C    0.000001  -0.000003  -0.000044   0.004351  -0.022392  -0.039190
    17  C   -0.000037   0.000655   0.001459  -0.055465   0.498086  -0.067142
    18  C   -0.035000  -0.078077   0.494257  -0.055911   0.002167   0.000658
    19  C   -0.006934  -0.035798  -0.006884   0.004272  -0.000201  -0.000015
    20  C    0.493081  -0.077711  -0.035069   0.000194   0.000053   0.000000
    21  C    0.001562   0.000638  -0.000031   0.000000   0.000000  -0.000000
    22  C   -0.000212  -0.000005   0.000001  -0.000000   0.000000  -0.000000
    23  H    0.000000   0.000000  -0.000000  -0.000000  -0.000000   0.000000
    24  H    0.000000  -0.000000  -0.000000  -0.000000  -0.000000   0.000000
    25  H   -0.000001  -0.000000   0.000000  -0.000000   0.000000  -0.000000
    26  H    0.000315  -0.000018  -0.000000  -0.000000   0.000000   0.000000
    27  H   -0.037502   0.353958  -0.037382  -0.001256   0.000327  -0.000016
    28  H   -0.000000  -0.000015   0.000300  -0.001087  -0.039980   0.360992
    29  H    0.000000  -0.000000  -0.000001  -0.000062   0.003822  -0.031523
    30  H    0.000000   0.000000  -0.000000  -0.000000  -0.000006  -0.000010
    31  H    0.000000   0.000000   0.000000  -0.000000  -0.000003  -0.000173
    32  H   -0.000000  -0.000000  -0.000003  -0.000055   0.003442   0.000588
    33  H    0.000075   0.001239   0.005979  -0.006779  -0.041202   0.005373
    34  H    0.000386   0.005470  -0.040976  -0.007015   0.006618   0.001188
    35  H    0.002941   0.000834   0.002945  -0.000054  -0.000003  -0.000000
    36  H   -0.041022   0.005458   0.000390   0.000002  -0.000000   0.000000
    37  H    0.006209   0.001152   0.000062  -0.000001   0.000000   0.000000
    38  H   -0.000007  -0.000000   0.000000   0.000000   0.000000  -0.000000
              13         14         15         16         17         18
     1  N    0.000000   0.000000   0.000000   0.000000   0.000000  -0.000000
     2  C    0.000000  -0.000000   0.000000   0.000000   0.000000   0.000000
     3  C   -0.000000  -0.000000   0.000000  -0.000000   0.000000  -0.000000
     4  C    0.000000   0.000000   0.000000  -0.000000  -0.000000   0.000000
     5  C   -0.000000   0.000000   0.000000   0.000000   0.000000   0.000051
     6  O    0.000000  -0.000000   0.000000  -0.000000   0.000000   0.000195
     7  C   -0.000000   0.000000   0.000000   0.000001  -0.000037  -0.035000
     8  C    0.000006   0.000000   0.000000  -0.000003   0.000655  -0.078077
     9  C   -0.000003   0.000017  -0.000000  -0.000044   0.001459   0.494257
    10  O    0.004096   0.000135  -0.000000   0.004351  -0.055465  -0.055911
    11  C   -0.026446  -0.034022   0.000534  -0.022392   0.498086   0.002167
    12  C    0.503271  -0.025596   0.004545  -0.039190  -0.067142   0.000658
    13  C    4.948908   0.536737  -0.070294  -0.048538  -0.038187  -0.000047
    14  C    0.536737   4.581584   0.298547   0.537840  -0.026576   0.000012
    15  N   -0.070294   0.298547   6.831397  -0.070353   0.004627  -0.000000
    16  C   -0.048538   0.537840  -0.070353   4.948407   0.501551  -0.000336
    17  C   -0.038187  -0.026576   0.004627   0.501551   4.956611   0.000328
    18  C   -0.000047   0.000012  -0.000000  -0.000336   0.000328   4.988528
    19  C    0.000001  -0.000000  -0.000000   0.000003  -0.000344   0.499259
    20  C   -0.000000   0.000000   0.000000  -0.000000   0.000003  -0.047417
    21  C    0.000000   0.000000  -0.000000  -0.000000   0.000000   0.000005
    22  C   -0.000000   0.000000   0.000000  -0.000000  -0.000000   0.000000
    23  H    0.000000   0.000000   0.000000   0.000000   0.000000  -0.000000
    24  H    0.000000   0.000000   0.000000   0.000000   0.000000  -0.000000
    25  H    0.000000   0.000000   0.000000  -0.000000  -0.000000  -0.000000
    26  H    0.000000  -0.000000   0.000000  -0.000000   0.000000   0.000000
    27  H   -0.000000   0.000000   0.000000  -0.000002  -0.000028   0.006880
    28  H   -0.035102   0.004241  -0.000102   0.000267   0.006475  -0.000013
    29  H    0.364754  -0.042504  -0.007173   0.005288   0.000447   0.000000
    30  H   -0.009381  -0.025225   0.344143   0.005446  -0.000182  -0.000000
    31  H    0.005446  -0.025240   0.344221  -0.009376  -0.000029  -0.000000
    32  H    0.005119  -0.041750  -0.007151   0.364449  -0.031007   0.000003
    33  H    0.000464   0.003853  -0.000103  -0.034787   0.364443   0.001235
    34  H    0.000020   0.000004   0.000000  -0.000288   0.001388   0.367846
    35  H   -0.000000  -0.000000   0.000000  -0.000000   0.000004  -0.033193
    36  H    0.000000  -0.000000   0.000000   0.000000   0.000000   0.004917
    37  H    0.000000  -0.000000   0.000000   0.000000  -0.000000  -0.000015
    38  H    0.000000  -0.000000   0.000000  -0.000000   0.000000  -0.000000
              19         20         21         22         23         24
     1  N   -0.000000   0.000000   0.004703  -0.070542   0.343962   0.343871
     2  C    0.000000   0.000021  -0.023764   0.536208  -0.025261  -0.025021
     3  C    0.000001  -0.000065  -0.039287  -0.048065   0.005428  -0.009399
     4  C   -0.000011   0.000631  -0.066388  -0.039008  -0.000184  -0.000075
     5  C   -0.000173   0.002182   0.496016  -0.020333  -0.000006   0.000004
     6  O    0.004224  -0.055846  -0.055384   0.004428  -0.000000  -0.000000
     7  C   -0.006934   0.493081   0.001562  -0.000212   0.000000   0.000000
     8  C   -0.035798  -0.077711   0.000638  -0.000005   0.000000  -0.000000
     9  C   -0.006884  -0.035069  -0.000031   0.000001  -0.000000  -0.000000
    10  O    0.004272   0.000194   0.000000  -0.000000  -0.000000  -0.000000
    11  C   -0.000201   0.000053   0.000000   0.000000  -0.000000  -0.000000
    12  C   -0.000015   0.000000  -0.000000  -0.000000   0.000000   0.000000
    13  C    0.000001  -0.000000   0.000000  -0.000000   0.000000   0.000000
    14  C   -0.000000   0.000000   0.000000   0.000000   0.000000   0.000000
    15  N   -0.000000   0.000000  -0.000000   0.000000   0.000000   0.000000
    16  C    0.000003  -0.000000  -0.000000  -0.000000   0.000000   0.000000
    17  C   -0.000344   0.000003   0.000000  -0.000000   0.000000   0.000000
    18  C    0.499259  -0.047417   0.000005   0.000000  -0.000000  -0.000000
    19  C    4.866844   0.499635  -0.000344  -0.000001   0.000000   0.000000
    20  C    0.499635   4.989504   0.000144  -0.000379   0.000000   0.000000
    21  C   -0.000344   0.000144   4.963236   0.495530  -0.000029  -0.000190
    22  C   -0.000001  -0.000379   0.495530   4.952990  -0.009401   0.005487
    23  H    0.000000   0.000000  -0.000029  -0.009401   0.432576  -0.028314
    24  H    0.000000   0.000000  -0.000190   0.005487  -0.028314   0.432381
    25  H   -0.000000   0.000000   0.000406   0.005389  -0.000069   0.004429
    26  H   -0.000002  -0.000017   0.006546   0.000244   0.000003  -0.000007
    27  H   -0.000403   0.006899  -0.000026  -0.000001  -0.000000  -0.000000
    28  H   -0.000001   0.000000   0.000000  -0.000000  -0.000000  -0.000000
    29  H   -0.000000  -0.000000  -0.000000  -0.000000   0.000000   0.000000
    30  H   -0.000000   0.000000  -0.000000   0.000000   0.000000   0.000000
    31  H   -0.000000   0.000000  -0.000000   0.000000   0.000000   0.000000
    32  H   -0.000000  -0.000000   0.000000  -0.000000   0.000000   0.000000
    33  H   -0.000221  -0.000012  -0.000000   0.000000  -0.000000  -0.000000
    34  H   -0.039193   0.004929   0.000000   0.000000  -0.000000  -0.000000
    35  H    0.369242  -0.033267   0.000004  -0.000000  -0.000000  -0.000000
    36  H   -0.039121   0.367789   0.001291  -0.000228  -0.000000  -0.000000
    37  H   -0.000208   0.001296   0.364497  -0.034918  -0.000006   0.000003
    38  H   -0.000000   0.000003  -0.031073   0.364220   0.004486  -0.000057
              25         26         27         28         29         30
     1  N   -0.007288  -0.000102  -0.000000   0.000000   0.000000   0.000000
     2  C   -0.042134   0.004191   0.000000  -0.000000   0.000000   0.000000
     3  C    0.364155  -0.035207  -0.000000   0.000000   0.000000   0.000000
     4  C   -0.031457   0.360809  -0.000016   0.000000  -0.000000  -0.000000
     5  C    0.003797  -0.039654   0.000311   0.000000   0.000000   0.000000
     6  O   -0.000065  -0.001113  -0.001176   0.000000  -0.000000  -0.000000
     7  C   -0.000001   0.000315  -0.037502  -0.000000   0.000000   0.000000
     8  C   -0.000000  -0.000018   0.353958  -0.000015  -0.000000   0.000000
     9  C    0.000000  -0.000000  -0.037382   0.000300  -0.000001  -0.000000
    10  O   -0.000000  -0.000000  -0.001256  -0.001087  -0.000062  -0.000000
    11  C    0.000000   0.000000   0.000327  -0.039980   0.003822  -0.000006
    12  C   -0.000000   0.000000  -0.000016   0.360992  -0.031523  -0.000010
    13  C    0.000000   0.000000  -0.000000  -0.035102   0.364754  -0.009381
    14  C    0.000000  -0.000000   0.000000   0.004241  -0.042504  -0.025225
    15  N    0.000000   0.000000   0.000000  -0.000102  -0.007173   0.344143
    16  C   -0.000000  -0.000000  -0.000002   0.000267   0.005288   0.005446
    17  C   -0.000000   0.000000  -0.000028   0.006475   0.000447  -0.000182
    18  C   -0.000000   0.000000   0.006880  -0.000013   0.000000  -0.000000
    19  C   -0.000000  -0.000002  -0.000403  -0.000001  -0.000000  -0.000000
    20  C    0.000000  -0.000017   0.006899   0.000000  -0.000000   0.000000
    21  C    0.000406   0.006546  -0.000026   0.000000  -0.000000  -0.000000
    22  C    0.005389   0.000244  -0.000001  -0.000000  -0.000000   0.000000
    23  H   -0.000069   0.000003  -0.000000  -0.000000   0.000000   0.000000
    24  H    0.004429  -0.000007  -0.000000  -0.000000   0.000000   0.000000
    25  H    0.609490  -0.006561  -0.000000   0.000000   0.000000   0.000000
    26  H   -0.006561   0.606983   0.000003  -0.000000   0.000000   0.000000
    27  H   -0.000000   0.000003   0.601234   0.000003  -0.000000   0.000000
    28  H    0.000000  -0.000000   0.000003   0.607056  -0.006572  -0.000006
    29  H    0.000000   0.000000  -0.000000  -0.006572   0.609307   0.004443
    30  H    0.000000   0.000000   0.000000  -0.000006   0.004443   0.432143
    31  H    0.000000  -0.000000   0.000000   0.000003  -0.000053  -0.028263
    32  H   -0.000000   0.000000  -0.000000   0.000014  -0.000188  -0.000060
    33  H   -0.000000  -0.000000   0.000072  -0.000155   0.000013   0.000003
    34  H    0.000000  -0.000000  -0.000126   0.000072  -0.000002   0.000000
    35  H   -0.000000   0.000000   0.000013   0.000000  -0.000000   0.000000
    36  H   -0.000002   0.000074  -0.000125  -0.000000   0.000000   0.000000
    37  H    0.000013  -0.000154   0.000058  -0.000000  -0.000000   0.000000
    38  H   -0.000186   0.000014   0.000000   0.000000  -0.000000   0.000000
              31         32         33         34         35         36
     1  N    0.000000   0.000000  -0.000000   0.000000   0.000000  -0.000000
     2  C    0.000000   0.000000  -0.000000  -0.000000  -0.000000  -0.000040
     3  C    0.000000   0.000000   0.000000   0.000000  -0.000000   0.000094
     4  C   -0.000000  -0.000000   0.000000   0.000000  -0.000000   0.001238
     5  C    0.000000   0.000000   0.000000  -0.000000  -0.000002   0.006912
     6  O   -0.000000   0.000000  -0.000001   0.000002  -0.000053  -0.007072
     7  C    0.000000  -0.000000   0.000075   0.000386   0.002941  -0.041022
     8  C    0.000000  -0.000000   0.001239   0.005470   0.000834   0.005458
     9  C    0.000000  -0.000003   0.005979  -0.040976   0.002945   0.000390
    10  O   -0.000000  -0.000055  -0.006779  -0.007015  -0.000054   0.000002
    11  C   -0.000003   0.003442  -0.041202   0.006618  -0.000003  -0.000000
    12  C   -0.000173   0.000588   0.005373   0.001188  -0.000000   0.000000
    13  C    0.005446   0.005119   0.000464   0.000020  -0.000000   0.000000
    14  C   -0.025240  -0.041750   0.003853   0.000004  -0.000000  -0.000000
    15  N    0.344221  -0.007151  -0.000103   0.000000   0.000000   0.000000
    16  C   -0.009376   0.364449  -0.034787  -0.000288  -0.000000   0.000000
    17  C   -0.000029  -0.031007   0.364443   0.001388   0.000004   0.000000
    18  C   -0.000000   0.000003   0.001235   0.367846  -0.033193   0.004917
    19  C   -0.000000  -0.000000  -0.000221  -0.039193   0.369242  -0.039121
    20  C    0.000000  -0.000000  -0.000012   0.004929  -0.033267   0.367789
    21  C   -0.000000   0.000000  -0.000000   0.000000   0.000004   0.001291
    22  C    0.000000  -0.000000   0.000000   0.000000  -0.000000  -0.000228
    23  H    0.000000   0.000000  -0.000000  -0.000000  -0.000000  -0.000000
    24  H    0.000000   0.000000  -0.000000  -0.000000  -0.000000  -0.000000
    25  H    0.000000  -0.000000  -0.000000   0.000000  -0.000000  -0.000002
    26  H   -0.000000   0.000000  -0.000000  -0.000000   0.000000   0.000074
    27  H    0.000000  -0.000000   0.000072  -0.000126   0.000013  -0.000125
    28  H    0.000003   0.000014  -0.000155   0.000072   0.000000  -0.000000
    29  H   -0.000053  -0.000188   0.000013  -0.000002  -0.000000   0.000000
    30  H   -0.028263  -0.000060   0.000003   0.000000   0.000000   0.000000
    31  H    0.432154   0.004368  -0.000006   0.000000   0.000000   0.000000
    32  H    0.004368   0.606859  -0.006103  -0.000001  -0.000000   0.000000
    33  H   -0.000006  -0.006103   0.598550   0.000052  -0.000001  -0.000000
    34  H    0.000000  -0.000001   0.000052   0.598163  -0.005453  -0.000152
    35  H    0.000000  -0.000000  -0.000001  -0.005453   0.586445  -0.005453
    36  H    0.000000   0.000000  -0.000000  -0.000152  -0.005453   0.597641
    37  H   -0.000000  -0.000000  -0.000000  -0.000000  -0.000001   0.000024
    38  H    0.000000   0.000000  -0.000000   0.000000  -0.000000   0.000001
              37         38
     1  N   -0.000104  -0.007198
     2  C    0.003830  -0.041516
     3  C    0.000481   0.005112
     4  C    0.005374   0.000613
     5  C   -0.041027   0.003428
     6  O   -0.006948  -0.000055
     7  C    0.006209  -0.000007
     8  C    0.001152  -0.000000
     9  C    0.000062   0.000000
    10  O   -0.000001   0.000000
    11  C    0.000000   0.000000
    12  C    0.000000  -0.000000
    13  C    0.000000   0.000000
    14  C   -0.000000  -0.000000
    15  N    0.000000   0.000000
    16  C    0.000000  -0.000000
    17  C   -0.000000   0.000000
    18  C   -0.000015  -0.000000
    19  C   -0.000208  -0.000000
    20  C    0.001296   0.000003
    21  C    0.364497  -0.031073
    22  C   -0.034918   0.364220
    23  H   -0.000006   0.004486
    24  H    0.000003  -0.000057
    25  H    0.000013  -0.000186
    26  H   -0.000154   0.000014
    27  H    0.000058   0.000000
    28  H   -0.000000   0.000000
    29  H   -0.000000  -0.000000
    30  H    0.000000   0.000000
    31  H   -0.000000   0.000000
    32  H   -0.000000   0.000000
    33  H   -0.000000  -0.000000
    34  H   -0.000000   0.000000
    35  H   -0.000001  -0.000000
    36  H    0.000024   0.000001
    37  H    0.598332  -0.006036
    38  H   -0.006036   0.606889
 Mulliken charges:
               1
     1  N   -0.672386
     2  C    0.257617
     3  C   -0.140525
     4  C   -0.133623
     5  C    0.293169
     6  O   -0.586183
     7  C    0.311289
     8  C   -0.163471
     9  C    0.311214
    10  O   -0.585976
    11  C    0.292906
    12  C   -0.134623
    13  C   -0.140825
    14  C    0.257943
    15  N   -0.672838
    16  C   -0.142293
    17  C   -0.117079
    18  C   -0.116334
    19  C   -0.113630
    20  C   -0.116582
    21  C   -0.118063
    22  C   -0.141404
    23  H    0.276814
    24  H    0.276888
    25  H    0.100084
    26  H    0.103652
    27  H    0.108297
    28  H    0.103613
    29  H    0.100004
    30  H    0.276954
    31  H    0.276952
    32  H    0.101477
    33  H    0.108016
    34  H    0.107066
    35  H    0.115051
    36  H    0.107385
    37  H    0.108085
    38  H    0.101361
 Sum of Mulliken charges =  -0.00000
 Mulliken charges with hydrogens summed into heavy atoms:
               1
     1  N   -0.118684
     2  C    0.257617
     3  C   -0.040441
     4  C   -0.029971
     5  C    0.293169
     6  O   -0.586183
     7  C    0.311289
     8  C   -0.055174
     9  C    0.311214
    10  O   -0.585976
    11  C    0.292906
    12  C   -0.031010
    13  C   -0.040820
    14  C    0.257943
    15  N   -0.118931
    16  C   -0.040816
    17  C   -0.009063
    18  C   -0.009268
    19  C    0.001421
    20  C   -0.009197
    21  C   -0.009978
    22  C   -0.040044
 APT charges:
               1
     1  N   -1.829640
     2  C    0.532837
     3  C   -0.295105
     4  C   -0.543088
     5  C   -0.657400
     6  O   -0.378633
     7  C   -0.038454
     8  C   -0.532520
     9  C   -0.035865
    10  O   -0.376678
    11  C   -0.696593
    12  C   -0.517873
    13  C   -0.319923
    14  C    0.467108
    15  N   -1.501169
    16  C   -0.363189
    17  C   -0.642699
    18  C   -0.518698
    19  C   -0.466966
    20  C   -0.518033
    21  C   -0.665251
    22  C   -0.339978
    23  H    0.864480
    24  H    1.305390
    25  H    0.998472
    26  H    0.392505
    27  H    0.412933
    28  H    0.413862
    29  H    1.026259
    30  H    1.176377
    31  H    0.711458
    32  H    0.605238
    33  H    0.000038
    34  H    0.554630
    35  H    0.625833
    36  H    0.552245
    37  H   -0.000493
    38  H    0.598581
 Sum of APT charges =  -0.00000
 APT charges with hydrogens summed into heavy atoms:
               1
     1  N    0.340231
     2  C    0.532837
     3  C    0.703367
     4  C   -0.150583
     5  C   -0.657400
     6  O   -0.378633
     7  C   -0.038454
     8  C   -0.119588
     9  C   -0.035865
    10  O   -0.376678
    11  C   -0.696593
    12  C   -0.104011
    13  C    0.706337
    14  C    0.467108
    15  N    0.386667
    16  C    0.242049
    17  C   -0.642660
    18  C    0.035932
    19  C    0.158868
    20  C    0.034212
    21  C   -0.665744
    22  C    0.258603
 Electronic spatial extent (au):  <R**2>=          11759.2085
 Charge=             -0.0000 electrons
 Dipole moment (field-independent basis, Debye):
    X=             -0.5266    Y=             -0.2472    Z=              2.7567  Tot=              2.8174
 Quadrupole moment (field-independent basis, Debye-Ang):
   XX=            -65.5094   YY=           -115.9480   ZZ=           -128.5499
   XY=              5.9774   XZ=             18.2799   YZ=              1.7540
 Traceless Quadrupole moment (field-independent basis, Debye-Ang):
   XX=             37.8264   YY=            -12.6123   ZZ=            -25.2141
   XY=              5.9774   XZ=             18.2799   YZ=              1.7540
 Octapole moment (field-independent basis, Debye-Ang**2):
  XXX=            -91.0904  YYY=              0.0248  ZZZ=              9.6903  XYY=             -4.7420
  XXY=            -24.4613  XXZ=             69.7630  XZZ=             19.7154  YZZ=              1.6258
  YYZ=              0.4028  XYZ=              9.9897
 Hexadecapole moment (field-independent basis, Debye-Ang**3):
 XXXX=          -9529.9334 YYYY=           -681.5510 ZZZZ=           -523.7796 XXXY=            203.0601
 XXXZ=           1114.6038 YYYX=             70.2904 YYYZ=              4.0961 ZZZX=             29.4893
 ZZZY=              3.4345 XXYY=          -2099.2434 XXZZ=          -2701.7633 YYZZ=           -229.5595
 XXYZ=            102.2834 YYXZ=             16.1704 ZZXY=              2.3940
 N-N= 1.573398929392D+03 E-N=-5.369118293914D+03  KE= 9.466568971951D+02
  Exact polarizability:   0.000   0.000   0.000   0.000   0.000   0.000
 Approx polarizability: 449.427 -23.950 307.644  -0.795   0.044 215.217
 D2PCM: PCM CHGder 2nd derivatives, FixD1E=F FixD2E=F DoIter=F DoCFld=F I1PDM=0
 Calling FoFJK, ICntrl=    100147 FMM=F ISym2X=0 I1Cent= 0 IOpClX= 0 NMat=1 NMatS=1 NMatT=0.
 ***** Axes restored to original set *****
 -------------------------------------------------------------------
 Center     Atomic                   Forces (Hartrees/Bohr)
 Number     Number              X              Y              Z
 -------------------------------------------------------------------
      1        7           0.001671461   -0.003086037   -0.000611284
      2        6           0.006688691    0.015601436   -0.001260595
      3        6          -0.006273886   -0.007432524    0.007770985
      4        6           0.007179820    0.002904698   -0.000532637
      5        6           0.010876712    0.000649764    0.002238698
      6        8          -0.009439905   -0.003045666    0.000965599
      7        6          -0.007384903    0.002543359   -0.002165621
      8        6          -0.000323566   -0.003784113    0.000204920
[...]
   173    C   12  py     Ryd( 3p)     0.00431
   174    C   12  pz     Val( 2p)     1.13307
   175    C   12  pz     Ryd( 3p)     0.00377
   176    C   12  dxy    Ryd( 3d)     0.00051
   177    C   12  dxz    Ryd( 3d)     0.00063
   178    C   12  dyz    Ryd( 3d)     0.00051
   179    C   12  dx2y2  Ryd( 3d)     0.00058
   180    C   12  dz2    Ryd( 3d)     0.00040

   181    C   13  S      Cor( 1S)     1.99905
   182    C   13  S      Val( 2S)     0.95509
   183    C   13  S      Ryd( 3S)     0.00062
   184    C   13  S      Ryd( 4S)     0.00004
   185    C   13  px     Val( 2p)     1.09125
   186    C   13  px     Ryd( 3p)     0.00418
   187    C   13  py     Val( 2p)     1.15066
   188    C   13  py     Ryd( 3p)     0.00413
   189    C   13  pz     Val( 2p)     1.08871
   190    C   13  pz     Ryd( 3p)     0.00396
   191    C   13  dxy    Ryd( 3d)     0.00061
   192    C   13  dxz    Ryd( 3d)     0.00051
   193    C   13  dyz    Ryd( 3d)     0.00048
   194    C   13  dx2y2  Ryd( 3d)     0.00046
   195    C   13  dz2    Ryd( 3d)     0.00045

   196    C   14  S      Cor( 1S)     1.99899
   197    C   14  S      Val( 2S)     0.85139
   198    C   14  S      Ryd( 3S)     0.00116
   199    C   14  S      Ryd( 4S)     0.00009
   200    C   14  px     Val( 2p)     0.90362
   201    C   14  px     Ryd( 3p)     0.00536
   202    C   14  py     Val( 2p)     1.03797
   203    C   14  py     Ryd( 3p)     0.00320
   204    C   14  pz     Val( 2p)     1.01665
   205    C   14  pz     Ryd( 3p)     0.00271
   206    C   14  dxy    Ryd( 3d)     0.00096
   207    C   14  dxz    Ryd( 3d)     0.00099
   208    C   14  dyz    Ryd( 3d)     0.00059
   209    C   14  dx2y2  Ryd( 3d)     0.00131
   210    C   14  dz2    Ryd( 3d)     0.00105

   211    N   15  S      Cor( 1S)     1.99949
   212    N   15  S      Val( 2S)     1.36822
   213    N   15  S      Ryd( 3S)     0.00010
   214    N   15  S      Ryd( 4S)     0.00001
   215    N   15  px     Val( 2p)     1.40629
   216    N   15  px     Ryd( 3p)     0.00272
   217    N   15  py     Val( 2p)     1.47875
   218    N   15  py     Ryd( 3p)     0.00232
   219    N   15  pz     Val( 2p)     1.50235
   220    N   15  pz     Ryd( 3p)     0.00248
   221    N   15  dxy    Ryd( 3d)     0.00050
   222    N   15  dxz    Ryd( 3d)     0.00062
   223    N   15  dyz    Ryd( 3d)     0.00023
   224    N   15  dx2y2  Ryd( 3d)     0.00097
   225    N   15  dz2    Ryd( 3d)     0.00096

   226    C   16  S      Cor( 1S)     1.99905
   227    C   16  S      Val( 2S)     0.95513
   228    C   16  S      Ryd( 3S)     0.00061
   229    C   16  S      Ryd( 4S)     0.00004
   230    C   16  px     Val( 2p)     1.09456
   231    C   16  px     Ryd( 3p)     0.00417
   232    C   16  py     Val( 2p)     1.09751
   233    C   16  py     Ryd( 3p)     0.00407
   234    C   16  pz     Val( 2p)     1.13738
   235    C   16  pz     Ryd( 3p)     0.00400
   236    C   16  dxy    Ryd( 3d)     0.00054
   237    C   16  dxz    Ryd( 3d)     0.00058
   238    C   16  dyz    Ryd( 3d)     0.00050
   239    C   16  dx2y2  Ryd( 3d)     0.00052
   240    C   16  dz2    Ryd( 3d)     0.00038

   241    C   17  S      Cor( 1S)     1.99900
   242    C   17  S      Val( 2S)     0.96409
   243    C   17  S      Ryd( 3S)     0.00079
   244    C   17  S      Ryd( 4S)     0.00005
   245    C   17  px     Val( 2p)     1.09387
   246    C   17  px     Ryd( 3p)     0.00474
   247    C   17  py     Val( 2p)     1.15280
   248    C   17  py     Ryd( 3p)     0.00399
   249    C   17  pz     Val( 2p)     1.07654
   250    C   17  pz     Ryd( 3p)     0.00412
   251    C   17  dxy    Ryd( 3d)     0.00065
   252    C   17  dxz    Ryd( 3d)     0.00049
   253    C   17  dyz    Ryd( 3d)     0.00049
   254    C   17  dx2y2  Ryd( 3d)     0.00047
   255    C   17  dz2    Ryd( 3d)     0.00054

   256    C   18  S      Cor( 1S)     1.99901
   257    C   18  S      Val( 2S)     0.95816
   258    C   18  S      Ryd( 3S)     0.00060
   259    C   18  S      Ryd( 4S)     0.00004
   260    C   18  px     Val( 2p)     1.18215
   261    C   18  px     Ryd( 3p)     0.00328
   262    C   18  py     Val( 2p)     1.10014
   263    C   18  py     Ryd( 3p)     0.00273
   264    C   18  pz     Val( 2p)     1.09928
   265    C   18  pz     Ryd( 3p)     0.00305
   266    C   18  dxy    Ryd( 3d)     0.00046
   267    C   18  dxz    Ryd( 3d)     0.00047
   268    C   18  dyz    Ryd( 3d)     0.00045
   269    C   18  dx2y2  Ryd( 3d)     0.00060
   270    C   18  dz2    Ryd( 3d)     0.00057

   271    C   19  S      Cor( 1S)     1.99914
   272    C   19  S      Val( 2S)     0.95145
   273    C   19  S      Ryd( 3S)     0.00068
   274    C   19  S      Ryd( 4S)     0.00004
   275    C   19  px     Val( 2p)     1.05360
   276    C   19  px     Ryd( 3p)     0.00504
   277    C   19  py     Val( 2p)     1.10835
   278    C   19  py     Ryd( 3p)     0.00367
   279    C   19  pz     Val( 2p)     1.13019
   280    C   19  pz     Ryd( 3p)     0.00402
   281    C   19  dxy    Ryd( 3d)     0.00062
   282    C   19  dxz    Ryd( 3d)     0.00061
   283    C   19  dyz    Ryd( 3d)     0.00052
   284    C   19  dx2y2  Ryd( 3d)     0.00047
   285    C   19  dz2    Ryd( 3d)     0.00039

   286    C   20  S      Cor( 1S)     1.99901
   287    C   20  S      Val( 2S)     0.95823
   288    C   20  S      Ryd( 3S)     0.00060
   289    C   20  S      Ryd( 4S)     0.00004
   290    C   20  px     Val( 2p)     1.18189
   291    C   20  px     Ryd( 3p)     0.00328
   292    C   20  py     Val( 2p)     1.09989
   293    C   20  py     Ryd( 3p)     0.00275
   294    C   20  pz     Val( 2p)     1.09921
   295    C   20  pz     Ryd( 3p)     0.00306
   296    C   20  dxy    Ryd( 3d)     0.00046
   297    C   20  dxz    Ryd( 3d)     0.00047
   298    C   20  dyz    Ryd( 3d)     0.00045
   299    C   20  dx2y2  Ryd( 3d)     0.00060
   300    C   20  dz2    Ryd( 3d)     0.00057

   301    C   21  S      Cor( 1S)     1.99900
   302    C   21  S      Val( 2S)     0.96410
   303    C   21  S      Ryd( 3S)     0.00080
   304    C   21  S      Ryd( 4S)     0.00005
   305    C   21  px     Val( 2p)     1.09552
   306    C   21  px     Ryd( 3p)     0.00482
   307    C   21  py     Val( 2p)     1.09434
   308    C   21  py     Ryd( 3p)     0.00443
   309    C   21  pz     Val( 2p)     1.13840
   310    C   21  pz     Ryd( 3p)     0.00398
   311    C   21  dxy    Ryd( 3d)     0.00051
   312    C   21  dxz    Ryd( 3d)     0.00063
   313    C   21  dyz    Ryd( 3d)     0.00051
   314    C   21  dx2y2  Ryd( 3d)     0.00058
   315    C   21  dz2    Ryd( 3d)     0.00041

   316    C   22  S      Cor( 1S)     1.99906
   317    C   22  S      Val( 2S)     0.95506
   318    C   22  S      Ryd( 3S)     0.00062
   319    C   22  S      Ryd( 4S)     0.00004
   320    C   22  px     Val( 2p)     1.09210
   321    C   22  px     Ryd( 3p)     0.00439
   322    C   22  py     Val( 2p)     1.15185
   323    C   22  py     Ryd( 3p)     0.00411
   324    C   22  pz     Val( 2p)     1.08771
   325    C   22  pz     Ryd( 3p)     0.00419
   326    C   22  dxy    Ryd( 3d)     0.00062
   327    C   22  dxz    Ryd( 3d)     0.00050
   328    C   22  dyz    Ryd( 3d)     0.00048
   329    C   22  dx2y2  Ryd( 3d)     0.00047
   330    C   22  dz2    Ryd( 3d)     0.00045

   331    H   23  S      Val( 1S)     0.56983
   332    H   23  S      Ryd( 2S)     0.00133
   333    H   23  px     Ryd( 2p)     0.00033
   334    H   23  py     Ryd( 2p)     0.00040
   335    H   23  pz     Ryd( 2p)     0.00051

   336    H   24  S      Val( 1S)     0.56991
   337    H   24  S      Ryd( 2S)     0.00132
   338    H   24  px     Ryd( 2p)     0.00034
   339    H   24  py     Ryd( 2p)     0.00050
   340    H   24  pz     Ryd( 2p)     0.00039

   341    H   25  S      Val( 1S)     0.75173
   342    H   25  S      Ryd( 2S)     0.00100
   343    H   25  px     Ryd( 2p)     0.00014
   344    H   25  py     Ryd( 2p)     0.00019
   345    H   25  pz     Ryd( 2p)     0.00028

   346    H   26  S      Val( 1S)     0.74335
   347    H   26  S      Ryd( 2S)     0.00099
   348    H   26  px     Ryd( 2p)     0.00015
   349    H   26  py     Ryd( 2p)     0.00030
   350    H   26  pz     Ryd( 2p)     0.00015

   351    H   27  S      Val( 1S)     0.74474
   352    H   27  S      Ryd( 2S)     0.00155
   353    H   27  px     Ryd( 2p)     0.00006
   354    H   27  py     Ryd( 2p)     0.00025
   355    H   27  pz     Ryd( 2p)     0.00028

   356    H   28  S      Val( 1S)     0.74334
   357    H   28  S      Ryd( 2S)     0.00098
   358    H   28  px     Ryd( 2p)     0.00016
   359    H   28  py     Ryd( 2p)     0.00017
   360    H   28  pz     Ryd( 2p)     0.00027

   361    H   29  S      Val( 1S)     0.75176
   362    H   29  S      Ryd( 2S)     0.00098
   363    H   29  px     Ryd( 2p)     0.00014
   364    H   29  py     Ryd( 2p)     0.00031
   365    H   29  pz     Ryd( 2p)     0.00018

   366    H   30  S      Val( 1S)     0.57176
   367    H   30  S      Ryd( 2S)     0.00130
   368    H   30  px     Ryd( 2p)     0.00030
   369    H   30  py     Ryd( 2p)     0.00063
   370    H   30  pz     Ryd( 2p)     0.00030

   371    H   31  S      Val( 1S)     0.57176
   372    H   31  S      Ryd( 2S)     0.00130
   373    H   31  px     Ryd( 2p)     0.00031
   374    H   31  py     Ryd( 2p)     0.00029
   375    H   31  pz     Ryd( 2p)     0.00064

   376    H   32  S      Val( 1S)     0.75186
   377    H   32  S      Ryd( 2S)     0.00098
   378    H   32  px     Ryd( 2p)     0.00014
   379    H   32  py     Ryd( 2p)     0.00020
   380    H   32  pz     Ryd( 2p)     0.00028

   381    H   33  S      Val( 1S)     0.74343
   382    H   33  S      Ryd( 2S)     0.00099
   383    H   33  px     Ryd( 2p)     0.00015
   384    H   33  py     Ryd( 2p)     0.00030
   385    H   33  pz     Ryd( 2p)     0.00015

   386    H   34  S      Val( 1S)     0.74728
   387    H   34  S      Ryd( 2S)     0.00082
   388    H   34  px     Ryd( 2p)     0.00032
   389    H   34  py     Ryd( 2p)     0.00015
   390    H   34  pz     Ryd( 2p)     0.00015

   391    H   35  S      Val( 1S)     0.75621
   392    H   35  S      Ryd( 2S)     0.00074
   393    H   35  px     Ryd( 2p)     0.00007
   394    H   35  py     Ryd( 2p)     0.00026
   395    H   35  pz     Ryd( 2p)     0.00030

   396    H   36  S      Val( 1S)     0.74720
   397    H   36  S      Ryd( 2S)     0.00082
   398    H   36  px     Ryd( 2p)     0.00032
   399    H   36  py     Ryd( 2p)     0.00015
   400    H   36  pz     Ryd( 2p)     0.00015

   401    H   37  S      Val( 1S)     0.74328
   402    H   37  S      Ryd( 2S)     0.00099
   403    H   37  px     Ryd( 2p)     0.00015
   404    H   37  py     Ryd( 2p)     0.00017
   405    H   37  pz     Ryd( 2p)     0.00028

   406    H   38  S      Val( 1S)     0.75175
   407    H   38  S      Ryd( 2S)     0.00100
   408    H   38  px     Ryd( 2p)     0.00014
   409    H   38  py     Ryd( 2p)     0.00031
   410    H   38  pz     Ryd( 2p)     0.00017

 WARNING:  1 low occupancy (<1.9990e) core orbital  found on  C    2
           1 low occupancy (<1.9990e) core orbital  found on  C    4
           1 low occupancy (<1.9990e) core orbital  found on  C    5
           1 low occupancy (<1.9990e) core orbital  found on  C    7
           1 low occupancy (<1.9990e) core orbital  found on  C    8
           1 low occupancy (<1.9990e) core orbital  found on  C    9
           1 low occupancy (<1.9990e) core orbital  found on  C   11
           1 low occupancy (<1.9990e) core orbital  found on  C   12
           1 low occupancy (<1.9990e) core orbital  found on  C   14
           1 low occupancy (<1.9990e) core orbital  found on  C   17
           1 low occupancy (<1.9990e) core orbital  found on  C   21


 Summary of Natural Population Analysis:                  
                                                          
                                       Natural Population 
                Natural  -----------------------------------------------
    Atom  No    Charge         Core      Valence    Rydberg      Total
 -----------------------------------------------------------------------
      N    1   -0.74985      1.99948     5.73968    0.01068     7.74985
      C    2    0.17601      1.99898     3.80757    0.01744     5.82399
      C    3   -0.30062      1.99906     4.28571    0.01585     6.30062
      C    4   -0.30875      1.99900     4.29301    0.01674     6.30875
      C    5    0.31946      1.99870     3.65885    0.02300     5.68054
      O    6   -0.52212      1.99970     6.51100    0.01142     8.52212
      C    7    0.31673      1.99875     3.66238    0.02214     5.68327
      C    8   -0.37930      1.99895     4.36436    0.01599     6.37930
      C    9    0.31750      1.99875     3.66164    0.02212     5.68250
      O   10   -0.52354      1.99970     6.51242    0.01142     8.52354
      C   11    0.30904      1.99870     3.66932    0.02294     5.69096
      C   12   -0.30205      1.99900     4.28677    0.01627     6.30205
      C   13   -0.30021      1.99905     4.28572    0.01544     6.30021
      C   14    0.17399      1.99899     3.80963    0.01740     5.82601
      N   15   -0.76600      1.99949     5.75561    0.01090     7.76600
      C   16   -0.29905      1.99905     4.28458    0.01542     6.29905
      C   17   -0.30262      1.99900     4.28729    0.01633     6.30262
      C   18   -0.35101      1.99901     4.33973    0.01226     6.35101
      C   19   -0.25878      1.99914     4.24359    0.01605     6.25878
      C   20   -0.35053      1.99901     4.33922    0.01230     6.35053
      C   21   -0.30807      1.99900     4.29236    0.01671     6.30807
      C   22   -0.30164      1.99906     4.28671    0.01588     6.30164
      H   23    0.42761      0.00000     0.56983    0.00256     0.57239
      H   24    0.42753      0.00000     0.56991    0.00255     0.57247
      H   25    0.24665      0.00000     0.75173    0.00162     0.75335
      H   26    0.25505      0.00000     0.74335    0.00160     0.74495
      H   27    0.25312      0.00000     0.74474    0.00214     0.74688
      H   28    0.25508      0.00000     0.74334    0.00158     0.74492
      H   29    0.24664      0.00000     0.75176    0.00160     0.75336
      H   30    0.42570      0.00000     0.57176    0.00253     0.57430
      H   31    0.42571      0.00000     0.57176    0.00253     0.57429
      H   32    0.24654      0.00000     0.75186    0.00160     0.75346
      H   33    0.25498      0.00000     0.74343    0.00159     0.74502
      H   34    0.25128      0.00000     0.74728    0.00144     0.74872
      H   35    0.24242      0.00000     0.75621    0.00137     0.75758
      H   36    0.25136      0.00000     0.74720    0.00144     0.74864
      H   37    0.25513      0.00000     0.74328    0.00159     0.74487
      H   38    0.24663      0.00000     0.75175    0.00162     0.75337
 =======================================================================
   * Total *   -0.00000     43.97956   109.63634    0.38410   154.00000

                                 Natural Population      
 --------------------------------------------------------
   Core                      43.97956 ( 99.9535% of  44)
   Valence                  109.63634 ( 99.6694% of 110)
   Natural Minimal Basis    153.61590 ( 99.7506% of 154)
   Natural Rydberg Basis      0.38410 (  0.2494% of 154)
 --------------------------------------------------------

    Atom  No          Natural Electron Configuration
 ----------------------------------------------------------------------------
      N    1      [core]2S( 1.37)2p( 4.37)3p( 0.01)
      C    2      [core]2S( 0.85)2p( 2.96)3p( 0.01)
      C    3      [core]2S( 0.96)2p( 3.33)3p( 0.01)
      C    4      [core]2S( 0.96)2p( 3.33)3p( 0.01)
      C    5      [core]2S( 0.84)2p( 2.82)3p( 0.02)3d( 0.01)
      O    6      [core]2S( 1.57)2p( 4.94)3p( 0.01)3d( 0.01)
      C    7      [core]2S( 0.83)2p( 2.83)3p( 0.01)3d( 0.01)
      C    8      [core]2S( 0.96)2p( 3.41)3p( 0.01)
      C    9      [core]2S( 0.83)2p( 2.83)3p( 0.01)3d( 0.01)
      O   10      [core]2S( 1.57)2p( 4.94)3p( 0.01)3d( 0.01)
      C   11      [core]2S( 0.84)2p( 2.83)3p( 0.02)3d( 0.01)
      C   12      [core]2S( 0.96)2p( 3.32)3p( 0.01)
      C   13      [core]2S( 0.96)2p( 3.33)3p( 0.01)
      C   14      [core]2S( 0.85)2p( 2.96)3p( 0.01)
      N   15      [core]2S( 1.37)2p( 4.39)3p( 0.01)
      C   16      [core]2S( 0.96)2p( 3.33)3p( 0.01)
      C   17      [core]2S( 0.96)2p( 3.32)3p( 0.01)
      C   18      [core]2S( 0.96)2p( 3.38)3p( 0.01)
      C   19      [core]2S( 0.95)2p( 3.29)3p( 0.01)
      C   20      [core]2S( 0.96)2p( 3.38)3p( 0.01)
      C   21      [core]2S( 0.96)2p( 3.33)3p( 0.01)
      C   22      [core]2S( 0.96)2p( 3.33)3p( 0.01)
      H   23            1S( 0.57)
      H   24            1S( 0.57)
      H   25            1S( 0.75)
      H   26            1S( 0.74)
      H   27            1S( 0.74)
      H   28            1S( 0.74)
      H   29            1S( 0.75)
      H   30            1S( 0.57)
      H   31            1S( 0.57)
      H   32            1S( 0.75)
      H   33            1S( 0.74)
      H   34            1S( 0.75)
      H   35            1S( 0.76)
      H   36            1S( 0.75)
      H   37            1S( 0.74)
      H   38            1S( 0.75)


 NBO analysis skipped by request.
 1\1\GINC-DRG2-W001\SP\RB3LYP TD-FC\6-31G(d,p)\C18H16N2O2\QDUEZ\19-Jul-
 2024\0\\# TD(NStates=10, Root=1) B3LYP/6-31G** SCRF=(Solvent=water) vo
 lume pop=NPA density=current Geom=AllCheck Guess=Read\\WUPRYUDHUFLKFL-
 UHFFFAOYSA-N_conf_3\\0,1\N,0,7.4850859843,0.4805214712,-0.2225808181\C
 ,0,6.191464613,-0.0429945765,-0.2081653442\C,0,5.5499611207,-0.3453025
 908,1.008014632\C,0,4.2358363018,-0.8071531875,1.0259414517\C,0,3.5411
 064587,-0.9759581061,-0.1713114005\O,0,2.2573959732,-1.5237109494,-0.1
 579034303\C,0,1.1622352175,-0.6904318084,-0.0947044637\C,0,-0.07687263
 08,-1.3341403227,-0.0944344653\C,0,-1.2477071012,-0.5757973894,-0.0322
 741399\O,0,-2.4188798549,-1.3010288735,-0.033038611\C,0,-3.643509653,-
 0.6324012675,0.0089459961\C,0,-4.2832705709,-0.2771264516,-1.178172364
 9\C,0,-5.5432509312,0.3155452591,-1.138772643\C,0,-6.1862167206,0.5603
 575095,0.0896461058\N,0,-7.476168102,1.0916829119,0.1278836246\C,0,-5.
 5241049406,0.1923121516,1.2761229912\C,0,-4.2632337915,-0.3985419857,1
 .2356754205\C,0,-1.1931750685,0.8217556106,0.0293748598\C,0,0.05812114
 65,1.4394877494,0.027005635\C,0,1.2436353955,0.705930446,-0.0335666849
 \C,0,4.1599441224,-0.6867277655,-1.3868346806\C,0,5.4736733374,-0.2240
 695718,-1.4055583299\H,0,7.9968911787,0.3231485815,-1.0815609285\H,0,8
 .04785504,0.2412833219,0.5838848691\H,0,6.0887451126,-0.2191158097,1.9
 430600297\H,0,3.7492757107,-1.0473049721,1.9660498867\H,0,-0.129527605
 4,-2.4160351935,-0.1419280033\H,0,-3.7946405837,-0.4685186476,-2.12839
 77788\H,0,-6.038212386,0.5879388668,-2.0669668984\H,0,-7.7277713101,1.
 6520879448,-0.6763639708\H,0,-7.7123809379,1.568385963,0.9889206964\H,
 0,-6.0045618545,0.3691821512,2.2345028829\H,0,-3.7582486545,-0.6824993
 231,2.1535388134\H,0,-2.1020305478,1.4081106187,0.0774978754\H,0,0.110
 9139828,2.5233366803,0.0746708673\H,0,2.2051093438,1.2036043253,-0.034
 3373957\H,0,3.6149284193,-0.8336660713,-2.3139231771\H,0,5.9515847858,
 -0.002146699,-2.3556633315\\Version=ES64L-G16RevA.03\State=1-A\HF=-955
 .5283075\RMSD=9.954e-09\Dipole=0.7050769,1.7119496,0.0202657\Quadrupol
 e=56.2972824,-32.2555245,-24.0417579,-16.7233993,-2.648571,-0.10672\PG
 =C01 [X(C18H16N2O2)]\\@


 WHERE THERE IS MUCH DESIRE TO LEARN, THERE OF NECESSITY WILL BE
 MUCH ARGUING, MUCH WRITING, MANY OPINIONS; FOR OPINION IN GOOD MEN
 IS BUT KNOWLEDGE IN THE MAKING. -- JOHN MILTON.
 Job cpu time:       0 days  1 hours 16 minutes 48.9 seconds.
 Elapsed time:       0 days  0 hours 25 minutes 40.6 seconds.
 File lengths (MBytes):  RWF=   1372 Int=      0 D2E=      0 Chk=     84 Scr=      1
 Normal termination of Gaussian 16 at Fri Jul 19 14:55:50 2024.
