 Entering Gaussian System, Link 0=g16
 Initial command:
 /opt/sw/arch/manual/gaussian/G16_A03/g16/l1.exe "/scratch/1032103.jesse.materianova.be/Gau-54323.inp" -scrdir="/scratch/1032103.jesse.materianova.be/"
 Entering Link 1 = /opt/sw/arch/manual/gaussian/G16_A03/g16/l1.exe PID=     54324.
  
 Copyright (c) 1988,1990,1992,1993,1995,1998,2003,2009,2016,
            Gaussian, Inc.  All Rights Reserved.
  
 This is part of the Gaussian(R) 16 program.  It is based on
 the Gaussian(R) 09 system (copyright 2009, Gaussian, Inc.),
 the Gaussian(R) 03 system (copyright 2003, Gaussian, Inc.),
 the Gaussian(R) 98 system (copyright 1998, Gaussian, Inc.),
 the Gaussian(R) 94 system (copyright 1995, Gaussian, Inc.),
 the Gaussian 92(TM) system (copyright 1992, Gaussian, Inc.),
 the Gaussian 90(TM) system (copyright 1990, Gaussian, Inc.),
 the Gaussian 88(TM) system (copyright 1988, Gaussian, Inc.),
 the Gaussian 86(TM) system (copyright 1986, Carnegie Mellon
 University), and the Gaussian 82(TM) system (copyright 1983,
 Carnegie Mellon University). Gaussian is a federally registered
 trademark of Gaussian, Inc.
  
 This software contains proprietary and confidential information,
 including trade secrets, belonging to Gaussian, Inc.
  
 This software is provided under written license and may be
 used, copied, transmitted, or stored only in accord with that
 written license.
  
 The following legend is applicable only to US Government
 contracts under FAR:
  
                    RESTRICTED RIGHTS LEGEND
  
 Use, reproduction and disclosure by the US Government is
 subject to restrictions as set forth in subparagraphs (a)
 and (c) of the Commercial Computer Software - Restricted
 Rights clause in FAR 52.227-19.
  
 Gaussian, Inc.
 340 Quinnipiac St., Bldg. 40, Wallingford CT 06492
  
  
 ---------------------------------------------------------------
 Warning -- This program may not be used in any manner that
 competes with the business of Gaussian, Inc. or will provide
 assistance to any competitor of Gaussian, Inc.  The licensee
 of this program is prohibited from giving any competitor of
 Gaussian, Inc. access to this program.  By using this program,
 the user acknowledges that Gaussian, Inc. is engaged in the
 business of creating and licensing software in the field of
 computational chemistry and represents and warrants to the
 licensee that it is not a competitor of Gaussian, Inc. and that
 it will not use this program in any manner prohibited above.
 ---------------------------------------------------------------
  

 Cite this work as:
 Gaussian 16, Revision A.03,
 M. J. Frisch, G. W. Trucks, H. B. Schlegel, G. E. Scuseria, 
 M. A. Robb, J. R. Cheeseman, G. Scalmani, V. Barone, 
 G. A. Petersson, H. Nakatsuji, X. Li, M. Caricato, A. V. Marenich, 
 J. Bloino, B. G. Janesko, R. Gomperts, B. Mennucci, H. P. Hratchian, 
 J. V. Ortiz, A. F. Izmaylov, J. L. Sonnenberg, D. Williams-Young, 
 F. Ding, F. Lipparini, F. Egidi, J. Goings, B. Peng, A. Petrone, 
 T. Henderson, D. Ranasinghe, V. G. Zakrzewski, J. Gao, N. Rega, 
 G. Zheng, W. Liang, M. Hada, M. Ehara, K. Toyota, R. Fukuda, 
 J. Hasegawa, M. Ishida, T. Nakajima, Y. Honda, O. Kitao, H. Nakai, 
 T. Vreven, K. Throssell, J. A. Montgomery, Jr., J. E. Peralta, 
 F. Ogliaro, M. J. Bearpark, J. J. Heyd, E. N. Brothers, K. N. Kudin, 
 V. N. Staroverov, T. A. Keith, R. Kobayashi, J. Normand, 
 K. Raghavachari, A. P. Rendell, J. C. Burant, S. S. Iyengar, 
 J. Tomasi, M. Cossi, J. M. Millam, M. Klene, C. Adamo, R. Cammi, 
 J. W. Ochterski, R. L. Martin, K. Morokuma, O. Farkas, 
 J. B. Foresman, and D. J. Fox, Gaussian, Inc., Wallingford CT, 2016.
 
 ******************************************
 Gaussian 16:  EM64L-G16RevA.03 25-Dec-2016
                11-Jul-2024 
 ******************************************
 %nprocshared=4
 Will use up to    4 processors via shared memory.
 %mem=8GB
 %Chk=UDGSVBYJWHOHNN-UHFFFAOYSA-N_conf_3_0.chk
 -------------------------------------------------------
 # opt=CalcFc B3LYP/6-31G** SCRF=(Solvent=water) scf=xqc
 -------------------------------------------------------
 1/10=4,18=20,19=15,26=3,38=1/1,3;
 2/9=110,12=2,17=6,18=5,40=1/2;
 3/5=1,6=6,7=101,11=2,25=1,30=1,70=2201,71=2,72=1,74=-5,140=1/1,2,3;
 4//1;
 5/5=2,8=3,13=1,38=5,53=1/2,8;
 8/6=4,10=90,11=11/1;
 11/6=1,8=1,9=11,15=111,16=1/1,2,10;
 10/6=1,13=1/2;
 6/7=2,8=2,9=2,10=2,28=1/1;
 7/10=1,18=20,25=1/1,2,3,16;
 1/10=4,18=20,19=15,26=3/3(2);
 2/9=110/2;
 99//99;
 2/9=110/2;
 3/5=1,6=6,7=101,11=2,25=1,30=1,70=2205,71=1,72=1,74=-5/1,2,3;
 4/5=5,16=3,69=1/1;
 5/5=2,8=3,13=1,38=5,53=1/2,8;
 7//1,2,3,16;
 1/18=20,19=15,26=3/3(-5);
 2/9=110/2;
 6/7=2,8=2,9=2,10=2,19=2,28=1/1;
 99/9=1/99;
 ----------------------------------
 UDGSVBYJWHOHNN-UHFFFAOYSA-N_conf_3
 ----------------------------------
 Symbolic Z-matrix:
 Charge =  0 Multiplicity = 1
 N                     3.03396  -1.34214  -0.89311 
 C                     1.8679   -1.08381  -0.04294 
 C                     0.88933  -0.09121  -0.70752 
 N                    -0.3028    0.1729    0.13182 
 C                    -0.9094    1.47071  -0.22364 
 C                    -0.14069   2.64386   0.37818 
 C                    -1.28485  -0.91943  -0.012 
 C                    -2.25553  -0.97438   1.16415 
 H                     2.73268  -1.81004  -1.74674 
 H                     3.6525   -1.9953   -0.41364 
 H                     1.38089  -2.03998   0.17116 
 H                     2.21436  -0.67081   0.91121 
 H                     1.45231   0.83373  -0.87906 
 H                     0.5879   -0.45217  -1.70031 
 H                    -0.99012   1.58608  -1.31197 
 H                    -1.92898   1.54161   0.17041 
 H                    -0.67284   3.57936   0.17548 
 H                     0.86504   2.74272  -0.03934 
 H                    -0.05328   2.53874   1.4649 
 H                    -0.77928  -1.89112  -0.03661 
 H                    -1.83676  -0.83463  -0.95675 
 H                    -2.90084  -1.85446   1.07207 
 H                    -2.90519  -0.09604   1.2101 
 H                    -1.7163   -1.05419   2.11413 
 

 GradGradGradGradGradGradGradGradGradGradGradGradGradGradGradGradGradGrad
 Berny optimization.
 Initialization pass.
                           ----------------------------
                           !    Initial Parameters    !
                           ! (Angstroms and Degrees)  !
 --------------------------                            --------------------------
 ! Name  Definition              Value          Derivative Info.                !
 --------------------------------------------------------------------------------
 ! R1    R(1,2)                  1.466          calculate D2E/DX2 analytically  !
 ! R2    R(1,9)                  1.019          calculate D2E/DX2 analytically  !
 ! R3    R(1,10)                 1.0194         calculate D2E/DX2 analytically  !
 ! R4    R(2,3)                  1.5442         calculate D2E/DX2 analytically  !
 ! R5    R(2,11)                 1.0942         calculate D2E/DX2 analytically  !
 ! R6    R(2,12)                 1.0959         calculate D2E/DX2 analytically  !
 ! R7    R(3,4)                  1.4817         calculate D2E/DX2 analytically  !
 ! R8    R(3,13)                 1.0963         calculate D2E/DX2 analytically  !
 ! R9    R(3,14)                 1.0985         calculate D2E/DX2 analytically  !
 ! R10   R(4,5)                  1.476          calculate D2E/DX2 analytically  !
 ! R11   R(4,7)                  1.4759         calculate D2E/DX2 analytically  !
 ! R12   R(5,6)                  1.5262         calculate D2E/DX2 analytically  !
 ! R13   R(5,15)                 1.0974         calculate D2E/DX2 analytically  !
 ! R14   R(5,16)                 1.0954         calculate D2E/DX2 analytically  !
 ! R15   R(6,17)                 1.0952         calculate D2E/DX2 analytically  !
 ! R16   R(6,18)                 1.0934         calculate D2E/DX2 analytically  !
 ! R17   R(6,19)                 1.0953         calculate D2E/DX2 analytically  !
 ! R18   R(7,8)                  1.526          calculate D2E/DX2 analytically  !
 ! R19   R(7,20)                 1.0956         calculate D2E/DX2 analytically  !
 ! R20   R(7,21)                 1.0974         calculate D2E/DX2 analytically  !
 ! R21   R(8,22)                 1.0952         calculate D2E/DX2 analytically  !
 ! R22   R(8,23)                 1.0935         calculate D2E/DX2 analytically  !
 ! R23   R(8,24)                 1.0953         calculate D2E/DX2 analytically  !
 ! A1    A(2,1,9)              109.3622         calculate D2E/DX2 analytically  !
 ! A2    A(2,1,10)             108.8305         calculate D2E/DX2 analytically  !
 ! A3    A(9,1,10)             106.2135         calculate D2E/DX2 analytically  !
 ! A4    A(1,2,3)              111.5762         calculate D2E/DX2 analytically  !
 ! A5    A(1,2,11)             108.2707         calculate D2E/DX2 analytically  !
 ! A6    A(1,2,12)             108.654          calculate D2E/DX2 analytically  !
 ! A7    A(3,2,11)             111.3377         calculate D2E/DX2 analytically  !
 ! A8    A(3,2,12)             109.439          calculate D2E/DX2 analytically  !
 ! A9    A(11,2,12)            107.4376         calculate D2E/DX2 analytically  !
 ! A10   A(2,3,4)              112.3739         calculate D2E/DX2 analytically  !
 ! A11   A(2,3,13)             106.5129         calculate D2E/DX2 analytically  !
 ! A12   A(2,3,14)             110.5863         calculate D2E/DX2 analytically  !
 ! A13   A(4,3,13)             110.5738         calculate D2E/DX2 analytically  !
 ! A14   A(4,3,14)             110.4718         calculate D2E/DX2 analytically  !
 ! A15   A(13,3,14)            106.0648         calculate D2E/DX2 analytically  !
 ! A16   A(3,4,5)              110.5459         calculate D2E/DX2 analytically  !
 ! A17   A(3,4,7)              110.3789         calculate D2E/DX2 analytically  !
 ! A18   A(5,4,7)              110.7217         calculate D2E/DX2 analytically  !
 ! A19   A(4,5,6)              111.9566         calculate D2E/DX2 analytically  !
 ! A20   A(4,5,15)             111.193          calculate D2E/DX2 analytically  !
 ! A21   A(4,5,16)             110.6595         calculate D2E/DX2 analytically  !
 ! A22   A(6,5,15)             110.3216         calculate D2E/DX2 analytically  !
 ! A23   A(6,5,16)             106.0931         calculate D2E/DX2 analytically  !
 ! A24   A(15,5,16)            106.3495         calculate D2E/DX2 analytically  !
 ! A25   A(5,6,17)             109.8083         calculate D2E/DX2 analytically  !
 ! A26   A(5,6,18)             112.4699         calculate D2E/DX2 analytically  !
 ! A27   A(5,6,19)             110.9564         calculate D2E/DX2 analytically  !
 ! A28   A(17,6,18)            107.3993         calculate D2E/DX2 analytically  !
 ! A29   A(17,6,19)            107.7214         calculate D2E/DX2 analytically  !
 ! A30   A(18,6,19)            108.308          calculate D2E/DX2 analytically  !
 ! A31   A(4,7,8)              112.012          calculate D2E/DX2 analytically  !
 ! A32   A(4,7,20)             110.5813         calculate D2E/DX2 analytically  !
 ! A33   A(4,7,21)             111.1824         calculate D2E/DX2 analytically  !
 ! A34   A(8,7,20)             106.1949         calculate D2E/DX2 analytically  !
 ! A35   A(8,7,21)             110.2675         calculate D2E/DX2 analytically  !
 ! A36   A(20,7,21)            106.3355         calculate D2E/DX2 analytically  !
 ! A37   A(7,8,22)             109.8124         calculate D2E/DX2 analytically  !
 ! A38   A(7,8,23)             112.4201         calculate D2E/DX2 analytically  !
 ! A39   A(7,8,24)             110.9757         calculate D2E/DX2 analytically  !
 ! A40   A(22,8,23)            107.3943         calculate D2E/DX2 analytically  !
 ! A41   A(22,8,24)            107.7254         calculate D2E/DX2 analytically  !
 ! A42   A(23,8,24)            108.3369         calculate D2E/DX2 analytically  !
 ! D1    D(9,1,2,3)            -64.7203         calculate D2E/DX2 analytically  !
 ! D2    D(9,1,2,11)            58.1414         calculate D2E/DX2 analytically  !
 ! D3    D(9,1,2,12)           174.5345         calculate D2E/DX2 analytically  !
 ! D4    D(10,1,2,3)           179.6514         calculate D2E/DX2 analytically  !
 ! D5    D(10,1,2,11)          -57.487          calculate D2E/DX2 analytically  !
 ! D6    D(10,1,2,12)           58.9062         calculate D2E/DX2 analytically  !
 ! D7    D(1,2,3,4)            179.4642         calculate D2E/DX2 analytically  !
 ! D8    D(1,2,3,13)           -59.3106         calculate D2E/DX2 analytically  !
 ! D9    D(1,2,3,14)            55.503          calculate D2E/DX2 analytically  !
 ! D10   D(11,2,3,4)            58.3719         calculate D2E/DX2 analytically  !
 ! D11   D(11,2,3,13)          179.5971         calculate D2E/DX2 analytically  !
 ! D12   D(11,2,3,14)          -65.5893         calculate D2E/DX2 analytically  !
 ! D13   D(12,2,3,4)           -60.2504         calculate D2E/DX2 analytically  !
 ! D14   D(12,2,3,13)           60.9748         calculate D2E/DX2 analytically  !
 ! D15   D(12,2,3,14)          175.7884         calculate D2E/DX2 analytically  !
 ! D16   D(2,3,4,5)            156.7663         calculate D2E/DX2 analytically  !
 ! D17   D(2,3,4,7)            -80.3918         calculate D2E/DX2 analytically  !
 ! D18   D(13,3,4,5)            37.8965         calculate D2E/DX2 analytically  !
 ! D19   D(13,3,4,7)           160.7384         calculate D2E/DX2 analytically  !
 ! D20   D(14,3,4,5)           -79.2089         calculate D2E/DX2 analytically  !
 ! D21   D(14,3,4,7)            43.633          calculate D2E/DX2 analytically  !
 ! D22   D(3,4,5,6)            -78.3027         calculate D2E/DX2 analytically  !
 ! D23   D(3,4,5,15)            45.6096         calculate D2E/DX2 analytically  !
 ! D24   D(3,4,5,16)           163.5702         calculate D2E/DX2 analytically  !
 ! D25   D(7,4,5,6)            159.0552         calculate D2E/DX2 analytically  !
 ! D26   D(7,4,5,15)           -77.0325         calculate D2E/DX2 analytically  !
 ! D27   D(7,4,5,16)            40.9281         calculate D2E/DX2 analytically  !
 ! D28   D(3,4,7,8)            159.0221         calculate D2E/DX2 analytically  !
 ! D29   D(3,4,7,20)            40.7832         calculate D2E/DX2 analytically  !
 ! D30   D(3,4,7,21)           -77.1034         calculate D2E/DX2 analytically  !
 ! D31   D(5,4,7,8)            -78.2387         calculate D2E/DX2 analytically  !
 ! D32   D(5,4,7,20)           163.5224         calculate D2E/DX2 analytically  !
 ! D33   D(5,4,7,21)            45.6358         calculate D2E/DX2 analytically  !
 ! D34   D(4,5,6,17)          -174.5306         calculate D2E/DX2 analytically  !
 ! D35   D(4,5,6,18)            65.9367         calculate D2E/DX2 analytically  !
 ! D36   D(4,5,6,19)           -55.5577         calculate D2E/DX2 analytically  !
 ! D37   D(15,5,6,17)           61.0703         calculate D2E/DX2 analytically  !
 ! D38   D(15,5,6,18)          -58.4624         calculate D2E/DX2 analytically  !
 ! D39   D(15,5,6,19)         -179.9568         calculate D2E/DX2 analytically  !
 ! D40   D(16,5,6,17)          -53.718          calculate D2E/DX2 analytically  !
 ! D41   D(16,5,6,18)         -173.2507         calculate D2E/DX2 analytically  !
 ! D42   D(16,5,6,19)           65.2549         calculate D2E/DX2 analytically  !
 ! D43   D(4,7,8,22)          -174.3295         calculate D2E/DX2 analytically  !
 ! D44   D(4,7,8,23)            66.1737         calculate D2E/DX2 analytically  !
 ! D45   D(4,7,8,24)           -55.337          calculate D2E/DX2 analytically  !
 ! D46   D(20,7,8,22)          -53.5153         calculate D2E/DX2 analytically  !
 ! D47   D(20,7,8,23)         -173.0121         calculate D2E/DX2 analytically  !
 ! D48   D(20,7,8,24)           65.4773         calculate D2E/DX2 analytically  !
 ! D49   D(21,7,8,22)           61.2853         calculate D2E/DX2 analytically  !
 ! D50   D(21,7,8,23)          -58.2116         calculate D2E/DX2 analytically  !
 ! D51   D(21,7,8,24)         -179.7222         calculate D2E/DX2 analytically  !
 --------------------------------------------------------------------------------
 Trust Radius=3.00D-01 FncErr=1.00D-07 GrdErr=1.00D-06 EigMax=2.50D+02 EigMin=1.00D-04
 Number of steps in this run=    126 maximum allowed number of steps=    144.
 GradGradGradGradGradGradGradGradGradGradGradGradGradGradGradGradGradGrad

                          Input orientation:                          
 ---------------------------------------------------------------------
 Center     Atomic      Atomic             Coordinates (Angstroms)
 Number     Number       Type             X           Y           Z
 ---------------------------------------------------------------------
      1          7           0        3.033965   -1.342141   -0.893113
      2          6           0        1.867900   -1.083812   -0.042943
      3          6           0        0.889325   -0.091214   -0.707519
      4          7           0       -0.302804    0.172897    0.131824
      5          6           0       -0.909399    1.470705   -0.223640
      6          6           0       -0.140692    2.643860    0.378178
      7          6           0       -1.284852   -0.919428   -0.012001
      8          6           0       -2.255529   -0.974379    1.164153
      9          1           0        2.732680   -1.810044   -1.746743
     10          1           0        3.652504   -1.995300   -0.413638
     11          1           0        1.380890   -2.039979    0.171161
     12          1           0        2.214364   -0.670807    0.911213
     13          1           0        1.452308    0.833734   -0.879056
     14          1           0        0.587896   -0.452173   -1.700307
     15          1           0       -0.990122    1.586083   -1.311969
     16          1           0       -1.928980    1.541615    0.170414
     17          1           0       -0.672844    3.579363    0.175480
     18          1           0        0.865045    2.742718   -0.039339
     19          1           0       -0.053282    2.538744    1.464898
     20          1           0       -0.779280   -1.891119   -0.036612
     21          1           0       -1.836765   -0.834628   -0.956748
     22          1           0       -2.900836   -1.854456    1.072073
     23          1           0       -2.905194   -0.096044    1.210097
     24          1           0       -1.716299   -1.054195    2.114134
 ---------------------------------------------------------------------
                    Distance matrix (angstroms):
                    1          2          3          4          5
     1  N    0.000000
     2  C    1.466026   0.000000
     3  C    2.489728   1.544190   0.000000
     4  N    3.805241   2.514322   1.481696   0.000000
     5  C    4.889828   3.777777   2.430872   1.476015   0.000000
     6  C    5.251936   4.255270   3.117739   2.488499   1.526233
     7  C    4.428004   3.157186   2.428318   1.475899   2.428681
     8  C    5.687384   4.297873   3.764737   2.488992   3.117126
     9  H    1.019014   2.044063   2.726228   4.083532   5.133020
    10  H    1.019364   2.037900   3.368541   4.543464   5.732386
    11  H    2.086220   1.094200   2.193491   2.780862   4.210249
    12  H    2.092374   1.095913   2.170703   2.766842   3.953715
    13  H    2.690032   2.132788   1.096313   2.130493   2.532382
    14  H    2.725226   2.187289   1.098535   2.130907   2.849544
    15  H    4.994318   4.111819   2.590561   2.134020   1.097400
    16  H    5.837633   4.621113   3.373387   2.125871   1.095377
    17  H    6.253281   5.314912   4.085730   3.426784   2.159096
    18  H    4.703107   3.955763   2.911739   2.827923   2.191035
    19  H    5.491136   4.368917   3.539008   2.727009   2.173662
    20  H    3.946619   2.767552   2.544409   2.124984   3.369535
    21  H    4.897512   3.823829   2.836608   2.133807   2.590756
    22  H    6.272661   4.957619   4.543269   3.426952   4.086733
    23  H    6.422605   5.032715   4.251547   2.829741   2.914362
    24  H    5.629516   4.183340   3.959588   2.726403   3.534317
                    6          7          8          9         10
     6  C    0.000000
     7  C    3.762760   0.000000
     8  C    4.264029   1.525966   0.000000
     9  H    5.710413   4.465768   5.835570   0.000000
    10  H    6.044593   5.069151   6.199722   1.630204   0.000000
    11  H    4.929139   2.897475   3.917279   2.357660   2.346107
    12  H    4.100906   3.627485   4.487324   2.937897   2.361728
    13  H    2.719345   3.364135   4.603480   3.062972   3.613988
    14  H    3.799521   2.564350   4.069754   2.538911   3.664502
    15  H    2.167260   2.838022   3.780000   5.057862   5.931886
    16  H    2.110944   2.550472   2.724771   6.053113   6.633539
    17  H    1.095189   4.544098   4.921274   6.658697   7.080435
    18  H    1.093435   4.246659   5.000319   5.208736   5.509886
    19  H    1.095286   3.956886   4.157207   6.081791   6.149740
    20  H    4.598464   1.095624   2.112240   3.907043   4.449012
    21  H    4.093723   1.097426   2.166359   4.738708   5.636861
    22  H    5.323038   2.158912   1.095187   6.299539   6.721119
    23  H    3.980155   2.190204   1.093457   6.592899   7.017627
    24  H    4.378549   2.173651   1.095264   5.938947   6.008274
                   11         12         13         14         15
    11  H    0.000000
    12  H    1.765499   0.000000
    13  H    3.060438   2.459560   0.000000
    14  H    2.579217   3.084353   1.753630   0.000000
    15  H    4.579268   4.506087   2.592085   2.606806   0.000000
    16  H    4.876787   4.755091   3.610483   3.716107   1.755247
    17  H    5.982879   5.190493   3.628608   4.621831   2.507256
    18  H    4.815039   3.791617   2.166615   3.611503   2.529631
    19  H    4.969437   3.968627   3.266187   4.401729   3.081594
    20  H    2.175239   3.368893   3.621397   2.589907   3.709706
    21  H    3.616400   4.464052   3.688830   2.564787   2.588983
    22  H    4.379411   5.252825   5.475685   4.671589   4.601282
    23  H    4.819625   5.160384   4.921064   4.560588   3.585787
    24  H    3.786752   4.128452   4.750108   4.496855   4.385953
                   16         17         18         19         20
    16  H    0.000000
    17  H    2.393809   0.000000
    18  H    3.048478   1.763866   0.000000
    19  H    2.487609   1.768995   1.774164   0.000000
    20  H    3.626062   5.475626   4.916935   4.733422   0.000000
    21  H    2.631640   4.703187   4.575896   4.519383   1.755305
    22  H    3.645654   5.940894   6.045751   5.250055   2.394061
    23  H    2.171604   4.422945   4.882045   3.891071   3.048948
    24  H    3.249847   5.130013   5.071225   4.012025   2.490814
                   21         22         23         24
    21  H    0.000000
    22  H    2.507670   0.000000
    23  H    2.526314   1.763826   0.000000
    24  H    3.081077   1.769022   1.774488   0.000000
 Stoichiometry    C6H16N2
 Framework group  C1[X(C6H16N2)]
 Deg. of freedom    66
 Full point group                 C1      NOp   1
 Largest Abelian subgroup         C1      NOp   1
 Largest concise Abelian subgroup C1      NOp   1
                         Standard orientation:                         
 ---------------------------------------------------------------------
 Center     Atomic      Atomic             Coordinates (Angstroms)
 Number     Number       Type             X           Y           Z
 ---------------------------------------------------------------------
      1          7           0       -3.320625    0.076471    0.009324
      2          6           0       -1.978991   -0.272984   -0.467258
      3          6           0       -0.880530    0.349543    0.421768
      4          7           0        0.483501   -0.003146   -0.036984
      5          6           0        1.463303    0.994034    0.436557
      6          6           0        1.434788    2.266627   -0.405512
      7          6           0        0.848473   -1.355520    0.427943
      8          6           0        1.972017   -1.963424   -0.406726
      9          1           0       -3.470105   -0.335024    0.929496
     10          1           0       -4.010553   -0.349512   -0.608447
     11          1           0       -1.898099   -1.363839   -0.494897
     12          1           0       -1.866224    0.090831   -1.494850
     13          1           0       -1.029891    1.435091    0.387421
     14          1           0       -1.020734    0.056450    1.471157
     15          1           0        1.304750    1.234145    1.495564
     16          1           0        2.482864    0.601234    0.358744
     17          1           0        2.237498    2.940290   -0.087277
     18          1           0        0.492102    2.811836   -0.307082
     19          1           0        1.591374    2.038686   -1.465311
     20          1           0       -0.004000   -2.037574    0.335846
     21          1           0        1.124885   -1.348576    1.489966
     22          1           0        2.144803   -2.999871   -0.097926
     23          1           0        2.916742   -1.425518   -0.289245
     24          1           0        1.710083   -1.971579   -1.470177
 ---------------------------------------------------------------------
 Rotational constants (GHZ):           2.2886799           1.2060885           0.8672928
 Standard basis: 6-31G(d,p) (6D, 7F)
 There are   200 symmetry adapted cartesian basis functions of A   symmetry.
 There are   200 symmetry adapted basis functions of A   symmetry.
   200 basis functions,   336 primitive gaussians,   200 cartesian basis functions
    33 alpha electrons       33 beta electrons
       nuclear repulsion energy       409.2904294599 Hartrees.
 NAtoms=   24 NActive=   24 NUniq=   24 SFac= 1.00D+00 NAtFMM=   60 NAOKFM=F Big=F
 Integral buffers will be    131072 words long.
 Raffenetti 2 integral format.
 Two-electron integral symmetry is turned on.
 Force inversion solution in PCM.
 ------------------------------------------------------------------------------
 Polarizable Continuum Model (PCM)
 =================================
 Model                : PCM.
 Atomic radii         : UFF (Universal Force Field).
 Polarization charges : Total charges.
 Charge compensation  : None.
 Solution method      : Matrix inversion.
 Cavity type          : Scaled VdW (van der Waals Surface) (Alpha=1.100).
 Cavity algorithm     : GePol (No added spheres)
                        Default sphere list used, NSphG=   24.
                        Lebedev-Laikov grids with approx.  5.0 points / Ang**2.
                        Smoothing algorithm: York/Karplus (Gamma=1.0000).
                        Polarization charges: spherical gaussians, with
                                              point-specific exponents (IZeta= 3).
                        Self-potential: point-specific (ISelfS= 7).
                        Self-field    : sphere-specific E.n sum rule (ISelfD= 2).
 1st derivatives      : Analytical E(r).r(x)/FMM algorithm (CHGder, D1EAlg=3).
                        Cavity 1st derivative terms included.
 2nd derivatives      : Analytical E(r).r(xy)/FMM algorithm (CHGder, D2EAlg=3).
                        Cavity 2nd derivative terms included.
 Solvent              : Water, Eps=  78.355300 Eps(inf)=   1.777849
 ------------------------------------------------------------------------------
 One-electron integrals computed using PRISM.
 NBasis=   200 RedAO= T EigKep=  3.57D-03  NBF=   200
 NBsUse=   200 1.00D-06 EigRej= -1.00D+00 NBFU=   200
 ExpMin= 1.61D-01 ExpMax= 4.17D+03 ExpMxC= 6.27D+02 IAcc=3 IRadAn=         5 AccDes= 0.00D+00
 Harris functional with IExCor=  402 and IRadAn=       5 diagonalized for initial guess.
 HarFok:  IExCor=  402 AccDes= 0.00D+00 IRadAn=         5 IDoV= 1 UseB2=F ITyADJ=14
 ICtDFT=  3500011 ScaDFX=  1.000000  1.000000  1.000000  1.000000
 FoFCou: FMM=F IPFlag=           0 FMFlag=      100000 FMFlg1=           0
         NFxFlg=           0 DoJE=T BraDBF=F KetDBF=T FulRan=T
         wScrn=  0.000000 ICntrl=       500 IOpCl=  0 I1Cent=   200000004 NGrid=           0
         NMat0=    1 NMatS0=      1 NMatT0=    0 NMatD0=    1 NMtDS0=    0 NMtDT0=    0
 Petite list used in FoFCou.
 Keep R1 ints in memory in canonical form, NReq=206134434.
 Requested convergence on RMS density matrix=1.00D-08 within  32 cycles.
 Requested convergence on MAX density matrix=1.00D-06.
 Requested convergence on             energy=1.00D-06.
 No special actions if energy rises.
 Inv3:  Mode=1 IEnd=     8316675.
 Iteration    1 A*A^-1 deviation from unit magnitude is 6.44D-15 for    100.
 Iteration    1 A*A^-1 deviation from orthogonality  is 3.63D-15 for   1510    483.
 Iteration    1 A^-1*A deviation from unit magnitude is 6.00D-15 for    598.
 Iteration    1 A^-1*A deviation from orthogonality  is 3.12D-15 for   1486    952.
 Error on total polarization charges =  0.00959
 SCF Done:  E(RB3LYP) =  -347.783489874     A.U. after   11 cycles
            NFock= 11  Conv=0.27D-08     -V/T= 2.0099
 QCSCF skips out because SCF is already converged.
 DoSCS=F DFT=T ScalE2(SS,OS)=  1.000000  1.000000
 Range of M.O.s used for correlation:     1   200
 NBasis=   200 NAE=    33 NBE=    33 NFC=     0 NFV=     0
 NROrb=    200 NOA=    33 NOB=    33 NVA=   167 NVB=   167
 Symmetrizing basis deriv contribution to polar:
 IMax=3 JMax=2 DiffMx= 0.00D+00
 G2DrvN: will do    25 centers at a time, making    1 passes.
 Calling FoFCou, ICntrl=  3107 FMM=F I1Cent=   0 AccDes= 0.00D+00.
 NEqPCM:  Using equilibrium solvation (IEInf=0, Eps=  78.3553, EpsInf=   1.7778)
 G2PCM: DoFxE=T DoFxN=T DoGrad=T DoDP/DQ/DG/TGxP=FFFF NFrqRd=   0 IEInf=0 SqF1=F DoCFld=F IF1Alg=4.
 End of G2Drv F.D. properties file   721 does not exist.
 End of G2Drv F.D. properties file   722 does not exist.
 End of G2Drv F.D. properties file   788 does not exist.
          IDoAtm=111111111111111111111111
 NEqPCM:  Using equilibrium solvation (IEInf=0, Eps=  78.3553, EpsInf=   1.7778)
          Differentiating once with respect to nuclear coordinates.
 Keep R1 ints in memory in canonical form, NReq=209653065.
          There are    75 degrees of freedom in the 1st order CPHF.  IDoFFX=6 NUNeed=     0.
     69 vectors produced by pass  0 Test12= 7.35D-15 1.33D-09 XBig12= 8.02D-02 9.85D-02.
 AX will form    69 AO Fock derivatives at one time.
     69 vectors produced by pass  1 Test12= 7.35D-15 1.33D-09 XBig12= 4.73D-03 1.44D-02.
     69 vectors produced by pass  2 Test12= 7.35D-15 1.33D-09 XBig12= 4.73D-05 1.23D-03.
     69 vectors produced by pass  3 Test12= 7.35D-15 1.33D-09 XBig12= 1.67D-07 6.40D-05.
     69 vectors produced by pass  4 Test12= 7.35D-15 1.33D-09 XBig12= 1.29D-10 1.09D-06.
     27 vectors produced by pass  5 Test12= 7.35D-15 1.33D-09 XBig12= 7.70D-14 2.68D-08.
 InvSVY:  IOpt=1 It=  1 EMax= 4.44D-16
 Solved reduced A of dimension   372 with    75 vectors.
 End of Minotr F.D. properties file   721 does not exist.
 End of Minotr F.D. properties file   722 does not exist.
 End of Minotr F.D. properties file   788 does not exist.

 **********************************************************************

            Population analysis using the SCF density.

 **********************************************************************

 Orbital symmetries:
       Occupied  (A) (A) (A) (A) (A) (A) (A) (A) (A) (A) (A) (A)
                 (A) (A) (A) (A) (A) (A) (A) (A) (A) (A) (A) (A)
                 (A) (A) (A) (A) (A) (A) (A) (A) (A)
       Virtual   (A) (A) (A) (A) (A) (A) (A) (A) (A) (A) (A) (A)
                 (A) (A) (A) (A) (A) (A) (A) (A) (A) (A) (A) (A)
                 (A) (A) (A) (A) (A) (A) (A) (A) (A) (A) (A) (A)
                 (A) (A) (A) (A) (A) (A) (A) (A) (A) (A) (A) (A)
                 (A) (A) (A) (A) (A) (A) (A) (A) (A) (A) (A) (A)
                 (A) (A) (A) (A) (A) (A) (A) (A) (A) (A) (A) (A)
                 (A) (A) (A) (A) (A) (A) (A) (A) (A) (A) (A) (A)
                 (A) (A) (A) (A) (A) (A) (A) (A) (A) (A) (A) (A)
                 (A) (A) (A) (A) (A) (A) (A) (A) (A) (A) (A) (A)
                 (A) (A) (A) (A) (A) (A) (A) (A) (A) (A) (A) (A)
                 (A) (A) (A) (A) (A) (A) (A) (A) (A) (A) (A) (A)
                 (A) (A) (A) (A) (A) (A) (A) (A) (A) (A) (A) (A)
                 (A) (A) (A) (A) (A) (A) (A) (A) (A) (A) (A) (A)
                 (A) (A) (A) (A) (A) (A) (A) (A) (A) (A) (A)
 The electronic state is 1-A.
 Alpha  occ. eigenvalues --  -14.32053 -14.30769 -10.20143 -10.20119 -10.20084
 Alpha  occ. eigenvalues --  -10.20054 -10.16994 -10.16982  -0.91205  -0.87133
 Alpha  occ. eigenvalues --   -0.75518  -0.73916  -0.68541  -0.61512  -0.60459
 Alpha  occ. eigenvalues --   -0.56345  -0.48779  -0.47531  -0.45632  -0.45050
 Alpha  occ. eigenvalues --   -0.43443  -0.42379  -0.40984  -0.37792  -0.37389
 Alpha  occ. eigenvalues --   -0.36487  -0.35156  -0.34724  -0.34264  -0.32536
 Alpha  occ. eigenvalues --   -0.32144  -0.23201  -0.21337
 Alpha virt. eigenvalues --    0.08632   0.09479   0.10821   0.11778   0.12920
 Alpha virt. eigenvalues --    0.14880   0.15182   0.16058   0.16863   0.17409
 Alpha virt. eigenvalues --    0.18220   0.18750   0.19537   0.20228   0.21809
 Alpha virt. eigenvalues --    0.22140   0.22700   0.24807   0.25301   0.26654
 Alpha virt. eigenvalues --    0.27385   0.28233   0.28269   0.50582   0.51116
 Alpha virt. eigenvalues --    0.51658   0.52311   0.54681   0.55492   0.57704
 Alpha virt. eigenvalues --    0.58423   0.60681   0.62158   0.65230   0.66045
 Alpha virt. eigenvalues --    0.68497   0.69832   0.70428   0.72009   0.75140
 Alpha virt. eigenvalues --    0.76929   0.79186   0.80272   0.83403   0.84660
 Alpha virt. eigenvalues --    0.84931   0.85821   0.86983   0.88233   0.88390
 Alpha virt. eigenvalues --    0.89884   0.90697   0.92499   0.92864   0.94457
 Alpha virt. eigenvalues --    0.95086   0.95598   0.97550   0.99381   1.00034
 Alpha virt. eigenvalues --    1.03356   1.05074   1.07421   1.10488   1.23638
 Alpha virt. eigenvalues --    1.25363   1.28978   1.31562   1.33065   1.36982
 Alpha virt. eigenvalues --    1.41788   1.47463   1.50080   1.50748   1.58875
 Alpha virt. eigenvalues --    1.63777   1.65365   1.69628   1.71522   1.75257
 Alpha virt. eigenvalues --    1.75634   1.77581   1.79050   1.82117   1.85751
 Alpha virt. eigenvalues --    1.86914   1.87378   1.92055   1.95712   1.96544
 Alpha virt. eigenvalues --    1.98045   2.01827   2.03441   2.05392   2.05761
 Alpha virt. eigenvalues --    2.06948   2.07411   2.08640   2.09611   2.12226
 Alpha virt. eigenvalues --    2.12654   2.13462   2.16057   2.19671   2.20726
 Alpha virt. eigenvalues --    2.23721   2.25994   2.27055   2.27320   2.29475
 Alpha virt. eigenvalues --    2.32154   2.33834   2.37706   2.40295   2.42439
 Alpha virt. eigenvalues --    2.43351   2.46411   2.48633   2.49950   2.53203
 Alpha virt. eigenvalues --    2.57994   2.62110   2.63541   2.65960   2.68720
 Alpha virt. eigenvalues --    2.71293   2.71673   2.73383   2.75321   2.78893
 Alpha virt. eigenvalues --    2.80531   2.82875   2.83324   2.86209   2.87223
 Alpha virt. eigenvalues --    2.88726   2.89193   2.92511   2.93133   2.93542
 Alpha virt. eigenvalues --    2.97278   2.98412   2.99895   3.19324   3.20849
 Alpha virt. eigenvalues --    3.25061   3.30698   3.31676   3.32866   3.35473
 Alpha virt. eigenvalues --    3.39334   3.40392   3.41098   3.47028   3.48171
 Alpha virt. eigenvalues --    3.51271   3.54124   3.57152   3.58065   3.96168
 Alpha virt. eigenvalues --    4.14588   4.37517   4.38415   4.39779   4.61729
 Alpha virt. eigenvalues --    4.63746   4.68885
          Condensed to atoms (all electrons):
               1          2          3          4          5          6
     1  N    6.825837   0.268182  -0.046795   0.002500  -0.000111   0.000000
     2  C    0.268182   4.855837   0.366615  -0.042420   0.004619  -0.000062
     3  C   -0.046795   0.366615   4.880255   0.264486  -0.034030  -0.005012
     4  N    0.002500  -0.042420   0.264486   6.971234   0.289516  -0.058794
     5  C   -0.000111   0.004619  -0.034030   0.289516   4.800697   0.375800
     6  C    0.000000  -0.000062  -0.005012  -0.058794   0.375800   4.963049
     7  C    0.000041  -0.006027  -0.034196   0.291043  -0.037405   0.005395
     8  C   -0.000001   0.000057   0.005307  -0.059021  -0.005290  -0.000009
     9  H    0.341328  -0.039130  -0.005319  -0.000098  -0.000004   0.000000
    10  H    0.339902  -0.031292   0.005182  -0.000129   0.000003   0.000000
    11  H   -0.050869   0.390505  -0.048720   0.000816   0.000002  -0.000020
    12  H   -0.037317   0.376557  -0.031290   0.004430  -0.000240   0.000105
    13  H    0.006901  -0.037665   0.372222  -0.032498  -0.004232   0.000573
    14  H    0.001625  -0.052303   0.361493  -0.042488  -0.006776  -0.000103
    15  H    0.000020  -0.000140  -0.011908  -0.043422   0.361275  -0.049470
    16  H    0.000001  -0.000204   0.005260  -0.037565   0.390996  -0.039245
    17  H    0.000000  -0.000001  -0.000024   0.004282  -0.028127   0.366918
    18  H   -0.000005  -0.000335   0.000431  -0.003062  -0.032387   0.386364
    19  H    0.000002  -0.000042  -0.000207   0.004220  -0.035120   0.378792
    20  H   -0.000337   0.000460  -0.003871  -0.037212   0.005458  -0.000258
    21  H    0.000018  -0.000045  -0.008121  -0.043969  -0.011346  -0.000109
    22  H    0.000000  -0.000001  -0.000213   0.004255  -0.000011  -0.000001
    23  H    0.000000  -0.000014   0.000034  -0.002875   0.000160  -0.000348
    24  H    0.000001   0.000106  -0.000210   0.004151  -0.000123  -0.000064
               7          8          9         10         11         12
     1  N    0.000041  -0.000001   0.341328   0.339902  -0.050869  -0.037317
     2  C   -0.006027   0.000057  -0.039130  -0.031292   0.390505   0.376557
     3  C   -0.034196   0.005307  -0.005319   0.005182  -0.048720  -0.031290
     4  N    0.291043  -0.059021  -0.000098  -0.000129   0.000816   0.004430
     5  C   -0.037405  -0.005290  -0.000004   0.000003   0.000002  -0.000240
     6  C    0.005395  -0.000009   0.000000   0.000000  -0.000020   0.000105
     7  C    4.803742   0.374964   0.000036   0.000001  -0.000793   0.000015
     8  C    0.374964   4.964395  -0.000000  -0.000000  -0.000390  -0.000023
     9  H    0.000036  -0.000000   0.479080  -0.032178  -0.005346   0.006593
    10  H    0.000001  -0.000000  -0.032178   0.472299  -0.003389  -0.004236
    11  H   -0.000793  -0.000390  -0.005346  -0.003389   0.667893  -0.046793
    12  H    0.000015  -0.000023   0.006593  -0.004236  -0.046793   0.630565
    13  H    0.005205  -0.000251  -0.000802  -0.000165   0.006781  -0.008828
    14  H   -0.011070  -0.000091   0.005364  -0.000111  -0.006323   0.006419
    15  H   -0.007246  -0.000142   0.000002   0.000000  -0.000000   0.000059
    16  H   -0.003564   0.000855  -0.000000  -0.000000   0.000008  -0.000005
    17  H   -0.000217   0.000001   0.000000   0.000000   0.000000   0.000001
    18  H    0.000005  -0.000012   0.000001  -0.000000  -0.000003   0.000083
    19  H   -0.000111   0.000050   0.000000  -0.000000   0.000003   0.000083
    20  H    0.388972  -0.038973  -0.000027   0.000007   0.006319  -0.000215
    21  H    0.360013  -0.049269  -0.000001  -0.000000   0.000154   0.000045
    22  H   -0.027904   0.366951   0.000000   0.000000   0.000016   0.000002
    23  H   -0.032302   0.386291   0.000000   0.000000  -0.000001   0.000002
    24  H   -0.035071   0.378597  -0.000000  -0.000000   0.000101   0.000036
              13         14         15         16         17         18
     1  N    0.006901   0.001625   0.000020   0.000001   0.000000  -0.000005
     2  C   -0.037665  -0.052303  -0.000140  -0.000204  -0.000001  -0.000335
     3  C    0.372222   0.361493  -0.011908   0.005260  -0.000024   0.000431
     4  N   -0.032498  -0.042488  -0.043422  -0.037565   0.004282  -0.003062
     5  C   -0.004232  -0.006776   0.361275   0.390996  -0.028127  -0.032387
     6  C    0.000573  -0.000103  -0.049470  -0.039245   0.366918   0.386364
     7  C    0.005205  -0.011070  -0.007246  -0.003564  -0.000217   0.000005
     8  C   -0.000251  -0.000091  -0.000142   0.000855   0.000001  -0.000012
     9  H   -0.000802   0.005364   0.000002  -0.000000   0.000000   0.000001
    10  H   -0.000165  -0.000111   0.000000  -0.000000   0.000000  -0.000000
    11  H    0.006781  -0.006323  -0.000000   0.000008   0.000000  -0.000003
    12  H   -0.008828   0.006419   0.000059  -0.000005   0.000001   0.000083
    13  H    0.631559  -0.044406  -0.001269   0.000290  -0.000255   0.004242
    14  H   -0.044406   0.688643   0.010597  -0.000290   0.000034   0.000032
    15  H   -0.001269   0.010597   0.691013  -0.044256   0.002271  -0.006114
    16  H    0.000290  -0.000290  -0.044256   0.625680  -0.004161   0.005406
    17  H   -0.000255   0.000034   0.002271  -0.004161   0.614134  -0.030184
    18  H    0.004242   0.000032  -0.006114   0.005406  -0.030184   0.599144
    19  H   -0.000063   0.000074   0.006302  -0.005588  -0.027520  -0.032495
    20  H    0.000288  -0.001710  -0.000293   0.000262   0.000003   0.000006
    21  H   -0.000198   0.011313   0.011405  -0.001599   0.000036  -0.000009
    22  H    0.000003   0.000037   0.000036  -0.000249   0.000000   0.000000
    23  H    0.000005  -0.000008   0.000018   0.004466   0.000013   0.000002
    24  H   -0.000006   0.000066   0.000083  -0.000071   0.000004   0.000002
              19         20         21         22         23         24
     1  N    0.000002  -0.000337   0.000018   0.000000   0.000000   0.000001
     2  C   -0.000042   0.000460  -0.000045  -0.000001  -0.000014   0.000106
     3  C   -0.000207  -0.003871  -0.008121  -0.000213   0.000034  -0.000210
     4  N    0.004220  -0.037212  -0.043969   0.004255  -0.002875   0.004151
     5  C   -0.035120   0.005458  -0.011346  -0.000011   0.000160  -0.000123
     6  C    0.378792  -0.000258  -0.000109  -0.000001  -0.000348  -0.000064
     7  C   -0.000111   0.388972   0.360013  -0.027904  -0.032302  -0.035071
     8  C    0.000050  -0.038973  -0.049269   0.366951   0.386291   0.378597
     9  H    0.000000  -0.000027  -0.000001   0.000000   0.000000  -0.000000
    10  H   -0.000000   0.000007  -0.000000   0.000000   0.000000  -0.000000
    11  H    0.000003   0.006319   0.000154   0.000016  -0.000001   0.000101
    12  H    0.000083  -0.000215   0.000045   0.000002   0.000002   0.000036
    13  H   -0.000063   0.000288  -0.000198   0.000003   0.000005  -0.000006
    14  H    0.000074  -0.001710   0.011313   0.000037  -0.000008   0.000066
    15  H    0.006302  -0.000293   0.011405   0.000036   0.000018   0.000083
    16  H   -0.005588   0.000262  -0.001599  -0.000249   0.004466  -0.000071
    17  H   -0.027520   0.000003   0.000036   0.000000   0.000013   0.000004
    18  H   -0.032495   0.000006  -0.000009   0.000000   0.000002   0.000002
    19  H    0.603728  -0.000009   0.000065   0.000001   0.000035   0.000081
    20  H   -0.000009   0.626814  -0.044021  -0.004297   0.005418  -0.005557
    21  H    0.000065  -0.044021   0.692896   0.002279  -0.006226   0.006356
    22  H    0.000001  -0.004297   0.002279   0.614146  -0.030229  -0.027517
    23  H    0.000035   0.005418  -0.006226  -0.030229   0.599519  -0.032652
    24  H    0.000081  -0.005557   0.006356  -0.027517  -0.032652   0.604221
 Mulliken charges:
               1
     1  N   -0.650922
     2  C   -0.053259
     3  C   -0.031368
     4  N   -0.437381
     5  C   -0.033324
     6  C   -0.323503
     7  C   -0.033525
     8  C   -0.323996
     9  H    0.250502
    10  H    0.254108
    11  H    0.090047
    12  H    0.103952
    13  H    0.102567
    14  H    0.079984
    15  H    0.081180
    16  H    0.103572
    17  H    0.102793
    18  H    0.108891
    19  H    0.107721
    20  H    0.102774
    21  H    0.080334
    22  H    0.102694
    23  H    0.108692
    24  H    0.107468
 Sum of Mulliken charges =  -0.00000
 Mulliken charges with hydrogens summed into heavy atoms:
               1
     1  N   -0.146312
     2  C    0.140740
     3  C    0.151183
     4  N   -0.437381
     5  C    0.151428
     6  C   -0.004098
     7  C    0.149583
     8  C   -0.005143
 APT charges:
               1
     1  N   -1.458429
     2  C   -0.448283
     3  C   -0.552167
     4  N   -0.327284
     5  C   -0.685059
     6  C   -1.151973
     7  C   -0.594738
     8  C   -1.202795
     9  H    0.498336
    10  H    0.786979
    11  H    0.336467
    12  H    0.324931
    13  H    0.347858
    14  H    0.284472
    15  H    0.297225
    16  H    0.451961
    17  H    0.593268
    18  H    0.282196
    19  H    0.318032
    20  H    0.341217
    21  H    0.319212
    22  H    0.554669
    23  H    0.393867
    24  H    0.290040
 Sum of APT charges =  -0.00000
 APT charges with hydrogens summed into heavy atoms:
               1
     1  N   -0.173115
     2  C    0.213114
     3  C    0.080163
     4  N   -0.327284
     5  C    0.064126
     6  C    0.041523
     7  C    0.065691
     8  C    0.035781
 Electronic spatial extent (au):  <R**2>=           1442.5722
 Charge=             -0.0000 electrons
 Dipole moment (field-independent basis, Debye):
    X=              0.0552    Y=             -1.6907    Z=              0.9572  Tot=              1.9437
 Quadrupole moment (field-independent basis, Debye-Ang):
   XX=            -50.1299   YY=            -52.3289   ZZ=            -52.4985
   XY=              6.4253   XZ=              0.8386   YZ=             -0.1920
 Traceless Quadrupole moment (field-independent basis, Debye-Ang):
   XX=              1.5226   YY=             -0.6765   ZZ=             -0.8461
   XY=              6.4253   XZ=              0.8386   YZ=             -0.1920
 Octapole moment (field-independent basis, Debye-Ang**2):
  XXX=            -14.6822  YYY=             -3.7290  ZZZ=             -0.2763  XYY=              1.1114
  XXY=            -21.3603  XXZ=             -0.9150  XZZ=             -8.4267  YZZ=             -0.8531
  YYZ=              1.0501  XYZ=              0.5206
 Hexadecapole moment (field-independent basis, Debye-Ang**3):
 XXXX=          -1050.1519 YYYY=           -636.6412 ZZZZ=           -153.8340 XXXY=             94.1334
 XXXZ=             13.3772 YYYX=              4.1732 YYYZ=              0.3648 ZZZX=             -2.1648
 ZZZY=             -0.6710 XXYY=           -303.9823 XXZZ=           -197.8618 YYZZ=           -136.0876
 XXYZ=             -1.3009 YYXZ=              2.5499 ZZXY=              3.4714
 N-N= 4.092904294599D+02 E-N=-1.624422922117D+03  KE= 3.443717170661D+02
  Exact polarizability:   0.000   0.000   0.000   0.000   0.000   0.000
 Approx polarizability: 110.500   0.896 105.260   0.218  -0.194 104.289
 D2PCM: PCM CHGder 2nd derivatives, FixD1E=F FixD2E=F DoIter=F DoCFld=F I1PDM=0
 Calling FoFJK, ICntrl=    100147 FMM=F ISym2X=0 I1Cent= 0 IOpClX= 0 NMat=1 NMatS=1 NMatT=0.
 ***** Axes restored to original set *****
 -------------------------------------------------------------------
 Center     Atomic                   Forces (Hartrees/Bohr)
 Number     Number              X              Y              Z
 -------------------------------------------------------------------
      1        7           0.007069838    0.008258378   -0.004411549
      2        6          -0.002621461   -0.005110283   -0.003872491
      3        6           0.004751708   -0.001669774    0.009227947
      4        7           0.002531525   -0.003264291   -0.007261440
      5        6           0.003209439    0.002672977    0.007906134
      6        6           0.000650116    0.004286061   -0.000654305
      7        6           0.000163127   -0.000924995    0.008569348
      8        6          -0.004094641   -0.001336724    0.000989492
      9        1           0.000307998   -0.001174103    0.001505028
     10        1          -0.001477650    0.000577446   -0.001991914
     11        1          -0.009295065    0.000359803    0.005952697
     12        1          -0.001223448    0.001117860   -0.000648624
     13        1          -0.003220904    0.000248260    0.001646665
     14        1           0.000237940   -0.003097769   -0.004220676
     15        1          -0.000594500    0.000541601   -0.004921076
     16        1           0.000458643   -0.006513352   -0.000262661
     17        1           0.000563907    0.000582418   -0.000600333
     18        1           0.000920411    0.000144460    0.000578664
     19        1          -0.000042316   -0.001205213   -0.000870404
     20        1           0.004736569    0.003716458   -0.001990790
     21        1          -0.002497522    0.000238936   -0.004445791
     22        1          -0.000935981    0.000297774   -0.000136013
     23        1          -0.000218044    0.000514653    0.001003014
     24        1           0.000620312    0.000739421   -0.001090923
 -------------------------------------------------------------------
 Cartesian Forces:  Max     0.009295065 RMS     0.003491306
 FormGI is forming the generalized inverse of G from B-inverse, IUseBI=4.

 GradGradGradGradGradGradGradGradGradGradGradGradGradGradGradGradGradGrad
 Berny optimization.
 Internal  Forces:  Max     0.010294609 RMS     0.002604908
 Search for a local minimum.
 Step number   1 out of a maximum of  126
 All quantities printed in internal units (Hartrees-Bohrs-Radians)
 Mixed Optimization -- RFO/linear search
 Second derivative matrix not updated -- analytic derivatives used.
 ITU=  0
     Eigenvalues ---    0.00187   0.00194   0.00207   0.00236   0.00450
     Eigenvalues ---    0.00489   0.00500   0.02418   0.03312   0.04389
     Eigenvalues ---    0.04399   0.04429   0.04481   0.04560   0.04565
     Eigenvalues ---    0.04648   0.04661   0.04696   0.05082   0.05341
     Eigenvalues ---    0.05395   0.07940   0.08275   0.08434   0.08628
     Eigenvalues ---    0.11151   0.11397   0.11624   0.12276   0.12377
     Eigenvalues ---    0.13412   0.13675   0.14039   0.14734   0.15949
     Eigenvalues ---    0.16109   0.16471   0.17983   0.18747   0.19734
     Eigenvalues ---    0.22527   0.24356   0.24433   0.26397   0.29009
     Eigenvalues ---    0.29116   0.31090   0.31673   0.31963   0.32402
     Eigenvalues ---    0.33008   0.33196   0.33352   0.33632   0.33699
     Eigenvalues ---    0.33736   0.33770   0.33818   0.34633   0.34652
     Eigenvalues ---    0.34930   0.36056   0.36512   0.37209   0.43992
     Eigenvalues ---    0.44265
 RFO step:  Lambda=-4.85386421D-03 EMin= 1.86590326D-03
 Linear search not attempted -- first point.
 Iteration  1 RMS(Cart)=  0.03567680 RMS(Int)=  0.00074274
 Iteration  2 RMS(Cart)=  0.00098624 RMS(Int)=  0.00020296
 Iteration  3 RMS(Cart)=  0.00000069 RMS(Int)=  0.00020296
 Variable       Old X    -DE/DX   Delta X   Delta X   Delta X     New X
                                 (Linear)    (Quad)   (Total)
    R1        2.77039   0.00618   0.00000   0.00861   0.00861   2.77900
    R2        1.92566  -0.00081   0.00000   0.00035   0.00035   1.92601
    R3        1.92632  -0.00220   0.00000  -0.00275  -0.00275   1.92357
    R4        2.91810  -0.00866   0.00000  -0.02550  -0.02550   2.89260
    R5        2.06774   0.00499   0.00000   0.01454   0.01454   2.08228
    R6        2.07097  -0.00053   0.00000  -0.00021  -0.00021   2.07076
    R7        2.80000  -0.00612   0.00000  -0.02465  -0.02465   2.77535
    R8        2.07173  -0.00170   0.00000  -0.00551  -0.00551   2.06622
    R9        2.07593   0.00477   0.00000   0.01694   0.01694   2.09287
   R10        2.78926  -0.00196   0.00000  -0.00783  -0.00783   2.78143
   R11        2.78904  -0.00120   0.00000  -0.00602  -0.00602   2.78302
   R12        2.88416   0.00337   0.00000   0.00562   0.00562   2.88978
   R13        2.07379   0.00498   0.00000   0.01681   0.01681   2.09059
   R14        2.06996  -0.00094   0.00000  -0.00305  -0.00305   2.06691
   R15        2.06961   0.00033   0.00000  -0.00024  -0.00024   2.06936
   R16        2.06629   0.00064   0.00000   0.00189   0.00189   2.06818
   R17        2.06979  -0.00075   0.00000  -0.00168  -0.00168   2.06811
   R18        2.88366   0.00353   0.00000   0.00623   0.00623   2.88988
   R19        2.07043  -0.00107   0.00000  -0.00329  -0.00329   2.06714
   R20        2.07383   0.00510   0.00000   0.01700   0.01700   2.09084
   R21        2.06960   0.00032   0.00000  -0.00026  -0.00026   2.06934
   R22        2.06633   0.00059   0.00000   0.00168   0.00168   2.06801
   R23        2.06975  -0.00070   0.00000  -0.00158  -0.00158   2.06817
    A1        1.90873  -0.00076   0.00000  -0.00934  -0.00938   1.89936
    A2        1.89945   0.00074   0.00000   0.00269   0.00265   1.90211
    A3        1.85378  -0.00099   0.00000  -0.01937  -0.01944   1.83433
    A4        1.94737  -0.00787   0.00000  -0.02893  -0.02903   1.91834
    A5        1.88968   0.01029   0.00000   0.08156   0.08158   1.97126
    A6        1.89637   0.00150   0.00000  -0.00273  -0.00358   1.89279
    A7        1.94321  -0.00291   0.00000  -0.01857  -0.01841   1.92480
    A8        1.91007   0.00079   0.00000  -0.01723  -0.01776   1.89231
    A9        1.87514  -0.00142   0.00000  -0.01260  -0.01342   1.86172
   A10        1.96130   0.00020   0.00000   0.00901   0.00901   1.97030
   A11        1.85900   0.00210   0.00000   0.01384   0.01390   1.87290
   A12        1.93010  -0.00201   0.00000  -0.01460  -0.01464   1.91545
   A13        1.92988  -0.00282   0.00000  -0.02640  -0.02638   1.90349
   A14        1.92810   0.00198   0.00000   0.01499   0.01504   1.94314
   A15        1.85118   0.00051   0.00000   0.00217   0.00227   1.85345
   A16        1.92939  -0.00018   0.00000   0.01634   0.01598   1.94537
   A17        1.92648   0.00063   0.00000   0.01630   0.01594   1.94242
   A18        1.93246   0.00020   0.00000   0.01026   0.00982   1.94228
   A19        1.95401   0.00443   0.00000   0.02212   0.02217   1.97618
   A20        1.94068  -0.00061   0.00000  -0.00238  -0.00257   1.93811
   A21        1.93137  -0.00602   0.00000  -0.04717  -0.04754   1.88383
   A22        1.92548  -0.00205   0.00000  -0.00537  -0.00536   1.92012
   A23        1.85167   0.00368   0.00000   0.03561   0.03595   1.88762
   A24        1.85615   0.00047   0.00000  -0.00301  -0.00343   1.85272
   A25        1.91652   0.00091   0.00000   0.00579   0.00580   1.92232
   A26        1.96297   0.00090   0.00000  -0.00105  -0.00109   1.96188
   A27        1.93656  -0.00189   0.00000  -0.00979  -0.00981   1.92674
   A28        1.87447  -0.00064   0.00000   0.00004   0.00004   1.87451
   A29        1.88009   0.00080   0.00000   0.01088   0.01090   1.89099
   A30        1.89033  -0.00004   0.00000  -0.00510  -0.00516   1.88517
   A31        1.95498   0.00427   0.00000   0.02194   0.02200   1.97697
   A32        1.93001  -0.00580   0.00000  -0.04568  -0.04603   1.88398
   A33        1.94050  -0.00061   0.00000  -0.00305  -0.00325   1.93725
   A34        1.85345   0.00356   0.00000   0.03397   0.03428   1.88773
   A35        1.92453  -0.00196   0.00000  -0.00430  -0.00429   1.92024
   A36        1.85591   0.00046   0.00000  -0.00313  -0.00355   1.85235
   A37        1.91659   0.00086   0.00000   0.00520   0.00521   1.92180
   A38        1.96210   0.00108   0.00000   0.00098   0.00095   1.96306
   A39        1.93689  -0.00191   0.00000  -0.01036  -0.01037   1.92652
   A40        1.87438  -0.00068   0.00000  -0.00031  -0.00032   1.87406
   A41        1.88016   0.00080   0.00000   0.01078   0.01080   1.89096
   A42        1.89084  -0.00012   0.00000  -0.00560  -0.00564   1.88519
    D1       -1.12958  -0.00120   0.00000  -0.05173  -0.05158  -1.18116
    D2        1.01476  -0.00292   0.00000  -0.03802  -0.03829   0.97647
    D3        3.04620   0.00177   0.00000  -0.01029  -0.01012   3.03608
    D4        3.13551  -0.00002   0.00000  -0.02500  -0.02489   3.11062
    D5       -1.00334  -0.00174   0.00000  -0.01129  -0.01160  -1.01494
    D6        1.02811   0.00296   0.00000   0.01644   0.01657   1.04468
    D7        3.13224   0.00385   0.00000   0.03483   0.03462  -3.11633
    D8       -1.03516   0.00187   0.00000   0.01675   0.01659  -1.01857
    D9        0.96871   0.00263   0.00000   0.01963   0.01946   0.98817
   D10        1.01878  -0.00183   0.00000  -0.03654  -0.03645   0.98233
   D11        3.13456  -0.00381   0.00000  -0.05462  -0.05447   3.08009
   D12       -1.14475  -0.00305   0.00000  -0.05174  -0.05161  -1.19636
   D13       -1.05157   0.00121   0.00000   0.00146   0.00148  -1.05009
   D14        1.06421  -0.00077   0.00000  -0.01662  -0.01654   1.04767
   D15        3.06809  -0.00001   0.00000  -0.01375  -0.01368   3.05441
   D16        2.73609   0.00009   0.00000  -0.05122  -0.05137   2.68471
   D17       -1.40310   0.00066   0.00000  -0.01585  -0.01584  -1.41894
   D18        0.66142  -0.00079   0.00000  -0.05676  -0.05683   0.60458
   D19        2.80542  -0.00021   0.00000  -0.02139  -0.02130   2.78411
   D20       -1.38246  -0.00090   0.00000  -0.05247  -0.05248  -1.43494
   D21        0.76154  -0.00033   0.00000  -0.01710  -0.01695   0.74459
   D22       -1.36664   0.00147   0.00000   0.02038   0.02018  -1.34646
   D23        0.79604   0.00161   0.00000   0.02792   0.02776   0.82380
   D24        2.85484  -0.00204   0.00000  -0.00748  -0.00703   2.84780
   D25        2.77604   0.00064   0.00000  -0.01866  -0.01892   2.75712
   D26       -1.34447   0.00078   0.00000  -0.01112  -0.01134  -1.35581
   D27        0.71433  -0.00286   0.00000  -0.04652  -0.04613   0.66820
   D28        2.77546   0.00082   0.00000  -0.02849  -0.02873   2.74673
   D29        0.71180  -0.00256   0.00000  -0.05510  -0.05473   0.65708
   D30       -1.34571   0.00095   0.00000  -0.02019  -0.02040  -1.36611
   D31       -1.36552   0.00117   0.00000   0.01051   0.01032  -1.35520
   D32        2.85400  -0.00221   0.00000  -0.01610  -0.01567   2.83833
   D33        0.79650   0.00130   0.00000   0.01881   0.01865   0.81515
   D34       -3.04613   0.00094   0.00000  -0.01453  -0.01465  -3.06079
   D35        1.15081   0.00054   0.00000  -0.01784  -0.01795   1.13286
   D36       -0.96966   0.00132   0.00000  -0.00347  -0.00362  -0.97328
   D37        1.06588   0.00004   0.00000  -0.02349  -0.02349   1.04238
   D38       -1.02036  -0.00036   0.00000  -0.02680  -0.02679  -1.04715
   D39       -3.14084   0.00042   0.00000  -0.01243  -0.01246   3.12989
   D40       -0.93756  -0.00151   0.00000  -0.03661  -0.03648  -0.97403
   D41       -3.02380  -0.00190   0.00000  -0.03992  -0.03977  -3.06357
   D42        1.13891  -0.00112   0.00000  -0.02555  -0.02544   1.11347
   D43       -3.04262   0.00090   0.00000  -0.01372  -0.01382  -3.05645
   D44        1.15495   0.00048   0.00000  -0.01748  -0.01759   1.13736
   D45       -0.96581   0.00125   0.00000  -0.00350  -0.00364  -0.96945
   D46       -0.93402  -0.00144   0.00000  -0.03505  -0.03492  -0.96894
   D47       -3.01963  -0.00186   0.00000  -0.03882  -0.03869  -3.05832
   D48        1.14279  -0.00109   0.00000  -0.02484  -0.02474   1.11806
   D49        1.06963   0.00006   0.00000  -0.02245  -0.02245   1.04718
   D50       -1.01598  -0.00035   0.00000  -0.02622  -0.02622  -1.04220
   D51       -3.13674   0.00041   0.00000  -0.01224  -0.01227   3.13417
         Item               Value     Threshold  Converged?
 Maximum Force            0.010295     0.000450     NO 
 RMS     Force            0.002605     0.000300     NO 
 Maximum Displacement     0.159601     0.001800     NO 
 RMS     Displacement     0.035798     0.001200     NO 
 Predicted change in Energy=-2.586119D-03
 GradGradGradGradGradGradGradGradGradGradGradGradGradGradGradGradGradGrad

                          Input orientation:                          
 ---------------------------------------------------------------------
 Center     Atomic      Atomic             Coordinates (Angstroms)
 Number     Number       Type             X           Y           Z
 ---------------------------------------------------------------------
      1          7           0        3.031979   -1.292468   -0.895878
      2          6           0        1.856609   -1.085702   -0.036594
      3          6           0        0.878569   -0.122543   -0.713939
      4          7           0       -0.307531    0.157300    0.105689
      5          6           0       -0.890231    1.468979   -0.220447
      6          6           0       -0.112055    2.640627    0.379684
      7          6           0       -1.307412   -0.917066   -0.016195
      8          6           0       -2.271505   -0.982516    1.169083
      9          1           0        2.743891   -1.802174   -1.730128
     10          1           0        3.685513   -1.910843   -0.419803
     11          1           0        1.346107   -2.026077    0.226560
     12          1           0        2.190293   -0.635087    0.904883
     13          1           0        1.415802    0.812293   -0.895542
     14          1           0        0.596310   -0.515167   -1.710298
     15          1           0       -0.987142    1.599647   -1.314715
     16          1           0       -1.907592    1.494636    0.180346
     17          1           0       -0.632352    3.582482    0.176326
     18          1           0        0.896811    2.727744   -0.035512
     19          1           0       -0.022764    2.523611    1.464135
     20          1           0       -0.773044   -1.869795   -0.074010
     21          1           0       -1.874955   -0.825055   -0.961499
     22          1           0       -2.934129   -1.848460    1.068084
     23          1           0       -2.904904   -0.093151    1.242744
     24          1           0       -1.716268   -1.081215    2.107027
 ---------------------------------------------------------------------
                    Distance matrix (angstroms):
                    1          2          3          4          5
     1  N    0.000000
     2  C    1.470584   0.000000
     3  C    2.457438   1.530696   0.000000
     4  N    3.775883   2.499760   1.468651   0.000000
     5  C    4.844123   3.755705   2.430047   1.471871   0.000000
     6  C    5.194348   4.234908   3.132484   2.506031   1.529207
     7  C    4.443545   3.168577   2.428298   1.472712   2.430837
     8  C    5.699744   4.301816   3.769389   2.507425   3.138238
     9  H    1.019200   2.041730   2.707994   4.064596   5.117267
    10  H    1.017910   2.042694   3.341177   4.527445   5.692132
    11  H    2.154116   1.101893   2.174068   2.741581   4.173300
    12  H    2.093640   1.095800   2.145671   2.739655   3.896548
    13  H    2.653686   2.129433   1.093397   2.097941   2.490938
    14  H    2.683275   2.171439   1.107500   2.137043   2.892454
    15  H    4.969214   4.114804   2.609166   2.135365   1.106295
    16  H    5.772831   4.568853   3.343308   2.086681   1.093764
    17  H    6.192099   5.294545   4.099105   3.441275   2.165832
    18  H    4.632632   3.932376   2.929971   2.842105   2.193675
    19  H    5.428036   4.337207   3.543803   2.743336   2.168540
    20  H    3.935350   2.744317   2.488016   2.087608   3.344037
    21  H    4.929583   3.853304   2.852491   2.135587   2.604118
    22  H    6.305610   4.975266   4.548743   3.442135   4.104050
    23  H    6.423289   5.029300   4.259594   2.846395   2.939402
    24  H    5.622092   4.166603   3.950959   2.742957   3.550065
                    6          7          8          9         10
     6  C    0.000000
     7  C    3.773960   0.000000
     8  C    4.291099   1.529261   0.000000
     9  H    5.687374   4.487098   5.850766   0.000000
    10  H    5.981353   5.106839   6.234775   1.617224   0.000000
    11  H    4.891606   2.886174   3.881299   2.415070   2.429791
    12  H    4.038185   3.627925   4.483096   2.934595   2.370238
    13  H    2.702472   3.343625   4.591323   3.048900   3.576784
    14  H    3.850824   2.579858   4.090673   2.503775   3.627185
    15  H    2.172649   2.850013   3.806101   5.066119   5.912539
    16  H    2.139389   2.493021   2.691898   6.012917   6.575736
    17  H    1.095060   4.553977   4.950919   6.635368   7.012557
    18  H    1.094435   4.259532   5.025466   5.177218   5.425959
    19  H    1.094395   3.959792   4.175741   6.047323   6.079878
    20  H    4.581118   1.093885   2.139609   3.887947   4.472135
    21  H    4.113094   1.106423   2.172884   4.783231   5.691325
    22  H    5.346951   2.165493   1.095048   6.330248   6.785084
    23  H    4.002301   2.194480   1.094345   6.608147   7.035742
    24  H    4.405600   2.168450   1.094426   5.927610   6.020996
                   11         12         13         14         15
    11  H    0.000000
    12  H    1.762846   0.000000
    13  H    3.052919   2.436447   0.000000
    14  H    2.568359   3.065018   1.759984   0.000000
    15  H    4.578805   4.474008   2.563156   2.671375   0.000000
    16  H    4.794176   4.674755   3.559224   3.726039   1.758825
    17  H    5.947501   5.126988   3.608017   4.675435   2.506135
    18  H    4.782193   3.723717   2.162859   3.662197   2.541307
    19  H    4.909690   3.897147   3.250563   4.437843   3.083139
    20  H    2.146059   3.356203   3.558027   2.527367   3.690828
    21  H    3.637194   4.477244   3.676185   2.600746   2.606176
    22  H    4.365791   5.268643   5.464186   4.686264   4.621464
    23  H    4.779113   5.135063   4.905160   4.599679   3.617178
    24  H    3.715786   4.111617   4.733989   4.498933   4.407603
                   16         17         18         19         20
    16  H    0.000000
    17  H    2.446498   0.000000
    18  H    3.071128   1.764594   0.000000
    19  H    2.501896   1.775179   1.770941   0.000000
    20  H    3.559676   5.459834   4.891550   4.714957   0.000000
    21  H    2.585700   4.718590   4.600274   4.530770   1.758785
    22  H    3.608067   5.965613   6.069239   5.267628   2.444406
    23  H    2.155084   4.451069   4.903511   3.899126   3.071665
    24  H    3.222377   5.162611   5.091839   4.034356   2.503688
                   21         22         23         24
    21  H    0.000000
    22  H    2.507671   0.000000
    23  H    2.540702   1.764219   0.000000
    24  H    3.083286   1.775176   1.770906   0.000000
 Stoichiometry    C6H16N2
 Framework group  C1[X(C6H16N2)]
 Deg. of freedom    66
 Full point group                 C1      NOp   1
 Largest Abelian subgroup         C1      NOp   1
 Largest concise Abelian subgroup C1      NOp   1
                         Standard orientation:                         
 ---------------------------------------------------------------------
 Center     Atomic      Atomic             Coordinates (Angstroms)
 Number     Number       Type             X           Y           Z
 ---------------------------------------------------------------------
      1          7           0       -3.301563    0.043627    0.007492
      2          6           0       -1.961724   -0.323649   -0.474749
      3          6           0       -0.893960    0.295121    0.430810
      4          7           0        0.473974   -0.003393   -0.012568
      5          6           0        1.421780    1.031650    0.431003
      6          6           0        1.354050    2.309852   -0.405710
      7          6           0        0.899175   -1.342345    0.429351
      8          6           0        2.029430   -1.927747   -0.418275
      9          1           0       -3.464689   -0.412229    0.904349
     10          1           0       -3.999020   -0.350028   -0.620785
     11          1           0       -1.815426   -1.413303   -0.548353
     12          1           0       -1.834436    0.079571   -1.485684
     13          1           0       -1.044935    1.377977    0.418812
     14          1           0       -1.057838   -0.028026    1.477364
     15          1           0        1.276061    1.271434    1.501123
     16          1           0        2.432267    0.621787    0.345869
     17          1           0        2.132402    3.010987   -0.086753
     18          1           0        0.391906    2.822157   -0.307680
     19          1           0        1.509345    2.081179   -1.464620
     20          1           0        0.036627   -2.011101    0.356140
     21          1           0        1.191518   -1.333367    1.496416
     22          1           0        2.245130   -2.953543   -0.101502
     23          1           0        2.958319   -1.356057   -0.329252
     24          1           0        1.743389   -1.946370   -1.474496
 ---------------------------------------------------------------------
 Rotational constants (GHZ):           2.2729318           1.2148449           0.8705718
 Standard basis: 6-31G(d,p) (6D, 7F)
 There are   200 symmetry adapted cartesian basis functions of A   symmetry.
 There are   200 symmetry adapted basis functions of A   symmetry.
   200 basis functions,   336 primitive gaussians,   200 cartesian basis functions
    33 alpha electrons       33 beta electrons
       nuclear repulsion energy       409.6803263066 Hartrees.
 NAtoms=   24 NActive=   24 NUniq=   24 SFac= 1.00D+00 NAtFMM=   60 NAOKFM=F Big=F
 Integral buffers will be    131072 words long.
 Raffenetti 2 integral format.
 Two-electron integral symmetry is turned on.
 ------------------------------------------------------------------------------
 Polarizable Continuum Model (PCM)
 =================================
 Model                : PCM.
 Atomic radii         : UFF (Universal Force Field).
 Polarization charges : Total charges.
 Charge compensation  : None.
 Solution method      : Matrix inversion.
 Cavity type          : Scaled VdW (van der Waals Surface) (Alpha=1.100).
 Cavity algorithm     : GePol (No added spheres)
                        Default sphere list used, NSphG=   24.
                        Lebedev-Laikov grids with approx.  5.0 points / Ang**2.
                        Smoothing algorithm: York/Karplus (Gamma=1.0000).
                        Polarization charges: spherical gaussians, with
                                              point-specific exponents (IZeta= 3).
                        Self-potential: point-specific (ISelfS= 7).
                        Self-field    : sphere-specific E.n sum rule (ISelfD= 2).
 1st derivatives      : Analytical E(r).r(x)/FMM algorithm (CHGder, D1EAlg=3).
                        Cavity 1st derivative terms included.
 Solvent              : Water, Eps=  78.355300 Eps(inf)=   1.777849
 ------------------------------------------------------------------------------
 One-electron integrals computed using PRISM.
 NBasis=   200 RedAO= T EigKep=  3.48D-03  NBF=   200
 NBsUse=   200 1.00D-06 EigRej= -1.00D+00 NBFU=   200
 Initial guess from the checkpoint file:  "UDGSVBYJWHOHNN-UHFFFAOYSA-N_conf_3_0.chk"
 B after Tr=     0.000000   -0.000000   -0.000000
         Rot=    0.999931   -0.001936    0.000064   -0.011612 Ang=  -1.35 deg.
 ExpMin= 1.61D-01 ExpMax= 4.17D+03 ExpMxC= 6.27D+02 IAcc=2 IRadAn=         4 AccDes= 0.00D+00
 Harris functional with IExCor=  402 and IRadAn=       4 diagonalized for initial guess.
 HarFok:  IExCor=  402 AccDes= 0.00D+00 IRadAn=         4 IDoV= 1 UseB2=F ITyADJ=14
 ICtDFT=  3500011 ScaDFX=  1.000000  1.000000  1.000000  1.000000
 FoFCou: FMM=F IPFlag=           0 FMFlag=      100000 FMFlg1=           0
         NFxFlg=           0 DoJE=T BraDBF=F KetDBF=T FulRan=T
         wScrn=  0.000000 ICntrl=       500 IOpCl=  0 I1Cent=   200000004 NGrid=           0
         NMat0=    1 NMatS0=      1 NMatT0=    0 NMatD0=    1 NMtDS0=    0 NMtDT0=    0
 Petite list used in FoFCou.
 Keep R1 ints in memory in canonical form, NReq=206134434.
 Requested convergence on RMS density matrix=1.00D-08 within  32 cycles.
 Requested convergence on MAX density matrix=1.00D-06.
 Requested convergence on             energy=1.00D-06.
 No special actions if energy rises.
 Inv3:  Mode=1 IEnd=     8306688.
 Iteration    1 A*A^-1 deviation from unit magnitude is 5.77D-15 for   1095.
 Iteration    1 A*A^-1 deviation from orthogonality  is 3.71D-15 for   1537    429.
 Iteration    1 A^-1*A deviation from unit magnitude is 5.66D-15 for   1533.
 Iteration    1 A^-1*A deviation from orthogonality  is 3.41D-15 for   1618    606.
 Error on total polarization charges =  0.00962
 SCF Done:  E(RB3LYP) =  -347.786076964     A.U. after    9 cycles
            NFock=  9  Conv=0.45D-08     -V/T= 2.0099
 QCSCF skips out because SCF is already converged.
 D1PCM: PCM CHGder 1st derivatives, ID1Alg=3 FixD1E=F DoIter=F DoCFld=F I1PDM=0.
 Calling FoFJK, ICntrl=      2127 FMM=F ISym2X=0 I1Cent= 0 IOpClX= 0 NMat=1 NMatS=1 NMatT=0.
 ***** Axes restored to original set *****
 -------------------------------------------------------------------
 Center     Atomic                   Forces (Hartrees/Bohr)
 Number     Number              X              Y              Z
 -------------------------------------------------------------------
      1        7           0.000536617    0.000622173   -0.000594157
      2        6           0.000238549   -0.000898030   -0.000023099
      3        6           0.000445995    0.000283419    0.000440534
      4        7          -0.000438572   -0.000161485   -0.000899996
      5        6           0.000161788    0.000356612    0.000578444
      6        6          -0.000075176    0.000189469    0.000004056
      7        6          -0.000061302   -0.000147984    0.000456514
      8        6          -0.000115137   -0.000171087    0.000066154
      9        1           0.000093562   -0.000247407    0.000094865
     10        1           0.000043542    0.000010725   -0.000028263
     11        1          -0.000648151    0.000285007    0.000511334
     12        1          -0.000072058    0.000039665    0.000031666
     13        1          -0.000165459    0.000083681   -0.000055805
     14        1           0.000043177   -0.000211583   -0.000205276
     15        1          -0.000183207    0.000136280   -0.000202615
     16        1           0.000001125   -0.000205727    0.000049493
     17        1           0.000122675    0.000032180   -0.000174456
     18        1           0.000104513   -0.000127890    0.000160719
     19        1          -0.000072609    0.000030952    0.000009084
     20        1           0.000204058    0.000099264   -0.000072321
     21        1          -0.000170306   -0.000143790   -0.000188721
     22        1          -0.000144730    0.000118804   -0.000091648
     23        1           0.000135763    0.000104922    0.000150422
     24        1           0.000015343   -0.000078168   -0.000016928
 -------------------------------------------------------------------
 Cartesian Forces:  Max     0.000899996 RMS     0.000280645

 GradGradGradGradGradGradGradGradGradGradGradGradGradGradGradGradGradGrad
 Berny optimization.
 Using GEDIIS/GDIIS optimizer.
 FormGI is forming the generalized inverse of G from B-inverse, IUseBI=4.
 Internal  Forces:  Max     0.000789842 RMS     0.000165131
 Search for a local minimum.
 Step number   2 out of a maximum of  126
 All quantities printed in internal units (Hartrees-Bohrs-Radians)
 Mixed Optimization -- En-DIIS/RFO-DIIS
 Update second derivatives using D2CorX and points    1    2
 DE= -2.59D-03 DEPred=-2.59D-03 R= 1.00D+00
 TightC=F SS=  1.41D+00  RLast= 2.56D-01 DXNew= 5.0454D-01 7.6835D-01
 Trust test= 1.00D+00 RLast= 2.56D-01 DXMaxT set to 5.05D-01
 ITU=  1  0
 Use linear search instead of GDIIS.
     Eigenvalues ---    0.00186   0.00194   0.00207   0.00236   0.00450
     Eigenvalues ---    0.00489   0.00500   0.02412   0.03313   0.04388
     Eigenvalues ---    0.04401   0.04429   0.04474   0.04561   0.04568
     Eigenvalues ---    0.04648   0.04660   0.04698   0.05075   0.05339
     Eigenvalues ---    0.05392   0.07920   0.08270   0.08413   0.08663
     Eigenvalues ---    0.11121   0.11398   0.11651   0.12276   0.12380
     Eigenvalues ---    0.13424   0.13673   0.14036   0.14742   0.15949
     Eigenvalues ---    0.16108   0.16412   0.17977   0.18744   0.19777
     Eigenvalues ---    0.22565   0.24338   0.24410   0.26402   0.29010
     Eigenvalues ---    0.29115   0.31048   0.31671   0.31935   0.32412
     Eigenvalues ---    0.32995   0.33197   0.33352   0.33632   0.33703
     Eigenvalues ---    0.33739   0.33770   0.33811   0.34633   0.34649
     Eigenvalues ---    0.34957   0.36050   0.36495   0.37100   0.43999
     Eigenvalues ---    0.44265
 RFO step:  Lambda=-2.31453498D-04 EMin= 1.86472114D-03
 Quartic linear search produced a step of  0.07237.
 Iteration  1 RMS(Cart)=  0.05470781 RMS(Int)=  0.00176324
 Iteration  2 RMS(Cart)=  0.00199591 RMS(Int)=  0.00002184
 Iteration  3 RMS(Cart)=  0.00000261 RMS(Int)=  0.00002177
 Iteration  4 RMS(Cart)=  0.00000000 RMS(Int)=  0.00002177
 Variable       Old X    -DE/DX   Delta X   Delta X   Delta X     New X
                                 (Linear)    (Quad)   (Total)
    R1        2.77900   0.00079   0.00062  -0.00020   0.00043   2.77943
    R2        1.92601   0.00002   0.00003  -0.00012  -0.00009   1.92592
    R3        1.92357   0.00001  -0.00020   0.00029   0.00009   1.92366
    R4        2.89260   0.00024  -0.00185   0.00314   0.00130   2.89389
    R5        2.08228   0.00018   0.00105   0.00016   0.00121   2.08348
    R6        2.07076   0.00002  -0.00002   0.00002   0.00000   2.07077
    R7        2.77535   0.00032  -0.00178   0.00181   0.00002   2.77537
    R8        2.06622  -0.00000  -0.00040   0.00045   0.00005   2.06627
    R9        2.09287   0.00025   0.00123  -0.00110   0.00013   2.09300
   R10        2.78143   0.00025  -0.00057  -0.00018  -0.00075   2.78068
   R11        2.78302   0.00023  -0.00044  -0.00062  -0.00106   2.78196
   R12        2.88978   0.00014   0.00041  -0.00099  -0.00059   2.88920
   R13        2.09059   0.00023   0.00122  -0.00070   0.00052   2.09111
   R14        2.06691   0.00001  -0.00022   0.00078   0.00056   2.06748
   R15        2.06936   0.00000  -0.00002   0.00014   0.00012   2.06949
   R16        2.06818   0.00003   0.00014   0.00026   0.00040   2.06858
   R17        2.06811   0.00000  -0.00012   0.00011  -0.00002   2.06809
   R18        2.88988   0.00015   0.00045  -0.00100  -0.00055   2.88934
   R19        2.06714   0.00002  -0.00024   0.00104   0.00081   2.06795
   R20        2.09084   0.00024   0.00123  -0.00073   0.00050   2.09134
   R21        2.06934   0.00000  -0.00002   0.00016   0.00014   2.06948
   R22        2.06801   0.00002   0.00012   0.00029   0.00041   2.06842
   R23        2.06817  -0.00000  -0.00011   0.00005  -0.00007   2.06810
    A1        1.89936   0.00005  -0.00068   0.00186   0.00118   1.90053
    A2        1.90211   0.00004   0.00019   0.00031   0.00050   1.90261
    A3        1.83433  -0.00012  -0.00141   0.00071  -0.00070   1.83363
    A4        1.91834  -0.00025  -0.00210   0.00462   0.00251   1.92085
    A5        1.97126   0.00068   0.00590   0.00375   0.00967   1.98093
    A6        1.89279   0.00003  -0.00026  -0.00039  -0.00071   1.89209
    A7        1.92480  -0.00028  -0.00133  -0.00526  -0.00661   1.91819
    A8        1.89231  -0.00006  -0.00129  -0.00072  -0.00205   1.89026
    A9        1.86172  -0.00013  -0.00097  -0.00230  -0.00335   1.85836
   A10        1.97030   0.00002   0.00065  -0.00686  -0.00621   1.96409
   A11        1.87290   0.00004   0.00101   0.00468   0.00570   1.87860
   A12        1.91545  -0.00004  -0.00106   0.00045  -0.00062   1.91483
   A13        1.90349  -0.00006  -0.00191   0.00367   0.00177   1.90526
   A14        1.94314   0.00004   0.00109  -0.00018   0.00090   1.94404
   A15        1.85345  -0.00000   0.00016  -0.00118  -0.00101   1.85244
   A16        1.94537   0.00005   0.00116   0.00559   0.00666   1.95202
   A17        1.94242   0.00011   0.00115   0.00298   0.00404   1.94645
   A18        1.94228   0.00010   0.00071   0.00534   0.00596   1.94823
   A19        1.97618  -0.00003   0.00160  -0.00442  -0.00281   1.97337
   A20        1.93811   0.00003  -0.00019   0.00177   0.00157   1.93968
[...]
    11  H    0.000118   0.108417   0.003389   0.000458   0.000225   0.003379
    12  H    0.001130   0.010560   0.000355   0.000025   0.000065   0.000809
    13  H    0.002836   0.007737   0.002345   0.000018   0.000105   0.000141
    14  H    0.000247   0.057687   0.019596   0.000169   0.000259   0.000359
    15  H    0.005840   0.002171   0.005629   0.000048   0.000949   0.000097
    16  H    0.005864   0.006549   0.014936   0.001500   0.026191   0.003429
    17  H   -0.011585   0.000030   0.000090   0.000001   0.000175   0.000016
    18  H   -0.010625   0.000205   0.000175   0.000002   0.000073   0.000040
    19  H    0.597305   0.000170   0.000118   0.000010   0.000662   0.000297
    20  H    0.000170   0.964907   0.039952   0.017983   0.013442   0.018250
    21  H    0.000118   0.039952   0.590858   0.005049   0.004825   0.007823
    22  H    0.000010   0.017983   0.005049   0.595405  -0.010033  -0.010910
    23  H    0.000662   0.013442   0.004825  -0.010033   0.618662  -0.012215
    24  H    0.000297   0.018250   0.007823  -0.010910  -0.012215   0.619554
 Mulliken charges:
               1
     1  N   -0.535800
     2  C    0.011961
     3  C    0.005050
     4  N   -0.229699
     5  C   -0.049305
     6  C   -0.325976
     7  C   -0.015735
     8  C   -0.334982
     9  H    0.078501
    10  H    0.142652
    11  H   -0.046818
    12  H    0.025262
    13  H    0.071187
    14  H    0.070154
    15  H    0.174057
    16  H    0.100995
    17  H    0.118590
    18  H    0.102153
    19  H    0.122797
    20  H    0.016126
    21  H    0.151390
    22  H    0.120069
    23  H    0.110337
    24  H    0.117033
 Sum of Mulliken charges =  -0.00000
 Mulliken charges with hydrogens summed into heavy atoms:
               1
     1  N   -0.314646
     2  C   -0.009595
     3  C    0.146392
     4  N   -0.229699
     5  C    0.225747
     6  C    0.017564
     7  C    0.151781
     8  C    0.012456
 Electronic spatial extent (au):  <R**2>=           1450.1868
 Charge=             -0.0000 electrons
 Dipole moment (field-independent basis, Debye):
    X=              6.5669    Y=              0.4055    Z=              1.0831  Tot=              6.6680
 Quadrupole moment (field-independent basis, Debye-Ang):
   XX=            -65.0275   YY=            -55.5468   ZZ=            -53.0496
   XY=              2.2735   XZ=              2.1783   YZ=              0.4449
 Traceless Quadrupole moment (field-independent basis, Debye-Ang):
   XX=             -7.1529   YY=              2.3279   ZZ=              4.8250
   XY=              2.2735   XZ=              2.1783   YZ=              0.4449
 Octapole moment (field-independent basis, Debye-Ang**2):
  XXX=             47.4720  YYY=              6.8649  ZZZ=              2.7218  XYY=             15.9775
  XXY=             -8.4976  XXZ=             -2.2325  XZZ=              5.0284  YZZ=              1.3657
  YYZ=              3.1605  XYZ=             -0.3377
 Hexadecapole moment (field-independent basis, Debye-Ang**3):
 XXXX=          -1291.5222 YYYY=           -653.3759 ZZZZ=           -164.6584 XXXY=             42.2635
 XXXZ=             22.5951 YYYX=             -8.7241 YYYZ=             -0.8397 ZZZX=              3.6109
 ZZZY=              2.2004 XXYY=           -313.5133 XXZZ=           -224.5359 YYZZ=           -136.3166
 XXYZ=              2.5192 YYXZ=              4.9945 ZZXY=              0.1012
 N-N= 4.096459941936D+02 E-N=-1.622929838715D+03  KE= 3.445134326101D+02
 Evaluate density.
 Using the total density.
 Monte-Carlo method of calculating molar volume:
 based on  0.001 e/bohr**3 density envelope.
 Number of points per bohr**3 =   20 CutOff= 1.00D-04
 Using the CI density.
 There are       379 points.  Will hold       379 in memory.
 LenV=  1073624308 MDV=  1073741824.
 Box volume = 6855.427 fraction occupied=0.201
 Integrated density= 8.3423676119983071D+01 error= 1.7423676119983071D+01
 Molar volume = 1374.703 bohr**3/mol (122.677 cm**3/mol)
 Recommended a0 for SCRF calculation =  4.52 angstrom (  8.54 bohr)
 ******************************Gaussian NBO Version 3.1******************************
             N A T U R A L   A T O M I C   O R B I T A L   A N D
          N A T U R A L   B O N D   O R B I T A L   A N A L Y S I S
 ******************************Gaussian NBO Version 3.1******************************
       /RESON  / : Allow strongly delocalized NBO set

 Analyzing the CI density

 Job title: UDGSVBYJWHOHNN-UHFFFAOYSA-N_conf_3                              

 Storage needed:    121952 in NPA (1073738704 available)
 GSVD:  LWork=       20800 too small for GESVD, short by       16736 words or       16736 for optimal perf.


 NATURAL POPULATIONS:  Natural atomic orbital occupancies 
                                                          
   NAO  Atom  No  lang   Type(AO)    Occupancy
 --------------------------------------------
     1    N    1  S      Cor( 1S)     1.99964
     2    N    1  S      Val( 2S)     1.46972
     3    N    1  S      Ryd( 3S)     0.00508
     4    N    1  S      Ryd( 4S)     0.00005
     5    N    1  px     Val( 2p)     1.27208
     6    N    1  px     Ryd( 3p)     0.00184
     7    N    1  py     Val( 2p)     1.77103
     8    N    1  py     Ryd( 3p)     0.00510
     9    N    1  pz     Val( 2p)     1.38058
    10    N    1  pz     Ryd( 3p)     0.00258
    11    N    1  dxy    Ryd( 3d)     0.00095
    12    N    1  dxz    Ryd( 3d)     0.00043
    13    N    1  dyz    Ryd( 3d)     0.00131
    14    N    1  dx2y2  Ryd( 3d)     0.00113
    15    N    1  dz2    Ryd( 3d)     0.00035

    16    C    2  S      Cor( 1S)     1.99936
    17    C    2  S      Val( 2S)     1.03560
    18    C    2  S      Ryd( 3S)     0.00266
    19    C    2  S      Ryd( 4S)     0.00005
    20    C    2  px     Val( 2p)     0.88602
    21    C    2  px     Ryd( 3p)     0.00590
    22    C    2  py     Val( 2p)     1.20391
    23    C    2  py     Ryd( 3p)     0.00343
    24    C    2  pz     Val( 2p)     1.14446
    25    C    2  pz     Ryd( 3p)     0.00574
    26    C    2  dxy    Ryd( 3d)     0.00110
    27    C    2  dxz    Ryd( 3d)     0.00099
    28    C    2  dyz    Ryd( 3d)     0.00070
    29    C    2  dx2y2  Ryd( 3d)     0.00107
    30    C    2  dz2    Ryd( 3d)     0.00077

    31    C    3  S      Cor( 1S)     1.99925
    32    C    3  S      Val( 2S)     1.05926
    33    C    3  S      Ryd( 3S)     0.00228
    34    C    3  S      Ryd( 4S)     0.00004
    35    C    3  px     Val( 2p)     0.83983
    36    C    3  px     Ryd( 3p)     0.00373
    37    C    3  py     Val( 2p)     1.23940
    38    C    3  py     Ryd( 3p)     0.00517
    39    C    3  pz     Val( 2p)     1.16611
    40    C    3  pz     Ryd( 3p)     0.00458
    41    C    3  dxy    Ryd( 3d)     0.00062
    42    C    3  dxz    Ryd( 3d)     0.00079
    43    C    3  dyz    Ryd( 3d)     0.00051
    44    C    3  dx2y2  Ryd( 3d)     0.00131
    45    C    3  dz2    Ryd( 3d)     0.00103

    46    N    4  S      Cor( 1S)     1.99929
    47    N    4  S      Val( 2S)     1.28933
    48    N    4  S      Ryd( 3S)     0.00126
    49    N    4  S      Ryd( 4S)     0.00003
    50    N    4  px     Val( 2p)     1.29134
    51    N    4  px     Ryd( 3p)     0.00108
    52    N    4  py     Val( 2p)     1.29066
    53    N    4  py     Ryd( 3p)     0.00157
    54    N    4  pz     Val( 2p)     1.17825
    55    N    4  pz     Ryd( 3p)     0.00225
    56    N    4  dxy    Ryd( 3d)     0.00082
    57    N    4  dxz    Ryd( 3d)     0.00086
    58    N    4  dyz    Ryd( 3d)     0.00085
    59    N    4  dx2y2  Ryd( 3d)     0.00083
    60    N    4  dz2    Ryd( 3d)     0.00038

    61    C    5  S      Cor( 1S)     1.99930
    62    C    5  S      Val( 2S)     1.04912
    63    C    5  S      Ryd( 3S)     0.00174
    64    C    5  S      Ryd( 4S)     0.00003
    65    C    5  px     Val( 2p)     1.09752
    66    C    5  px     Ryd( 3p)     0.00313
    67    C    5  py     Val( 2p)     0.97848
    68    C    5  py     Ryd( 3p)     0.00285
    69    C    5  pz     Val( 2p)     1.17015
    70    C    5  pz     Ryd( 3p)     0.00241
    71    C    5  dxy    Ryd( 3d)     0.00137
    72    C    5  dxz    Ryd( 3d)     0.00045
    73    C    5  dyz    Ryd( 3d)     0.00073
    74    C    5  dx2y2  Ryd( 3d)     0.00070
    75    C    5  dz2    Ryd( 3d)     0.00115

    76    C    6  S      Cor( 1S)     1.99945
    77    C    6  S      Val( 2S)     1.11154
    78    C    6  S      Ryd( 3S)     0.00045
    79    C    6  S      Ryd( 4S)     0.00001
    80    C    6  px     Val( 2p)     1.26056
    81    C    6  px     Ryd( 3p)     0.00167
    82    C    6  py     Val( 2p)     1.13429
    83    C    6  py     Ryd( 3p)     0.00380
    84    C    6  pz     Val( 2p)     1.19475
    85    C    6  pz     Ryd( 3p)     0.00175
    86    C    6  dxy    Ryd( 3d)     0.00070
    87    C    6  dxz    Ryd( 3d)     0.00023
    88    C    6  dyz    Ryd( 3d)     0.00053
    89    C    6  dx2y2  Ryd( 3d)     0.00040
    90    C    6  dz2    Ryd( 3d)     0.00077

    91    C    7  S      Cor( 1S)     1.99930
    92    C    7  S      Val( 2S)     1.05212
    93    C    7  S      Ryd( 3S)     0.00213
    94    C    7  S      Ryd( 4S)     0.00004
    95    C    7  px     Val( 2p)     1.17162
    96    C    7  px     Ryd( 3p)     0.00373
    97    C    7  py     Val( 2p)     0.92039
    98    C    7  py     Ryd( 3p)     0.00469
    99    C    7  pz     Val( 2p)     1.16038
   100    C    7  pz     Ryd( 3p)     0.00228
   101    C    7  dxy    Ryd( 3d)     0.00103
   102    C    7  dxz    Ryd( 3d)     0.00052
   103    C    7  dyz    Ryd( 3d)     0.00066
   104    C    7  dx2y2  Ryd( 3d)     0.00099
   105    C    7  dz2    Ryd( 3d)     0.00106

   106    C    8  S      Cor( 1S)     1.99945
   107    C    8  S      Val( 2S)     1.10975
   108    C    8  S      Ryd( 3S)     0.00043
   109    C    8  S      Ryd( 4S)     0.00001
   110    C    8  px     Val( 2p)     1.16686
   111    C    8  px     Ryd( 3p)     0.00361
   112    C    8  py     Val( 2p)     1.23090
   113    C    8  py     Ryd( 3p)     0.00171
   114    C    8  pz     Val( 2p)     1.19542
   115    C    8  pz     Ryd( 3p)     0.00255
   116    C    8  dxy    Ryd( 3d)     0.00063
   117    C    8  dxz    Ryd( 3d)     0.00046
   118    C    8  dyz    Ryd( 3d)     0.00033
   119    C    8  dx2y2  Ryd( 3d)     0.00047
   120    C    8  dz2    Ryd( 3d)     0.00076

   121    H    9  S      Val( 1S)     0.68993
   122    H    9  S      Ryd( 2S)     0.05127
   123    H    9  px     Ryd( 2p)     0.00027
   124    H    9  py     Ryd( 2p)     0.00063
   125    H    9  pz     Ryd( 2p)     0.00044

   126    H   10  S      Val( 1S)     0.65524
   127    H   10  S      Ryd( 2S)     0.03181
   128    H   10  px     Ryd( 2p)     0.00038
   129    H   10  py     Ryd( 2p)     0.00057
   130    H   10  pz     Ryd( 2p)     0.00041

   131    H   11  S      Val( 1S)     0.84528
   132    H   11  S      Ryd( 2S)     0.04745
   133    H   11  px     Ryd( 2p)     0.00007
   134    H   11  py     Ryd( 2p)     0.00036
   135    H   11  pz     Ryd( 2p)     0.00013

   136    H   12  S      Val( 1S)     0.79702
   137    H   12  S      Ryd( 2S)     0.02712
   138    H   12  px     Ryd( 2p)     0.00008
   139    H   12  py     Ryd( 2p)     0.00016
   140    H   12  pz     Ryd( 2p)     0.00033

   141    H   13  S      Val( 1S)     0.76330
   142    H   13  S      Ryd( 2S)     0.02392
   143    H   13  px     Ryd( 2p)     0.00008
   144    H   13  py     Ryd( 2p)     0.00035
   145    H   13  pz     Ryd( 2p)     0.00009

   146    H   14  S      Val( 1S)     0.74496
   147    H   14  S      Ryd( 2S)     0.03777
   148    H   14  px     Ryd( 2p)     0.00008
   149    H   14  py     Ryd( 2p)     0.00013
   150    H   14  pz     Ryd( 2p)     0.00034

   151    H   15  S      Val( 1S)     0.71096
   152    H   15  S      Ryd( 2S)     0.00584
   153    H   15  px     Ryd( 2p)     0.00007
   154    H   15  py     Ryd( 2p)     0.00010
   155    H   15  pz     Ryd( 2p)     0.00037

   156    H   16  S      Val( 1S)     0.75525
   157    H   16  S      Ryd( 2S)     0.01787
   158    H   16  px     Ryd( 2p)     0.00035
   159    H   16  py     Ryd( 2p)     0.00009
   160    H   16  pz     Ryd( 2p)     0.00007

   161    H   17  S      Val( 1S)     0.74859
   162    H   17  S      Ryd( 2S)     0.00498
   163    H   17  px     Ryd( 2p)     0.00019
   164    H   17  py     Ryd( 2p)     0.00022
   165    H   17  pz     Ryd( 2p)     0.00009

   166    H   18  S      Val( 1S)     0.76722
   167    H   18  S      Ryd( 2S)     0.01144
   168    H   18  px     Ryd( 2p)     0.00029
   169    H   18  py     Ryd( 2p)     0.00015
   170    H   18  pz     Ryd( 2p)     0.00008

   171    H   19  S      Val( 1S)     0.75588
   172    H   19  S      Ryd( 2S)     0.00421
   173    H   19  px     Ryd( 2p)     0.00009
   174    H   19  py     Ryd( 2p)     0.00008
   175    H   19  pz     Ryd( 2p)     0.00033

   176    H   20  S      Val( 1S)     0.78890
   177    H   20  S      Ryd( 2S)     0.04639
   178    H   20  px     Ryd( 2p)     0.00025
   179    H   20  py     Ryd( 2p)     0.00020
   180    H   20  pz     Ryd( 2p)     0.00007

   181    H   21  S      Val( 1S)     0.71706
   182    H   21  S      Ryd( 2S)     0.01137
   183    H   21  px     Ryd( 2p)     0.00012
   184    H   21  py     Ryd( 2p)     0.00007
   185    H   21  pz     Ryd( 2p)     0.00035

   186    H   22  S      Val( 1S)     0.74882
   187    H   22  S      Ryd( 2S)     0.00414
   188    H   22  px     Ryd( 2p)     0.00010
   189    H   22  py     Ryd( 2p)     0.00030
   190    H   22  pz     Ryd( 2p)     0.00009

   191    H   23  S      Val( 1S)     0.76452
   192    H   23  S      Ryd( 2S)     0.00645
   193    H   23  px     Ryd( 2p)     0.00027
   194    H   23  py     Ryd( 2p)     0.00017
   195    H   23  pz     Ryd( 2p)     0.00009

   196    H   24  S      Val( 1S)     0.75863
   197    H   24  S      Ryd( 2S)     0.00570
   198    H   24  px     Ryd( 2p)     0.00011
   199    H   24  py     Ryd( 2p)     0.00007
   200    H   24  pz     Ryd( 2p)     0.00032


 Summary of Natural Population Analysis:                  
                                                          
                                       Natural Population 
                Natural  -----------------------------------------------
    Atom  No    Charge         Core      Valence    Rydberg      Total
 -----------------------------------------------------------------------
      N    1   -0.91188      1.99964     5.89341    0.01882     7.91188
      C    2   -0.29176      1.99936     4.26999    0.02241     6.29176
      C    3   -0.32391      1.99925     4.30460    0.02006     6.32391
      N    4   -0.05879      1.99929     5.04958    0.00992     7.05879
      C    5   -0.30911      1.99930     4.29526    0.01455     6.30911
      C    6   -0.71091      1.99945     4.70114    0.01032     6.71091
      C    7   -0.32093      1.99930     4.30451    0.01712     6.32093
      C    8   -0.71336      1.99945     4.70294    0.01097     6.71336
      H    9    0.25747      0.00000     0.68993    0.05261     0.74253
      H   10    0.31158      0.00000     0.65524    0.03317     0.68842
      H   11    0.10671      0.00000     0.84528    0.04801     0.89329
      H   12    0.17529      0.00000     0.79702    0.02769     0.82471
      H   13    0.21226      0.00000     0.76330    0.02444     0.78774
      H   14    0.21672      0.00000     0.74496    0.03832     0.78328
      H   15    0.28266      0.00000     0.71096    0.00638     0.71734
      H   16    0.22636      0.00000     0.75525    0.01838     0.77364
      H   17    0.24593      0.00000     0.74859    0.00548     0.75407
      H   18    0.22081      0.00000     0.76722    0.01197     0.77919
      H   19    0.23942      0.00000     0.75588    0.00470     0.76058
      H   20    0.16420      0.00000     0.78890    0.04690     0.83580
      H   21    0.27103      0.00000     0.71706    0.01191     0.72897
      H   22    0.24654      0.00000     0.74882    0.00464     0.75346
      H   23    0.22850      0.00000     0.76452    0.00698     0.77150
      H   24    0.23517      0.00000     0.75863    0.00620     0.76483
 =======================================================================
   * Total *   -0.00000     15.99503    49.53299    0.47198    66.00000

                                 Natural Population      
 --------------------------------------------------------
   Core                      15.99503 ( 99.9690% of  16)
   Valence                   49.53299 ( 99.0660% of  50)
   Natural Minimal Basis     65.52802 ( 99.2849% of  66)
   Natural Rydberg Basis      0.47198 (  0.7151% of  66)
 --------------------------------------------------------

    Atom  No          Natural Electron Configuration
 ----------------------------------------------------------------------------
      N    1      [core]2S( 1.47)2p( 4.42)3S( 0.01)3p( 0.01)
      C    2      [core]2S( 1.04)2p( 3.23)3p( 0.02)
      C    3      [core]2S( 1.06)2p( 3.25)3p( 0.01)
      N    4      [core]2S( 1.29)2p( 3.76)
      C    5      [core]2S( 1.05)2p( 3.25)3p( 0.01)
      C    6      [core]2S( 1.11)2p( 3.59)3p( 0.01)
      C    7      [core]2S( 1.05)2p( 3.25)3p( 0.01)
      C    8      [core]2S( 1.11)2p( 3.59)3p( 0.01)
      H    9            1S( 0.69)2S( 0.05)
      H   10            1S( 0.66)2S( 0.03)
      H   11            1S( 0.85)2S( 0.05)
      H   12            1S( 0.80)2S( 0.03)
      H   13            1S( 0.76)2S( 0.02)
      H   14            1S( 0.74)2S( 0.04)
      H   15            1S( 0.71)2S( 0.01)
      H   16            1S( 0.76)2S( 0.02)
      H   17            1S( 0.75)
      H   18            1S( 0.77)2S( 0.01)
      H   19            1S( 0.76)
      H   20            1S( 0.79)2S( 0.05)
      H   21            1S( 0.72)2S( 0.01)
      H   22            1S( 0.75)
      H   23            1S( 0.76)2S( 0.01)
      H   24            1S( 0.76)2S( 0.01)


 NBO analysis skipped by request.
 1\1\GINC-CN34\SP\RB3LYP TD-FC\6-31G(d,p)\C6H16N2\QDUEZ\11-Jul-2024\0\\
 # TD(NStates=10, Root=1) B3LYP/6-31G** SCRF=(Solvent=water) volume pop
 =NPA density=current Geom=AllCheck Guess=Read\\UDGSVBYJWHOHNN-UHFFFAOY
 SA-N_conf_3\\0,1\N,0,3.0209794657,-1.3080042429,-0.9024954016\C,0,1.86
 22280574,-1.0525546824,-0.032860518\C,0,0.8687972412,-0.1278055751,-0.
 7420809434\N,0,-0.3186102298,0.1564777699,0.0738548357\C,0,-0.89177209
 67,1.4764725078,-0.2319697893\C,0,-0.1130723012,2.629525108,0.40231282
 69\C,0,-1.3235847855,-0.9130054519,-0.0394312188\C,0,-2.2508009081,-0.
 9971934797,1.1737202861\H,0,2.725797924,-1.8959338404,-1.6809146496\H,
 0,3.7012320243,-1.8674687486,-0.3920865087\H,0,1.3501057735,-1.9711610
 09,0.2977491726\H,0,2.214595004,-0.5490540787,0.8744501179\H,0,1.38692
 70028,0.8100787956,-0.9603656882\H,0,0.5908546677,-0.5612195371,-1.722
 6314963\H,0,-0.9756911307,1.6318002662,-1.3243874437\H,0,-1.9142762772
 ,1.4976662666,0.1565081744\H,0,-0.5912406228,3.5858346638,0.1655573055
 \H,0,0.9188531967,2.68007936,0.0406463218\H,0,-0.0831559063,2.51780878
 22,1.4905908116\H,0,-0.7924018584,-1.8650645337,-0.1331992378\H,0,-1.9
 199442561,-0.8023872869,-0.9651321125\H,0,-2.9596288896,-1.8230572394,
 1.0522975782\H,0,-2.8346626043,-0.0820474326,1.3138060998\H,0,-1.67152
 84906,-1.169786382,2.0860614776\\Version=EM64L-G16RevA.03\State=1-A\HF
 =-347.7862094\RMSD=1.810e-09\Dipole=-2.3408161,1.1601728,0.2381078\Qua
 drupole=-3.9314116,1.8069914,2.1244202,1.1151369,3.6270126,-1.2828328\
 PG=C01 [X(C6H16N2)]\\@


 A SOLDIER'S LIFE IS A LIFE OF HONOR, BUT A DOG WOULD NOT LEAD IT.
 -- PRINCE RUPERT, FOUNDER OF THE HUDSON'S BAY COMPANY
 Job cpu time:       0 days  0 hours 57 minutes  5.6 seconds.
 Elapsed time:       0 days  0 hours 20 minutes 38.6 seconds.
 File lengths (MBytes):  RWF=    377 Int=      0 D2E=      0 Chk=     24 Scr=      1
 Normal termination of Gaussian 16 at Thu Jul 11 19:37:45 2024.
