 Entering Gaussian System, Link 0=g16
 Initial command:
 /opt/sw/arch/manual/gaussian/G16_A03/g16/l1.exe "/scratch/1032100.jesse.materianova.be/Gau-49196.inp" -scrdir="/scratch/1032100.jesse.materianova.be/"
 Entering Link 1 = /opt/sw/arch/manual/gaussian/G16_A03/g16/l1.exe PID=     49197.
  
 Copyright (c) 1988,1990,1992,1993,1995,1998,2003,2009,2016,
            Gaussian, Inc.  All Rights Reserved.
  
 This is part of the Gaussian(R) 16 program.  It is based on
 the Gaussian(R) 09 system (copyright 2009, Gaussian, Inc.),
 the Gaussian(R) 03 system (copyright 2003, Gaussian, Inc.),
 the Gaussian(R) 98 system (copyright 1998, Gaussian, Inc.),
 the Gaussian(R) 94 system (copyright 1995, Gaussian, Inc.),
 the Gaussian 92(TM) system (copyright 1992, Gaussian, Inc.),
 the Gaussian 90(TM) system (copyright 1990, Gaussian, Inc.),
 the Gaussian 88(TM) system (copyright 1988, Gaussian, Inc.),
 the Gaussian 86(TM) system (copyright 1986, Carnegie Mellon
 University), and the Gaussian 82(TM) system (copyright 1983,
 Carnegie Mellon University). Gaussian is a federally registered
 trademark of Gaussian, Inc.
  
 This software contains proprietary and confidential information,
 including trade secrets, belonging to Gaussian, Inc.
  
 This software is provided under written license and may be
 used, copied, transmitted, or stored only in accord with that
 written license.
  
 The following legend is applicable only to US Government
 contracts under FAR:
  
                    RESTRICTED RIGHTS LEGEND
  
 Use, reproduction and disclosure by the US Government is
 subject to restrictions as set forth in subparagraphs (a)
 and (c) of the Commercial Computer Software - Restricted
 Rights clause in FAR 52.227-19.
  
 Gaussian, Inc.
 340 Quinnipiac St., Bldg. 40, Wallingford CT 06492
  
  
 ---------------------------------------------------------------
 Warning -- This program may not be used in any manner that
 competes with the business of Gaussian, Inc. or will provide
 assistance to any competitor of Gaussian, Inc.  The licensee
 of this program is prohibited from giving any competitor of
 Gaussian, Inc. access to this program.  By using this program,
 the user acknowledges that Gaussian, Inc. is engaged in the
 business of creating and licensing software in the field of
 computational chemistry and represents and warrants to the
 licensee that it is not a competitor of Gaussian, Inc. and that
 it will not use this program in any manner prohibited above.
 ---------------------------------------------------------------
  

 Cite this work as:
 Gaussian 16, Revision A.03,
 M. J. Frisch, G. W. Trucks, H. B. Schlegel, G. E. Scuseria, 
 M. A. Robb, J. R. Cheeseman, G. Scalmani, V. Barone, 
 G. A. Petersson, H. Nakatsuji, X. Li, M. Caricato, A. V. Marenich, 
 J. Bloino, B. G. Janesko, R. Gomperts, B. Mennucci, H. P. Hratchian, 
 J. V. Ortiz, A. F. Izmaylov, J. L. Sonnenberg, D. Williams-Young, 
 F. Ding, F. Lipparini, F. Egidi, J. Goings, B. Peng, A. Petrone, 
 T. Henderson, D. Ranasinghe, V. G. Zakrzewski, J. Gao, N. Rega, 
 G. Zheng, W. Liang, M. Hada, M. Ehara, K. Toyota, R. Fukuda, 
 J. Hasegawa, M. Ishida, T. Nakajima, Y. Honda, O. Kitao, H. Nakai, 
 T. Vreven, K. Throssell, J. A. Montgomery, Jr., J. E. Peralta, 
 F. Ogliaro, M. J. Bearpark, J. J. Heyd, E. N. Brothers, K. N. Kudin, 
 V. N. Staroverov, T. A. Keith, R. Kobayashi, J. Normand, 
 K. Raghavachari, A. P. Rendell, J. C. Burant, S. S. Iyengar, 
 J. Tomasi, M. Cossi, J. M. Millam, M. Klene, C. Adamo, R. Cammi, 
 J. W. Ochterski, R. L. Martin, K. Morokuma, O. Farkas, 
 J. B. Foresman, and D. J. Fox, Gaussian, Inc., Wallingford CT, 2016.
 
 ******************************************
 Gaussian 16:  EM64L-G16RevA.03 25-Dec-2016
                11-Jul-2024 
 ******************************************
 %nprocshared=4
 Will use up to    4 processors via shared memory.
 %mem=8GB
 %Chk=UDGSVBYJWHOHNN-UHFFFAOYSA-N_conf_0_0.chk
 -------------------------------------------------------
 # opt=CalcFc B3LYP/6-31G** SCRF=(Solvent=water) scf=xqc
 -------------------------------------------------------
 1/10=4,18=20,19=15,26=3,38=1/1,3;
 2/9=110,12=2,17=6,18=5,40=1/2;
 3/5=1,6=6,7=101,11=2,25=1,30=1,70=2201,71=2,72=1,74=-5,140=1/1,2,3;
 4//1;
 5/5=2,8=3,13=1,38=5,53=1/2,8;
 8/6=4,10=90,11=11/1;
 11/6=1,8=1,9=11,15=111,16=1/1,2,10;
 10/6=1,13=1/2;
 6/7=2,8=2,9=2,10=2,28=1/1;
 7/10=1,18=20,25=1/1,2,3,16;
 1/10=4,18=20,19=15,26=3/3(2);
 2/9=110/2;
 99//99;
 2/9=110/2;
 3/5=1,6=6,7=101,11=2,25=1,30=1,70=2205,71=1,72=1,74=-5/1,2,3;
 4/5=5,16=3,69=1/1;
 5/5=2,8=3,13=1,38=5,53=1/2,8;
 7//1,2,3,16;
 1/18=20,19=15,26=3/3(-5);
 2/9=110/2;
 6/7=2,8=2,9=2,10=2,19=2,28=1/1;
 99/9=1/99;
 ----------------------------------
 UDGSVBYJWHOHNN-UHFFFAOYSA-N_conf_0
 ----------------------------------
 Symbolic Z-matrix:
 Charge =  0 Multiplicity = 1
 N                     3.15934   0.45559   0.70843 
 C                     2.03418   0.42859  -0.23115 
 C                     0.78309  -0.22531   0.39703 
 N                    -0.36616  -0.36274  -0.52123 
 C                    -0.83211   0.911    -1.0943 
 C                    -1.30402   1.96967  -0.10153 
 C                    -1.4761   -1.10568   0.10079 
 C                    -1.17869  -2.59384   0.25861 
 H                     2.92023   1.041     1.50748 
 H                     3.95746   0.90009   0.25649 
 H                     2.33445  -0.13186  -1.12334 
 H                     1.82559   1.45882  -0.53574 
 H                     1.09212  -1.22185   0.73348 
 H                     0.49256   0.32843   1.29904 
 H                    -0.04342   1.33934  -1.72341 
 H                    -1.6503    0.70406  -1.79665 
 H                    -0.49651   2.29441   0.56117 
 H                    -2.13476   1.60869   0.51208 
 H                    -1.65637   2.85308  -0.64468 
 H                    -1.74807  -0.67876   1.07375 
 H                    -2.36626  -1.03446  -0.53729 
 H                    -0.85768  -3.03515  -0.69083 
 H                    -2.08265  -3.12051   0.58271 
 H                    -0.4059   -2.78262   1.00909 
 

 GradGradGradGradGradGradGradGradGradGradGradGradGradGradGradGradGradGrad
 Berny optimization.
 Initialization pass.
                           ----------------------------
                           !    Initial Parameters    !
                           ! (Angstroms and Degrees)  !
 --------------------------                            --------------------------
 ! Name  Definition              Value          Derivative Info.                !
 --------------------------------------------------------------------------------
 ! R1    R(1,2)                  1.4661         calculate D2E/DX2 analytically  !
 ! R2    R(1,9)                  1.019          calculate D2E/DX2 analytically  !
 ! R3    R(1,10)                 1.0192         calculate D2E/DX2 analytically  !
 ! R4    R(2,3)                  1.5451         calculate D2E/DX2 analytically  !
 ! R5    R(2,11)                 1.0956         calculate D2E/DX2 analytically  !
 ! R6    R(2,12)                 1.0944         calculate D2E/DX2 analytically  !
 ! R7    R(3,4)                  1.4775         calculate D2E/DX2 analytically  !
 ! R8    R(3,13)                 1.0963         calculate D2E/DX2 analytically  !
 ! R9    R(3,14)                 1.0976         calculate D2E/DX2 analytically  !
 ! R10   R(4,5)                  1.4724         calculate D2E/DX2 analytically  !
 ! R11   R(4,7)                  1.4734         calculate D2E/DX2 analytically  !
 ! R12   R(5,6)                  1.5261         calculate D2E/DX2 analytically  !
 ! R13   R(5,15)                 1.096          calculate D2E/DX2 analytically  !
 ! R14   R(5,16)                 1.098          calculate D2E/DX2 analytically  !
 ! R15   R(6,17)                 1.0939         calculate D2E/DX2 analytically  !
 ! R16   R(6,18)                 1.0941         calculate D2E/DX2 analytically  !
 ! R17   R(6,19)                 1.0952         calculate D2E/DX2 analytically  !
 ! R18   R(7,8)                  1.5258         calculate D2E/DX2 analytically  !
 ! R19   R(7,20)                 1.0968         calculate D2E/DX2 analytically  !
 ! R20   R(7,21)                 1.0975         calculate D2E/DX2 analytically  !
 ! R21   R(8,22)                 1.0951         calculate D2E/DX2 analytically  !
 ! R22   R(8,23)                 1.0952         calculate D2E/DX2 analytically  !
 ! R23   R(8,24)                 1.0937         calculate D2E/DX2 analytically  !
 ! A1    A(2,1,9)              109.453          calculate D2E/DX2 analytically  !
 ! A2    A(2,1,10)             108.9543         calculate D2E/DX2 analytically  !
 ! A3    A(9,1,10)             106.3142         calculate D2E/DX2 analytically  !
 ! A4    A(1,2,3)              111.6317         calculate D2E/DX2 analytically  !
 ! A5    A(1,2,11)             108.7214         calculate D2E/DX2 analytically  !
 ! A6    A(1,2,12)             107.8967         calculate D2E/DX2 analytically  !
 ! A7    A(3,2,11)             109.6648         calculate D2E/DX2 analytically  !
 ! A8    A(3,2,12)             110.9299         calculate D2E/DX2 analytically  !
 ! A9    A(11,2,12)            107.8883         calculate D2E/DX2 analytically  !
 ! A10   A(2,3,4)              114.615          calculate D2E/DX2 analytically  !
 ! A11   A(2,3,13)             106.3339         calculate D2E/DX2 analytically  !
 ! A12   A(2,3,14)             109.5689         calculate D2E/DX2 analytically  !
 ! A13   A(4,3,13)             108.9934         calculate D2E/DX2 analytically  !
 ! A14   A(4,3,14)             110.5979         calculate D2E/DX2 analytically  !
 ! A15   A(13,3,14)            106.3203         calculate D2E/DX2 analytically  !
 ! A16   A(3,4,5)              114.0534         calculate D2E/DX2 analytically  !
 ! A17   A(3,4,7)              111.7468         calculate D2E/DX2 analytically  !
 ! A18   A(5,4,7)              111.2307         calculate D2E/DX2 analytically  !
 ! A19   A(4,5,6)              116.409          calculate D2E/DX2 analytically  !
 ! A20   A(4,5,15)             109.4976         calculate D2E/DX2 analytically  !
 ! A21   A(4,5,16)             108.7683         calculate D2E/DX2 analytically  !
 ! A22   A(6,5,15)             108.9529         calculate D2E/DX2 analytically  !
 ! A23   A(6,5,16)             108.4478         calculate D2E/DX2 analytically  !
 ! A24   A(15,5,16)            104.0464         calculate D2E/DX2 analytically  !
 ! A25   A(5,6,17)             111.8235         calculate D2E/DX2 analytically  !
 ! A26   A(5,6,18)             111.7624         calculate D2E/DX2 analytically  !
 ! A27   A(5,6,19)             109.6577         calculate D2E/DX2 analytically  !
 ! A28   A(17,6,18)            108.5838         calculate D2E/DX2 analytically  !
 ! A29   A(17,6,19)            107.3653         calculate D2E/DX2 analytically  !
 ! A30   A(18,6,19)            107.4566         calculate D2E/DX2 analytically  !
 ! A31   A(4,7,8)              112.8697         calculate D2E/DX2 analytically  !
 ! A32   A(4,7,20)             111.4109         calculate D2E/DX2 analytically  !
 ! A33   A(4,7,21)             109.4406         calculate D2E/DX2 analytically  !
 ! A34   A(8,7,20)             109.6477         calculate D2E/DX2 analytically  !
 ! A35   A(8,7,21)             106.3506         calculate D2E/DX2 analytically  !
 ! A36   A(20,7,21)            106.82           calculate D2E/DX2 analytically  !
 ! A37   A(7,8,22)             111.1321         calculate D2E/DX2 analytically  !
 ! A38   A(7,8,23)             109.8005         calculate D2E/DX2 analytically  !
 ! A39   A(7,8,24)             112.1526         calculate D2E/DX2 analytically  !
 ! A40   A(22,8,23)            107.7408         calculate D2E/DX2 analytically  !
 ! A41   A(22,8,24)            108.557          calculate D2E/DX2 analytically  !
 ! A42   A(23,8,24)            107.2854         calculate D2E/DX2 analytically  !
 ! D1    D(9,1,2,3)            -63.6939         calculate D2E/DX2 analytically  !
 ! D2    D(9,1,2,11)           175.1994         calculate D2E/DX2 analytically  !
 ! D3    D(9,1,2,12)            58.4395         calculate D2E/DX2 analytically  !
 ! D4    D(10,1,2,3)          -179.5614         calculate D2E/DX2 analytically  !
 ! D5    D(10,1,2,11)           59.332          calculate D2E/DX2 analytically  !
 ! D6    D(10,1,2,12)          -57.4279         calculate D2E/DX2 analytically  !
 ! D7    D(1,2,3,4)           -176.3979         calculate D2E/DX2 analytically  !
 ! D8    D(1,2,3,13)           -55.9128         calculate D2E/DX2 analytically  !
 ! D9    D(1,2,3,14)            58.6035         calculate D2E/DX2 analytically  !
 ! D10   D(11,2,3,4)           -55.8415         calculate D2E/DX2 analytically  !
 ! D11   D(11,2,3,13)           64.6437         calculate D2E/DX2 analytically  !
 ! D12   D(11,2,3,14)          179.16           calculate D2E/DX2 analytically  !
 ! D13   D(12,2,3,4)            63.2303         calculate D2E/DX2 analytically  !
 ! D14   D(12,2,3,13)         -176.2846         calculate D2E/DX2 analytically  !
 ! D15   D(12,2,3,14)          -61.7683         calculate D2E/DX2 analytically  !
 ! D16   D(2,3,4,5)            -58.1674         calculate D2E/DX2 analytically  !
 ! D17   D(2,3,4,7)            174.6044         calculate D2E/DX2 analytically  !
 ! D18   D(13,3,4,5)          -177.1703         calculate D2E/DX2 analytically  !
 ! D19   D(13,3,4,7)            55.6016         calculate D2E/DX2 analytically  !
 ! D20   D(14,3,4,5)            66.2883         calculate D2E/DX2 analytically  !
 ! D21   D(14,3,4,7)           -60.9398         calculate D2E/DX2 analytically  !
 ! D22   D(3,4,5,6)            -59.9469         calculate D2E/DX2 analytically  !
 ! D23   D(3,4,5,15)            64.1453         calculate D2E/DX2 analytically  !
 ! D24   D(3,4,5,16)           177.2398         calculate D2E/DX2 analytically  !
 ! D25   D(7,4,5,6)             67.5474         calculate D2E/DX2 analytically  !
 ! D26   D(7,4,5,15)          -168.3604         calculate D2E/DX2 analytically  !
 ! D27   D(7,4,5,16)           -55.2659         calculate D2E/DX2 analytically  !
 ! D28   D(3,4,7,8)            -71.6682         calculate D2E/DX2 analytically  !
 ! D29   D(3,4,7,20)            52.2056         calculate D2E/DX2 analytically  !
 ! D30   D(3,4,7,21)           170.1106         calculate D2E/DX2 analytically  !
 ! D31   D(5,4,7,8)            159.5955         calculate D2E/DX2 analytically  !
 ! D32   D(5,4,7,20)           -76.5308         calculate D2E/DX2 analytically  !
 ! D33   D(5,4,7,21)            41.3743         calculate D2E/DX2 analytically  !
 ! D34   D(4,5,6,17)            62.9651         calculate D2E/DX2 analytically  !
 ! D35   D(4,5,6,18)           -59.0067         calculate D2E/DX2 analytically  !
 ! D36   D(4,5,6,19)          -178.0585         calculate D2E/DX2 analytically  !
 ! D37   D(15,5,6,17)          -61.4063         calculate D2E/DX2 analytically  !
 ! D38   D(15,5,6,18)          176.6219         calculate D2E/DX2 analytically  !
 ! D39   D(15,5,6,19)           57.5701         calculate D2E/DX2 analytically  !
 ! D40   D(16,5,6,17)         -174.0548         calculate D2E/DX2 analytically  !
 ! D41   D(16,5,6,18)           63.9734         calculate D2E/DX2 analytically  !
 ! D42   D(16,5,6,19)          -55.0784         calculate D2E/DX2 analytically  !
 ! D43   D(4,7,8,22)           -52.4522         calculate D2E/DX2 analytically  !
 ! D44   D(4,7,8,23)          -171.5541         calculate D2E/DX2 analytically  !
 ! D45   D(4,7,8,24)            69.2662         calculate D2E/DX2 analytically  !
 ! D46   D(20,7,8,22)         -177.2919         calculate D2E/DX2 analytically  !
 ! D47   D(20,7,8,23)           63.6063         calculate D2E/DX2 analytically  !
 ! D48   D(20,7,8,24)          -55.5735         calculate D2E/DX2 analytically  !
 ! D49   D(21,7,8,22)           67.5607         calculate D2E/DX2 analytically  !
 ! D50   D(21,7,8,23)          -51.5412         calculate D2E/DX2 analytically  !
 ! D51   D(21,7,8,24)         -170.7209         calculate D2E/DX2 analytically  !
 --------------------------------------------------------------------------------
 Trust Radius=3.00D-01 FncErr=1.00D-07 GrdErr=1.00D-06 EigMax=2.50D+02 EigMin=1.00D-04
 Number of steps in this run=    126 maximum allowed number of steps=    144.
 GradGradGradGradGradGradGradGradGradGradGradGradGradGradGradGradGradGrad

                          Input orientation:                          
 ---------------------------------------------------------------------
 Center     Atomic      Atomic             Coordinates (Angstroms)
 Number     Number       Type             X           Y           Z
 ---------------------------------------------------------------------
      1          7           0        3.159339    0.455587    0.708430
      2          6           0        2.034175    0.428593   -0.231155
      3          6           0        0.783090   -0.225306    0.397027
      4          7           0       -0.366162   -0.362743   -0.521231
      5          6           0       -0.832114    0.910997   -1.094298
      6          6           0       -1.304019    1.969673   -0.101528
      7          6           0       -1.476100   -1.105675    0.100790
      8          6           0       -1.178693   -2.593837    0.258607
      9          1           0        2.920234    1.040997    1.507482
     10          1           0        3.957457    0.900085    0.256488
     11          1           0        2.334455   -0.131858   -1.123344
     12          1           0        1.825594    1.458821   -0.535742
     13          1           0        1.092117   -1.221851    0.733482
     14          1           0        0.492563    0.328425    1.299035
     15          1           0       -0.043424    1.339341   -1.723413
     16          1           0       -1.650299    0.704058   -1.796646
     17          1           0       -0.496513    2.294410    0.561169
     18          1           0       -2.134764    1.608695    0.512082
     19          1           0       -1.656370    2.853077   -0.644678
     20          1           0       -1.748074   -0.678756    1.073755
     21          1           0       -2.366262   -1.034457   -0.537290
     22          1           0       -0.857683   -3.035149   -0.690826
     23          1           0       -2.082649   -3.120507    0.582712
     24          1           0       -0.405899   -2.782620    1.009093
 ---------------------------------------------------------------------
                    Distance matrix (angstroms):
                    1          2          3          4          5
     1  N    0.000000
     2  C    1.466131   0.000000
     3  C    2.491414   1.545124   0.000000
     4  N    3.822418   2.544008   1.477453   0.000000
     5  C    4.403285   3.032053   2.474696   1.472389   0.000000
     6  C    4.782264   3.679032   3.069612   2.548704   1.526134
     7  C    4.928901   3.845283   2.442693   1.473371   2.431033
     8  C    5.321640   4.438184   3.078586   2.499227   3.772841
     9  H    1.018999   2.045237   2.721032   4.109326   4.567962
    10  H    1.019226   2.039390   3.370884   4.570914   4.976417
    11  H    2.093065   1.095570   2.174165   2.776541   3.333999
    12  H    2.081662   1.094372   2.189327   2.849929   2.770470
    13  H    2.662298   2.131188   1.096268   2.106882   3.404774
    14  H    2.734351   2.174416   1.097563   2.128025   2.796820
    15  H    4.117349   2.715275   2.761795   2.108670   1.096037
    16  H    5.428606   4.012730   3.405481   2.100894   1.097973
    17  H    4.094900   3.242442   2.830776   2.872114   2.183353
    18  H    5.421783   4.396032   3.448285   2.842931   2.182691
    19  H    5.547063   4.435003   4.063565   3.467185   2.157135
    20  H    5.050039   4.151436   2.659017   2.133899   2.840202
    21  H    5.856989   4.647374   3.383208   2.109943   2.539422
    22  H    5.502692   4.535598   3.430857   2.722519   3.966801
    23  H    6.346864   5.496065   4.077883   3.430784   4.541941
    24  H    4.825692   4.219486   2.885858   2.863438   4.271852
                    6          7          8          9         10
     6  C    0.000000
     7  C    3.086797   0.000000
     8  C    4.579414   1.525773   0.000000
     9  H    4.614723   5.090652   5.618978   0.000000
    10  H    5.381015   5.794036   6.211886   1.631156   0.000000
    11  H    4.324238   4.119121   4.507032   2.939383   2.367061
    12  H    3.200623   4.228829   5.106933   2.355330   2.341934
    13  H    4.077320   2.647553   2.695261   3.010244   3.597264
    14  H    2.807664   2.714420   3.523522   2.538660   3.663221
    15  H    2.148705   3.370220   4.548311   4.394424   4.485532
    16  H    2.143623   2.627878   3.914408   5.649829   5.975008
    17  H    1.093932   3.568210   4.944884   3.760414   4.677052
    18  H    1.094057   2.823261   4.317360   5.183253   6.138616
    19  H    1.095247   4.032362   5.541929   5.372219   6.011766
    20  H    2.931322   1.096764   2.157823   4.993873   5.976097
    21  H    3.216062   1.097546   2.115523   6.036195   6.660478
    22  H    5.059124   2.175308   1.095091   5.976636   6.290393
    23  H    5.194650   2.158633   1.095245   6.572834   7.263226
    24  H    4.962297   2.186891   1.093654   5.092307   5.759132
                   11         12         13         14         15
    11  H    0.000000
    12  H    1.770445   0.000000
    13  H    2.485818   3.055310   0.000000
    14  H    3.077718   2.534003   1.755754   0.000000
    15  H    2.859863   2.217671   3.726324   3.231784   0.000000
    16  H    4.126785   3.773775   4.198991   3.783676   1.729450
    17  H    4.091300   2.700667   3.862322   2.321167   2.517292
    18  H    5.067352   4.099370   4.298112   3.026753   3.073060
    19  H    5.006560   3.752318   5.104758   3.843150   2.461029
    20  H    4.668338   4.464394   2.911601   2.466905   3.847427
    21  H    4.822332   4.877304   3.689223   3.660932   3.526668
    22  H    4.336579   5.236391   3.019672   4.134772   4.567868
    23  H    5.599416   6.123360   3.702265   4.363482   5.419123
    24  H    4.368451   5.035463   2.180828   3.251139   4.958683
                   16         17         18         19         20
    16  H    0.000000
    17  H    3.069159   0.000000
    18  H    2.526520   1.776649   0.000000
    19  H    2.438309   1.763929   1.765062   0.000000
    20  H    3.187622   3.266323   2.386930   3.928774   0.000000
    21  H    2.262966   3.972900   2.853248   3.953278   1.761859
    22  H    3.979039   5.486541   4.964192   5.942326   3.075570
    23  H    4.524994   5.642484   4.730016   6.113257   2.513009
    24  H    4.645173   5.097556   4.745486   6.004975   2.496369
                   21         22         23         24
    21  H    0.000000
    22  H    2.510409   0.000000
    23  H    2.384627   1.769103   0.000000
    24  H    3.048016   1.776964   1.762799   0.000000
 Stoichiometry    C6H16N2
 Framework group  C1[X(C6H16N2)]
 Deg. of freedom    66
 Full point group                 C1      NOp   1
 Largest Abelian subgroup         C1      NOp   1
 Largest concise Abelian subgroup C1      NOp   1
                         Standard orientation:                         
 ---------------------------------------------------------------------
 Center     Atomic      Atomic             Coordinates (Angstroms)
 Number     Number       Type             X           Y           Z
 ---------------------------------------------------------------------
      1          7           0       -3.060079   -0.830667   -0.270598
      2          6           0       -1.932400   -0.223899    0.443345
      3          6           0       -0.588577   -0.516461   -0.260896
      4          7           0        0.602232   -0.005773    0.449061
      5          6           0        0.585747    1.448360    0.679615
      6          6           0        0.515273    2.331854   -0.562784
      7          6           0        1.851921   -0.427754   -0.207470
      8          6           0        2.144342   -1.914227   -0.026162
      9          1           0       -3.141936   -0.410480   -1.195315
     10          1           0       -3.923326   -0.606986    0.222954
     11          1           0       -1.907813   -0.621000    1.464120
     12          1           0       -2.114510    0.853391    0.506038
     13          1           0       -0.514557   -1.607141   -0.342993
     14          1           0       -0.620383   -0.131293   -1.288163
     15          1           0       -0.246368    1.703734    1.345697
     16          1           0        1.480441    1.725350    1.252628
     17          1           0       -0.411873    2.174485   -1.121642
     18          1           0        1.361121    2.156052   -1.234048
     19          1           0        0.543916    3.386100   -0.267300
     20          1           0        1.845996   -0.180733   -1.276037
     21          1           0        2.698402    0.110267    0.238185
     22          1           0        2.108775   -2.197512    1.031056
     23          1           0        3.148277   -2.143074   -0.399397
     24          1           0        1.440929   -2.543317   -0.578914
 ---------------------------------------------------------------------
 Rotational constants (GHZ):           2.2044228           1.3048979           0.9149905
 Standard basis: 6-31G(d,p) (6D, 7F)
 There are   200 symmetry adapted cartesian basis functions of A   symmetry.
 There are   200 symmetry adapted basis functions of A   symmetry.
   200 basis functions,   336 primitive gaussians,   200 cartesian basis functions
    33 alpha electrons       33 beta electrons
       nuclear repulsion energy       412.8381099567 Hartrees.
 NAtoms=   24 NActive=   24 NUniq=   24 SFac= 1.00D+00 NAtFMM=   60 NAOKFM=F Big=F
 Integral buffers will be    131072 words long.
 Raffenetti 2 integral format.
 Two-electron integral symmetry is turned on.
 Force inversion solution in PCM.
 ------------------------------------------------------------------------------
 Polarizable Continuum Model (PCM)
 =================================
 Model                : PCM.
 Atomic radii         : UFF (Universal Force Field).
 Polarization charges : Total charges.
 Charge compensation  : None.
 Solution method      : Matrix inversion.
 Cavity type          : Scaled VdW (van der Waals Surface) (Alpha=1.100).
 Cavity algorithm     : GePol (No added spheres)
                        Default sphere list used, NSphG=   24.
                        Lebedev-Laikov grids with approx.  5.0 points / Ang**2.
                        Smoothing algorithm: York/Karplus (Gamma=1.0000).
                        Polarization charges: spherical gaussians, with
                                              point-specific exponents (IZeta= 3).
                        Self-potential: point-specific (ISelfS= 7).
                        Self-field    : sphere-specific E.n sum rule (ISelfD= 2).
 1st derivatives      : Analytical E(r).r(x)/FMM algorithm (CHGder, D1EAlg=3).
                        Cavity 1st derivative terms included.
 2nd derivatives      : Analytical E(r).r(xy)/FMM algorithm (CHGder, D2EAlg=3).
                        Cavity 2nd derivative terms included.
 Solvent              : Water, Eps=  78.355300 Eps(inf)=   1.777849
 ------------------------------------------------------------------------------
 One-electron integrals computed using PRISM.
 NBasis=   200 RedAO= T EigKep=  3.58D-03  NBF=   200
 NBsUse=   200 1.00D-06 EigRej= -1.00D+00 NBFU=   200
 ExpMin= 1.61D-01 ExpMax= 4.17D+03 ExpMxC= 6.27D+02 IAcc=3 IRadAn=         5 AccDes= 0.00D+00
 Harris functional with IExCor=  402 and IRadAn=       5 diagonalized for initial guess.
 HarFok:  IExCor=  402 AccDes= 0.00D+00 IRadAn=         5 IDoV= 1 UseB2=F ITyADJ=14
 ICtDFT=  3500011 ScaDFX=  1.000000  1.000000  1.000000  1.000000
 FoFCou: FMM=F IPFlag=           0 FMFlag=      100000 FMFlg1=           0
         NFxFlg=           0 DoJE=T BraDBF=F KetDBF=T FulRan=T
         wScrn=  0.000000 ICntrl=       500 IOpCl=  0 I1Cent=   200000004 NGrid=           0
         NMat0=    1 NMatS0=      1 NMatT0=    0 NMatD0=    1 NMtDS0=    0 NMtDT0=    0
 Petite list used in FoFCou.
 Keep R1 ints in memory in canonical form, NReq=206134434.
 Requested convergence on RMS density matrix=1.00D-08 within  32 cycles.
 Requested convergence on MAX density matrix=1.00D-06.
 Requested convergence on             energy=1.00D-06.
 No special actions if energy rises.
 Inv3:  Mode=1 IEnd=     7863483.
 Iteration    1 A*A^-1 deviation from unit magnitude is 6.55D-15 for   1297.
 Iteration    1 A*A^-1 deviation from orthogonality  is 3.97D-15 for   1285     49.
 Iteration    1 A^-1*A deviation from unit magnitude is 6.11D-15 for   1297.
 Iteration    1 A^-1*A deviation from orthogonality  is 4.30D-13 for   1313   1285.
 Error on total polarization charges =  0.00937
 SCF Done:  E(RB3LYP) =  -347.781696033     A.U. after   11 cycles
            NFock= 11  Conv=0.39D-08     -V/T= 2.0099
 QCSCF skips out because SCF is already converged.
 DoSCS=F DFT=T ScalE2(SS,OS)=  1.000000  1.000000
 Range of M.O.s used for correlation:     1   200
 NBasis=   200 NAE=    33 NBE=    33 NFC=     0 NFV=     0
 NROrb=    200 NOA=    33 NOB=    33 NVA=   167 NVB=   167
 Symmetrizing basis deriv contribution to polar:
 IMax=3 JMax=2 DiffMx= 0.00D+00
 G2DrvN: will do    25 centers at a time, making    1 passes.
 Calling FoFCou, ICntrl=  3107 FMM=F I1Cent=   0 AccDes= 0.00D+00.
 NEqPCM:  Using equilibrium solvation (IEInf=0, Eps=  78.3553, EpsInf=   1.7778)
 G2PCM: DoFxE=T DoFxN=T DoGrad=T DoDP/DQ/DG/TGxP=FFFF NFrqRd=   0 IEInf=0 SqF1=F DoCFld=F IF1Alg=4.
 End of G2Drv F.D. properties file   721 does not exist.
 End of G2Drv F.D. properties file   722 does not exist.
 End of G2Drv F.D. properties file   788 does not exist.
          IDoAtm=111111111111111111111111
 NEqPCM:  Using equilibrium solvation (IEInf=0, Eps=  78.3553, EpsInf=   1.7778)
          Differentiating once with respect to nuclear coordinates.
 Keep R1 ints in memory in canonical form, NReq=209333428.
          There are    75 degrees of freedom in the 1st order CPHF.  IDoFFX=6 NUNeed=     0.
     69 vectors produced by pass  0 Test12= 7.35D-15 1.33D-09 XBig12= 8.00D-02 7.78D-02.
 AX will form    69 AO Fock derivatives at one time.
     69 vectors produced by pass  1 Test12= 7.35D-15 1.33D-09 XBig12= 4.67D-03 1.58D-02.
     69 vectors produced by pass  2 Test12= 7.35D-15 1.33D-09 XBig12= 6.98D-05 1.61D-03.
     69 vectors produced by pass  3 Test12= 7.35D-15 1.33D-09 XBig12= 2.32D-07 8.03D-05.
     69 vectors produced by pass  4 Test12= 7.35D-15 1.33D-09 XBig12= 1.62D-10 1.39D-06.
     24 vectors produced by pass  5 Test12= 7.35D-15 1.33D-09 XBig12= 9.04D-14 3.45D-08.
 InvSVY:  IOpt=1 It=  1 EMax= 7.77D-16
 Solved reduced A of dimension   369 with    75 vectors.
 End of Minotr F.D. properties file   721 does not exist.
 End of Minotr F.D. properties file   722 does not exist.
 End of Minotr F.D. properties file   788 does not exist.

 **********************************************************************

            Population analysis using the SCF density.

 **********************************************************************

 Orbital symmetries:
       Occupied  (A) (A) (A) (A) (A) (A) (A) (A) (A) (A) (A) (A)
                 (A) (A) (A) (A) (A) (A) (A) (A) (A) (A) (A) (A)
                 (A) (A) (A) (A) (A) (A) (A) (A) (A)
       Virtual   (A) (A) (A) (A) (A) (A) (A) (A) (A) (A) (A) (A)
                 (A) (A) (A) (A) (A) (A) (A) (A) (A) (A) (A) (A)
                 (A) (A) (A) (A) (A) (A) (A) (A) (A) (A) (A) (A)
                 (A) (A) (A) (A) (A) (A) (A) (A) (A) (A) (A) (A)
                 (A) (A) (A) (A) (A) (A) (A) (A) (A) (A) (A) (A)
                 (A) (A) (A) (A) (A) (A) (A) (A) (A) (A) (A) (A)
                 (A) (A) (A) (A) (A) (A) (A) (A) (A) (A) (A) (A)
                 (A) (A) (A) (A) (A) (A) (A) (A) (A) (A) (A) (A)
                 (A) (A) (A) (A) (A) (A) (A) (A) (A) (A) (A) (A)
                 (A) (A) (A) (A) (A) (A) (A) (A) (A) (A) (A) (A)
                 (A) (A) (A) (A) (A) (A) (A) (A) (A) (A) (A) (A)
                 (A) (A) (A) (A) (A) (A) (A) (A) (A) (A) (A) (A)
                 (A) (A) (A) (A) (A) (A) (A) (A) (A) (A) (A) (A)
                 (A) (A) (A) (A) (A) (A) (A) (A) (A) (A) (A)
 The electronic state is 1-A.
 Alpha  occ. eigenvalues --  -14.31854 -14.30861 -10.20267 -10.20115 -10.20105
 Alpha  occ. eigenvalues --  -10.20032 -10.16982 -10.16807  -0.91061  -0.87203
 Alpha  occ. eigenvalues --   -0.75484  -0.73565  -0.68919  -0.62313  -0.60692
 Alpha  occ. eigenvalues --   -0.55248  -0.48775  -0.48031  -0.45562  -0.44869
 Alpha  occ. eigenvalues --   -0.43391  -0.42260  -0.39682  -0.39069  -0.37450
 Alpha  occ. eigenvalues --   -0.36403  -0.35678  -0.35254  -0.33507  -0.32927
 Alpha  occ. eigenvalues --   -0.32095  -0.23232  -0.20563
 Alpha virt. eigenvalues --    0.07926   0.09233   0.11212   0.12479   0.13152
 Alpha virt. eigenvalues --    0.14653   0.15334   0.16120   0.16409   0.17151
 Alpha virt. eigenvalues --    0.18127   0.18895   0.19665   0.20398   0.20989
 Alpha virt. eigenvalues --    0.22794   0.23154   0.24355   0.25374   0.26556
 Alpha virt. eigenvalues --    0.28167   0.28490   0.29308   0.49699   0.51555
 Alpha virt. eigenvalues --    0.51695   0.53722   0.54450   0.54731   0.57665
 Alpha virt. eigenvalues --    0.59122   0.60868   0.62214   0.65314   0.66021
 Alpha virt. eigenvalues --    0.67642   0.69279   0.70436   0.72224   0.75918
 Alpha virt. eigenvalues --    0.78144   0.79935   0.82412   0.83597   0.84029
 Alpha virt. eigenvalues --    0.85907   0.86563   0.87710   0.88015   0.89381
 Alpha virt. eigenvalues --    0.89804   0.90463   0.91542   0.93819   0.94834
 Alpha virt. eigenvalues --    0.95712   0.96927   0.97677   0.99434   1.00863
 Alpha virt. eigenvalues --    1.02434   1.05172   1.06846   1.11183   1.21390
 Alpha virt. eigenvalues --    1.26972   1.28371   1.30431   1.32263   1.36160
 Alpha virt. eigenvalues --    1.41128   1.48594   1.52279   1.53437   1.56933
 Alpha virt. eigenvalues --    1.60346   1.65801   1.68164   1.69543   1.70731
 Alpha virt. eigenvalues --    1.76587   1.80239   1.81223   1.81887   1.86458
 Alpha virt. eigenvalues --    1.88246   1.89072   1.90808   1.94357   1.95618
 Alpha virt. eigenvalues --    1.98429   2.03207   2.03998   2.05642   2.06322
 Alpha virt. eigenvalues --    2.07600   2.08807   2.09242   2.09964   2.11841
 Alpha virt. eigenvalues --    2.12881   2.13218   2.16899   2.20522   2.21074
 Alpha virt. eigenvalues --    2.23711   2.26634   2.27239   2.28021   2.29496
 Alpha virt. eigenvalues --    2.32541   2.33859   2.37240   2.38411   2.39557
 Alpha virt. eigenvalues --    2.42677   2.46093   2.49746   2.52115   2.55108
 Alpha virt. eigenvalues --    2.56115   2.59856   2.63826   2.65804   2.68656
 Alpha virt. eigenvalues --    2.69438   2.72031   2.73119   2.74245   2.79334
 Alpha virt. eigenvalues --    2.80749   2.80875   2.82833   2.85945   2.86758
 Alpha virt. eigenvalues --    2.89537   2.90614   2.91781   2.93498   2.95221
 Alpha virt. eigenvalues --    2.97787   2.99965   3.01212   3.19807   3.21409
 Alpha virt. eigenvalues --    3.24930   3.29781   3.30983   3.33539   3.34968
 Alpha virt. eigenvalues --    3.39334   3.40191   3.43407   3.47518   3.48175
 Alpha virt. eigenvalues --    3.51886   3.55749   3.55837   3.58759   3.96594
 Alpha virt. eigenvalues --    4.13263   4.38737   4.39383   4.41761   4.61371
 Alpha virt. eigenvalues --    4.63765   4.69377
          Condensed to atoms (all electrons):
               1          2          3          4          5          6
     1  N    6.812568   0.283385  -0.046584   0.002067   0.000059   0.000040
     2  C    0.283385   4.840269   0.366776  -0.039071  -0.003569  -0.002294
     3  C   -0.046584   0.366776   4.858126   0.289807  -0.048168  -0.006908
     4  N    0.002067  -0.039071   0.289807   6.911581   0.336034  -0.061568
     5  C    0.000059  -0.003569  -0.048168   0.336034   4.788394   0.340284
     6  C    0.000040  -0.002294  -0.006908  -0.061568   0.340284   5.023782
     7  C   -0.000081   0.004557  -0.040415   0.310098  -0.047950  -0.007782
     8  C   -0.000002   0.000086  -0.003488  -0.059736   0.004385  -0.000007
     9  H    0.341775  -0.038891  -0.005358  -0.000065  -0.000031   0.000029
    10  H    0.341615  -0.032399   0.005057  -0.000113   0.000007  -0.000001
    11  H   -0.037767   0.375046  -0.030657   0.004947  -0.000866   0.000332
    12  H   -0.052681   0.391707  -0.046406  -0.001433   0.001498  -0.000373
    13  H    0.006790  -0.033272   0.376219  -0.037919   0.005647  -0.000285
    14  H    0.000070  -0.050809   0.361020  -0.050709  -0.008839   0.008909
    15  H   -0.000101   0.003741  -0.006644  -0.040074   0.391243  -0.054553
    16  H   -0.000003   0.000102   0.005826  -0.039044   0.390367  -0.052271
    17  H   -0.000100   0.000332   0.002407  -0.003884  -0.034052   0.387824
    18  H    0.000001   0.000099  -0.000694  -0.003678  -0.034319   0.387690
    19  H   -0.000000  -0.000000   0.000162   0.004266  -0.022301   0.367085
    20  H    0.000008  -0.000150  -0.012023  -0.049377  -0.003743   0.005799
    21  H    0.000001  -0.000178   0.005135  -0.038300  -0.004412  -0.002101
    22  H    0.000001  -0.000088  -0.000480   0.004922   0.000136   0.000030
    23  H   -0.000000  -0.000002   0.000042   0.004048  -0.000144   0.000017
    24  H   -0.000003  -0.000136   0.000333  -0.002963   0.000019  -0.000020
               7          8          9         10         11         12
     1  N   -0.000081  -0.000002   0.341775   0.341615  -0.037767  -0.052681
     2  C    0.004557   0.000086  -0.038891  -0.032399   0.375046   0.391707
     3  C   -0.040415  -0.003488  -0.005358   0.005057  -0.030657  -0.046406
     4  N    0.310098  -0.059736  -0.000065  -0.000113   0.004947  -0.001433
     5  C   -0.047950   0.004385  -0.000031   0.000007  -0.000866   0.001498
     6  C   -0.007782  -0.000007   0.000029  -0.000001   0.000332  -0.000373
     7  C    4.781239   0.375428  -0.000005   0.000002  -0.000051  -0.000086
     8  C    0.375428   4.968578   0.000000   0.000000  -0.000034  -0.000008
     9  H   -0.000005   0.000000   0.477820  -0.032157   0.006551  -0.005402
    10  H    0.000002   0.000000  -0.032157   0.470222  -0.004134  -0.003284
    11  H   -0.000051  -0.000034   0.006551  -0.004134   0.630717  -0.047880
    12  H   -0.000086  -0.000008  -0.005402  -0.003284  -0.047880   0.667169
    13  H   -0.003745   0.002128  -0.000898  -0.000152  -0.008850   0.006885
    14  H   -0.008942  -0.000974   0.005523  -0.000113   0.006906  -0.007965
    15  H    0.005809  -0.000201  -0.000007  -0.000001  -0.000304   0.002425
    16  H   -0.007507   0.000254  -0.000000  -0.000000  -0.000096   0.000077
    17  H   -0.000439  -0.000014   0.000002  -0.000003  -0.000033   0.001610
    18  H    0.003848  -0.000114  -0.000001   0.000000  -0.000003  -0.000019
    19  H    0.000097   0.000001  -0.000000   0.000000  -0.000004  -0.000041
    20  H    0.364189  -0.051752   0.000002   0.000000   0.000043  -0.000009
    21  H    0.390424  -0.037958  -0.000000  -0.000000  -0.000001   0.000005
    22  H   -0.033924   0.375324   0.000000  -0.000000   0.000040   0.000001
    23  H   -0.027799   0.370224   0.000000   0.000000   0.000000   0.000000
    24  H   -0.031713   0.386380   0.000001  -0.000000   0.000020  -0.000002
              13         14         15         16         17         18
     1  N    0.006790   0.000070  -0.000101  -0.000003  -0.000100   0.000001
     2  C   -0.033272  -0.050809   0.003741   0.000102   0.000332   0.000099
     3  C    0.376219   0.361020  -0.006644   0.005826   0.002407  -0.000694
     4  N   -0.037919  -0.050709  -0.040074  -0.039044  -0.003884  -0.003678
     5  C    0.005647  -0.008839   0.391243   0.390367  -0.034052  -0.034319
     6  C   -0.000285   0.008909  -0.054553  -0.052271   0.387824   0.387690
     7  C   -0.003745  -0.008942   0.005809  -0.007507  -0.000439   0.003848
     8  C    0.002128  -0.000974  -0.000201   0.000254  -0.000014  -0.000114
     9  H   -0.000898   0.005523  -0.000007  -0.000000   0.000002  -0.000001
    10  H   -0.000152  -0.000113  -0.000001  -0.000000  -0.000003   0.000000
    11  H   -0.008850   0.006906  -0.000304  -0.000096  -0.000033  -0.000003
    12  H    0.006885  -0.007965   0.002425   0.000077   0.001610  -0.000019
    13  H    0.633635  -0.051167   0.000110  -0.000141  -0.000028  -0.000019
    14  H   -0.051167   0.703720  -0.000931  -0.000315   0.000705   0.000168
    15  H    0.000110  -0.000931   0.635563  -0.034937  -0.005727   0.005377
    16  H   -0.000141  -0.000315  -0.034937   0.635038   0.005413  -0.004922
    17  H   -0.000028   0.000705  -0.005727   0.005413   0.597972  -0.032894
    18  H   -0.000019   0.000168   0.005377  -0.004922  -0.032894   0.597157
    19  H    0.000002  -0.000338  -0.000853  -0.001971  -0.030232  -0.029863
    20  H   -0.001929   0.015333  -0.000437  -0.000840   0.000266   0.000578
    21  H    0.000174  -0.000232   0.000368   0.006482   0.000063   0.000839
    22  H   -0.000051   0.000214  -0.000036  -0.000033   0.000000  -0.000001
    23  H   -0.000225   0.000049   0.000003  -0.000031  -0.000000   0.000007
    24  H    0.002780   0.000231   0.000009  -0.000001  -0.000000   0.000009
              19         20         21         22         23         24
     1  N   -0.000000   0.000008   0.000001   0.000001  -0.000000  -0.000003
     2  C   -0.000000  -0.000150  -0.000178  -0.000088  -0.000002  -0.000136
     3  C    0.000162  -0.012023   0.005135  -0.000480   0.000042   0.000333
     4  N    0.004266  -0.049377  -0.038300   0.004922   0.004048  -0.002963
     5  C   -0.022301  -0.003743  -0.004412   0.000136  -0.000144   0.000019
     6  C    0.367085   0.005799  -0.002101   0.000030   0.000017  -0.000020
     7  C    0.000097   0.364189   0.390424  -0.033924  -0.027799  -0.031713
     8  C    0.000001  -0.051752  -0.037958   0.375324   0.370224   0.386380
     9  H   -0.000000   0.000002  -0.000000   0.000000   0.000000   0.000001
    10  H    0.000000   0.000000  -0.000000  -0.000000   0.000000  -0.000000
    11  H   -0.000004   0.000043  -0.000001   0.000040   0.000000   0.000020
    12  H   -0.000041  -0.000009   0.000005   0.000001   0.000000  -0.000002
    13  H    0.000002  -0.001929   0.000174  -0.000051  -0.000225   0.002780
    14  H   -0.000338   0.015333  -0.000232   0.000214   0.000049   0.000231
    15  H   -0.000853  -0.000437   0.000368  -0.000036   0.000003   0.000009
    16  H   -0.001971  -0.000840   0.006482  -0.000033  -0.000031  -0.000001
    17  H   -0.030232   0.000266   0.000063   0.000000  -0.000000  -0.000000
    18  H   -0.029863   0.000578   0.000839  -0.000001   0.000007   0.000009
    19  H    0.610530  -0.000231  -0.000012  -0.000000  -0.000000   0.000000
    20  H   -0.000231   0.695940  -0.045606   0.006564   0.001950  -0.006534
    21  H   -0.000012  -0.045606   0.629679  -0.005154  -0.005062   0.005411
    22  H   -0.000000   0.006564  -0.005154   0.606708  -0.027909  -0.033045
    23  H   -0.000000   0.001950  -0.005062  -0.027909   0.611052  -0.029981
    24  H    0.000000  -0.006534   0.005411  -0.033045  -0.029981   0.599467
 Mulliken charges:
               1
     1  N   -0.651058
     2  C   -0.065242
     3  C   -0.023086
     4  N   -0.439837
     5  C   -0.049677
     6  C   -0.333658
     7  C   -0.025251
     8  C   -0.328501
     9  H    0.251112
    10  H    0.255455
    11  H    0.106079
    12  H    0.094212
    13  H    0.104311
    14  H    0.078486
    15  H    0.100158
    16  H    0.098554
    17  H    0.110814
    18  H    0.110755
    19  H    0.103703
    20  H    0.081959
    21  H    0.100433
    22  H    0.106780
    23  H    0.103761
    24  H    0.109738
 Sum of Mulliken charges =  -0.00000
 Mulliken charges with hydrogens summed into heavy atoms:
               1
     1  N   -0.144491
     2  C    0.135049
     3  C    0.159712
     4  N   -0.439837
     5  C    0.149035
     6  C   -0.008387
     7  C    0.157140
     8  C   -0.008221
 APT charges:
               1
     1  N   -1.402996
     2  C   -0.506996
     3  C   -0.511662
     4  N   -0.341197
     5  C   -0.740051
     6  C   -1.128493
     7  C   -0.668204
     8  C   -1.174913
     9  H    0.449594
    10  H    0.803125
    11  H    0.364183
    12  H    0.333057
    13  H    0.354447
    14  H    0.246876
    15  H    0.348942
    16  H    0.463963
    17  H    0.236620
    18  H    0.352855
    19  H    0.567591
    20  H    0.261211
    21  H    0.470049
    22  H    0.352832
    23  H    0.605743
    24  H    0.263423
 Sum of APT charges =  -0.00000
 APT charges with hydrogens summed into heavy atoms:
               1
     1  N   -0.150277
     2  C    0.190244
     3  C    0.089661
     4  N   -0.341197
     5  C    0.072854
     6  C    0.028573
     7  C    0.063056
     8  C    0.047085
 Electronic spatial extent (au):  <R**2>=           1385.4077
 Charge=             -0.0000 electrons
 Dipole moment (field-independent basis, Debye):
    X=             -0.3253    Y=              2.0972    Z=             -0.7486  Tot=              2.2504
 Quadrupole moment (field-independent basis, Debye-Ang):
   XX=            -46.9478   YY=            -55.4842   ZZ=            -52.8743
   XY=             -4.3297   XZ=             -0.5999   YZ=              0.3541
 Traceless Quadrupole moment (field-independent basis, Debye-Ang):
   XX=              4.8209   YY=             -3.7154   ZZ=             -1.1055
   XY=             -4.3297   XZ=             -0.5999   YZ=              0.3541
 Octapole moment (field-independent basis, Debye-Ang**2):
  XXX=            -25.3332  YYY=              6.8845  ZZZ=             -1.9495  XYY=              8.5432
  XXY=             12.9431  XXZ=              1.1204  XZZ=             -7.3811  YZZ=             -0.1206
  YYZ=              3.1219  XYZ=              3.5696
 Hexadecapole moment (field-independent basis, Debye-Ang**3):
 XXXX=           -891.5030 YYYY=           -659.9841 ZZZZ=           -163.6100 XXXY=            -31.0379
 XXXZ=             -3.0246 YYYX=            -10.2916 YYYZ=              5.2691 ZZZX=              7.1886
 ZZZY=              0.5787 XXYY=           -313.5972 XXZZ=           -184.9629 YYZZ=           -137.0871
 XXYZ=             -6.4710 YYXZ=             -2.6389 ZZXY=              2.7153
 N-N= 4.128381099567D+02 E-N=-1.631477018885D+03  KE= 3.443622601381D+02
  Exact polarizability:   0.000   0.000   0.000   0.000   0.000   0.000
 Approx polarizability: 111.282   0.661 103.552   0.455   2.256 103.822
 D2PCM: PCM CHGder 2nd derivatives, FixD1E=F FixD2E=F DoIter=F DoCFld=F I1PDM=0
 Calling FoFJK, ICntrl=    100147 FMM=F ISym2X=0 I1Cent= 0 IOpClX= 0 NMat=1 NMatS=1 NMatT=0.
 ***** Axes restored to original set *****
 -------------------------------------------------------------------
 Center     Atomic                   Forces (Hartrees/Bohr)
 Number     Number              X              Y              Z
 -------------------------------------------------------------------
      1        7           0.003608816   -0.010995041    0.006383031
      2        6          -0.004006223    0.007386878    0.001334079
      3        6           0.004056620   -0.001299233   -0.006009373
      4        7           0.000827401   -0.000583613   -0.004224929
      5        6           0.001394827    0.001429586   -0.004384095
      6        6          -0.001994196    0.005355200    0.001094942
      7        6           0.003445486   -0.004707051   -0.004474001
      8        6           0.000296881   -0.003416631    0.003120431
      9        1           0.000641863    0.000969570   -0.001760894
     10        1          -0.002119412    0.000043886    0.001549493
     11        1          -0.001125447   -0.000443925    0.000009046
     12        1          -0.007755349    0.001051248   -0.007095876
     13        1          -0.002317408    0.000563706   -0.000820399
     14        1           0.001338721    0.003399096    0.005152805
     15        1           0.002394543   -0.001408659    0.001975154
     16        1           0.000012925   -0.004465111    0.002142613
     17        1          -0.000517080    0.000244914    0.001127855
     18        1           0.000286178    0.000329467    0.000912052
     19        1          -0.000103894    0.000440217    0.000287163
     20        1          -0.002476507    0.000727676    0.004672812
     21        1           0.002861787    0.005450801   -0.001380016
     22        1           0.000503887    0.001212071    0.000125573
     23        1           0.000152216    0.000023695    0.000741457
     24        1           0.000593365   -0.001308748   -0.000478924
 -------------------------------------------------------------------
 Cartesian Forces:  Max     0.010995041 RMS     0.003195982
 FormGI is forming the generalized inverse of G from B-inverse, IUseBI=4.

 GradGradGradGradGradGradGradGradGradGradGradGradGradGradGradGradGradGrad
 Berny optimization.
 Internal  Forces:  Max     0.011117981 RMS     0.002837322
 Search for a local minimum.
 Step number   1 out of a maximum of  126
 All quantities printed in internal units (Hartrees-Bohrs-Radians)
 Mixed Optimization -- RFO/linear search
 Second derivative matrix not updated -- analytic derivatives used.
 ITU=  0
     Eigenvalues ---    0.00127   0.00165   0.00214   0.00245   0.00339
     Eigenvalues ---    0.00500   0.00704   0.02207   0.03246   0.04211
     Eigenvalues ---    0.04422   0.04441   0.04475   0.04504   0.04526
     Eigenvalues ---    0.04627   0.04632   0.04680   0.04863   0.05132
     Eigenvalues ---    0.05313   0.08086   0.08448   0.08595   0.08910
     Eigenvalues ---    0.11159   0.11509   0.11883   0.12298   0.12327
     Eigenvalues ---    0.13674   0.13926   0.13936   0.14795   0.16097
     Eigenvalues ---    0.16238   0.16651   0.18483   0.19301   0.21812
     Eigenvalues ---    0.23654   0.24956   0.25222   0.26821   0.28251
     Eigenvalues ---    0.29249   0.31314   0.31987   0.32382   0.32518
     Eigenvalues ---    0.32999   0.33096   0.33262   0.33630   0.33700
     Eigenvalues ---    0.33765   0.33849   0.33927   0.34640   0.34694
     Eigenvalues ---    0.35578   0.36791   0.37044   0.37186   0.44024
     Eigenvalues ---    0.44297
 RFO step:  Lambda=-5.05691027D-03 EMin= 1.27161263D-03
 Linear search not attempted -- first point.
 Iteration  1 RMS(Cart)=  0.05879043 RMS(Int)=  0.00114483
 Iteration  2 RMS(Cart)=  0.00185368 RMS(Int)=  0.00017384
 Iteration  3 RMS(Cart)=  0.00000189 RMS(Int)=  0.00017383
 Iteration  4 RMS(Cart)=  0.00000000 RMS(Int)=  0.00017383
 Variable       Old X    -DE/DX   Delta X   Delta X   Delta X     New X
                                 (Linear)    (Quad)   (Total)
    R1        2.77059   0.00541   0.00000   0.01045   0.01045   2.78104
    R2        1.92563  -0.00098   0.00000   0.00046   0.00046   1.92609
    R3        1.92606  -0.00233   0.00000  -0.00230  -0.00230   1.92376
    R4        2.91986  -0.00972   0.00000  -0.02859  -0.02859   2.89128
    R5        2.07033  -0.00009   0.00000   0.00120   0.00120   2.07153
    R6        2.06806   0.00444   0.00000   0.01206   0.01206   2.08012
    R7        2.79198  -0.00670   0.00000  -0.02155  -0.02155   2.77043
    R8        2.07165  -0.00142   0.00000  -0.00449  -0.00449   2.06716
    R9        2.07409   0.00559   0.00000   0.01910   0.01910   2.09319
   R10        2.78241  -0.00003   0.00000  -0.00055  -0.00055   2.78186
   R11        2.78427  -0.00205   0.00000  -0.00649  -0.00649   2.77778
   R12        2.88397   0.00737   0.00000   0.02187   0.02187   2.90585
   R13        2.07121   0.00004   0.00000  -0.00169  -0.00169   2.06952
   R14        2.07487  -0.00054   0.00000  -0.00252  -0.00252   2.07235
   R15        2.06723   0.00038   0.00000   0.00140   0.00140   2.06863
   R16        2.06747   0.00019   0.00000   0.00101   0.00101   2.06848
   R17        2.06972   0.00025   0.00000  -0.00014  -0.00014   2.06958
   R18        2.88329   0.00407   0.00000   0.00956   0.00956   2.89285
   R19        2.07258   0.00504   0.00000   0.01662   0.01662   2.08920
   R20        2.07406  -0.00117   0.00000  -0.00312  -0.00312   2.07094
   R21        2.06942  -0.00045   0.00000  -0.00099  -0.00099   2.06843
   R22        2.06971   0.00008   0.00000  -0.00051  -0.00051   2.06920
   R23        2.06671   0.00032   0.00000   0.00056   0.00056   2.06727
    A1        1.91032  -0.00094   0.00000  -0.01312  -0.01321   1.89711
    A2        1.90161  -0.00009   0.00000  -0.00189  -0.00198   1.89963
    A3        1.85553  -0.00073   0.00000  -0.02228  -0.02248   1.83305
    A4        1.94834  -0.01084   0.00000  -0.03976  -0.04000   1.90834
    A5        1.89755   0.00201   0.00000  -0.00535  -0.00649   1.89106
    A6        1.88315   0.01112   0.00000   0.08119   0.08129   1.96444
    A7        1.91401   0.00183   0.00000  -0.01513  -0.01585   1.89816
    A8        1.93609  -0.00148   0.00000  -0.00469  -0.00423   1.93186
    A9        1.88301  -0.00222   0.00000  -0.01442  -0.01487   1.86814
   A10        2.00041  -0.00428   0.00000  -0.00906  -0.00909   1.99132
   A11        1.85588   0.00278   0.00000   0.00810   0.00799   1.86387
   A12        1.91234  -0.00091   0.00000  -0.00833  -0.00833   1.90401
   A13        1.90229  -0.00115   0.00000  -0.01583  -0.01581   1.88648
   A14        1.93030   0.00429   0.00000   0.02846   0.02851   1.95881
   A15        1.85564  -0.00058   0.00000  -0.00417  -0.00408   1.85156
   A16        1.99061  -0.00038   0.00000   0.00552   0.00537   1.99598
   A17        1.95035  -0.00188   0.00000   0.00235   0.00218   1.95253
   A18        1.94134   0.00279   0.00000   0.01547   0.01539   1.95673
   A19        2.03172   0.00657   0.00000   0.01655   0.01665   2.04837
   A20        1.91109  -0.00336   0.00000  -0.02066  -0.02071   1.89038
   A21        1.89836  -0.00512   0.00000  -0.03350  -0.03353   1.86483
   A22        1.90159  -0.00119   0.00000   0.00141   0.00145   1.90304
   A23        1.89277   0.00033   0.00000   0.00808   0.00815   1.90092
   A24        1.81595   0.00239   0.00000   0.03019   0.02987   1.84582
   A25        1.95169   0.00106   0.00000   0.00339   0.00338   1.95507
   A26        1.95062   0.00058   0.00000   0.00044   0.00044   1.95106
   A27        1.91389   0.00048   0.00000   0.00151   0.00150   1.91539
   A28        1.89515  -0.00128   0.00000  -0.01066  -0.01066   1.88448
   A29        1.87388  -0.00057   0.00000   0.00193   0.00192   1.87579
   A30        1.87547  -0.00037   0.00000   0.00342   0.00342   1.87889
   A31        1.96995   0.00195   0.00000   0.01040   0.01039   1.98034
   A32        1.94449   0.00143   0.00000   0.01176   0.01172   1.95621
   A33        1.91010  -0.00537   0.00000  -0.03915  -0.03924   1.87086
   A34        1.91371  -0.00233   0.00000  -0.00857  -0.00862   1.90510
   A35        1.85617   0.00445   0.00000   0.03345   0.03361   1.88978
   A36        1.86436  -0.00015   0.00000  -0.00838  -0.00842   1.85594
   A37        1.93962  -0.00185   0.00000  -0.01039  -0.01038   1.92924
   A38        1.91638   0.00020   0.00000   0.00120   0.00119   1.91757
   A39        1.95743   0.00204   0.00000   0.00712   0.00711   1.96455
   A40        1.88043   0.00094   0.00000   0.00975   0.00976   1.89019
   A41        1.89468  -0.00055   0.00000  -0.00678  -0.00678   1.88790
   A42        1.87248  -0.00077   0.00000  -0.00043  -0.00045   1.87204
    D1       -1.11167  -0.00159   0.00000  -0.05760  -0.05724  -1.16890
    D2        3.05781   0.00166   0.00000  -0.00988  -0.00980   3.04801
    D3        1.01996  -0.00281   0.00000  -0.03402  -0.03430   0.98566
    D4       -3.13394  -0.00015   0.00000  -0.02264  -0.02238   3.12687
    D5        1.03554   0.00311   0.00000   0.02508   0.02505   1.06059
    D6       -1.00231  -0.00137   0.00000   0.00095   0.00055  -1.00175
    D7       -3.07872   0.00453   0.00000   0.07567   0.07545  -3.00327
    D8       -0.97586   0.00244   0.00000   0.05593   0.05570  -0.92016
    D9        1.02282   0.00278   0.00000   0.05128   0.05106   1.07388
   D10       -0.97462   0.00126   0.00000   0.03298   0.03319  -0.94143
   D11        1.12825  -0.00084   0.00000   0.01324   0.01343   1.14168
   D12        3.12693  -0.00050   0.00000   0.00859   0.00879   3.13572
   D13        1.10358  -0.00125   0.00000   0.00259   0.00262   1.10620
   D14       -3.07675  -0.00335   0.00000  -0.01715  -0.01713  -3.09388
   D15       -1.07806  -0.00301   0.00000  -0.02180  -0.02177  -1.09983
   D16       -1.01521   0.00092   0.00000  -0.03907  -0.03904  -1.05425
   D17        3.04742  -0.00098   0.00000  -0.06710  -0.06703   2.98040
   D18       -3.09221   0.00096   0.00000  -0.03222  -0.03233  -3.12454
   D19        0.97043  -0.00094   0.00000  -0.06025  -0.06032   0.91011
   D20        1.15695  -0.00011   0.00000  -0.03409  -0.03407   1.12288
   D21       -1.06360  -0.00201   0.00000  -0.06211  -0.06206  -1.12566
   D22       -1.04627   0.00029   0.00000  -0.02164  -0.02169  -1.06796
   D23        1.11955   0.00088   0.00000  -0.02443  -0.02461   1.09494
   D24        3.09342  -0.00076   0.00000  -0.01725  -0.01715   3.07627
   D25        1.17892  -0.00021   0.00000  -0.00049  -0.00046   1.17846
   D26       -2.93844   0.00038   0.00000  -0.00329  -0.00338  -2.94182
   D27       -0.96457  -0.00127   0.00000   0.00389   0.00408  -0.96049
   D28       -1.25085   0.00115   0.00000  -0.00801  -0.00812  -1.25897
   D29        0.91116   0.00065   0.00000  -0.00242  -0.00239   0.90877
   D30        2.96899  -0.00206   0.00000  -0.03030  -0.03015   2.93884
   D31        2.78547   0.00090   0.00000  -0.03013  -0.03029   2.75518
   D32       -1.33571   0.00040   0.00000  -0.02454  -0.02456  -1.36027
   D33        0.72212  -0.00231   0.00000  -0.05243  -0.05232   0.66980
   D34        1.09895   0.00015   0.00000  -0.00457  -0.00457   1.09438
   D35       -1.02986   0.00063   0.00000   0.00650   0.00650  -1.02336
   D36       -3.10771   0.00042   0.00000   0.00096   0.00096  -3.10675
   D37       -1.07174   0.00071   0.00000   0.00960   0.00962  -1.06212
   D38        3.08263   0.00119   0.00000   0.02067   0.02069   3.10332
   D39        1.00479   0.00097   0.00000   0.01513   0.01516   1.01994
   D40       -3.03783  -0.00165   0.00000  -0.03061  -0.03064  -3.06847
   D41        1.11655  -0.00118   0.00000  -0.01955  -0.01957   1.09697
   D42       -0.96130  -0.00139   0.00000  -0.02509  -0.02511  -0.98641
   D43       -0.91546   0.00146   0.00000   0.00014   0.00008  -0.91539
   D44       -2.99418   0.00133   0.00000  -0.00622  -0.00628  -3.00046
   D45        1.20892   0.00087   0.00000  -0.01104  -0.01111   1.19782
   D46       -3.09433  -0.00006   0.00000  -0.01628  -0.01628  -3.11060
   D47        1.11014  -0.00019   0.00000  -0.02264  -0.02263   1.08751
   D48       -0.96994  -0.00065   0.00000  -0.02745  -0.02746  -0.99740
   D49        1.17916  -0.00110   0.00000  -0.02006  -0.02000   1.15916
   D50       -0.89956  -0.00123   0.00000  -0.02642  -0.02635  -0.92592
   D51       -2.97964  -0.00169   0.00000  -0.03124  -0.03118  -3.01082
         Item               Value     Threshold  Converged?
 Maximum Force            0.011118     0.000450     NO 
 RMS     Force            0.002837     0.000300     NO 
 Maximum Displacement     0.284671     0.001800     NO 
 RMS     Displacement     0.059225     0.001200     NO 
 Predicted change in Energy=-2.700924D-03
 GradGradGradGradGradGradGradGradGradGradGradGradGradGradGradGradGradGrad

                          Input orientation:                          
 ---------------------------------------------------------------------
 Center     Atomic      Atomic             Coordinates (Angstroms)
 Number     Number       Type             X           Y           Z
 ---------------------------------------------------------------------
      1          7           0        3.149654    0.358476    0.710705
      2          6           0        2.023748    0.427023   -0.234508
      3          6           0        0.778062   -0.177336    0.416577
      4          7           0       -0.359455   -0.330476   -0.495511
      5          6           0       -0.840403    0.930516   -1.083434
      6          6           0       -1.362947    2.006723   -0.117375
      7          6           0       -1.448408   -1.108069    0.112966
      8          6           0       -1.131648   -2.599847    0.246024
      9          1           0        2.954919    0.977989    1.496283
     10          1           0        3.977258    0.749444    0.265106
     11          1           0        2.280626   -0.164831   -1.120729
     12          1           0        1.823508    1.453151   -0.578927
     13          1           0        1.060360   -1.170748    0.777187
     14          1           0        0.517010    0.413169    1.316625
     15          1           0       -0.034622    1.356422   -1.690609
     16          1           0       -1.638144    0.668419   -1.788797
     17          1           0       -0.582742    2.359861    0.564450
     18          1           0       -2.198464    1.639227    0.486768
     19          1           0       -1.719526    2.872340   -0.685676
     20          1           0       -1.741270   -0.709814    1.101847
     21          1           0       -2.325400   -0.999425   -0.535162
     22          1           0       -0.808172   -3.010961   -0.715446
     23          1           0       -2.026058   -3.142870    0.568705
     24          1           0       -0.347885   -2.798383    0.982931
 ---------------------------------------------------------------------
                    Distance matrix (angstroms):
                    1          2          3          4          5
     1  N    0.000000
     2  C    1.471662   0.000000
     3  C    2.449092   1.529998   0.000000
     4  N    3.774051   2.514277   1.466050   0.000000
     5  C    4.412111   3.029446   2.469170   1.472096   0.000000
     6  C    4.875039   3.738834   3.104696   2.571475   1.537707
     7  C    4.863149   3.812232   2.432204   1.469937   2.440670
     8  C    5.224667   4.398792   3.089440   2.509223   3.783615
     9  H    1.019240   2.041147   2.690585   4.082206   4.589299
    10  H    1.018009   2.042001   3.334174   4.533415   5.006117
    11  H    2.093612   1.096205   2.149689   2.718155   3.307870
    12  H    2.149448   1.100754   2.177721   2.820215   2.761177
    13  H    2.589999   2.122384   1.093892   2.083673   3.389708
    14  H    2.702026   2.162514   1.107669   2.145936   2.805442
    15  H    4.111182   2.687173   2.730036   2.092701   1.095144
    16  H    5.409860   3.985417   3.378910   2.074952   1.096642
    17  H    4.237654   3.341854   2.882884   2.900222   2.196574
    18  H    5.503893   4.451602   3.487770   2.868198   2.193658
    19  H    5.654936   4.493910   4.093095   3.484822   2.168351
    20  H    5.021491   4.153746   2.664613   2.145894   2.877099
    21  H    5.776875   4.586963   3.348599   2.077017   2.496095
    22  H    5.389935   4.480045   3.439048   2.726668   3.958749
    23  H    6.250406   5.458041   4.084192   3.437976   4.552781
    24  H    4.719390   4.184501   2.908334   2.876889   4.291519
                    6          7          8          9         10
     6  C    0.000000
     7  C    3.124467   0.000000
     8  C    4.626667   1.530831   0.000000
     9  H    4.722939   5.065027   5.573517   0.000000
    10  H    5.499530   5.736842   6.108930   1.616541   0.000000
    11  H    4.358669   4.039480   4.409187   2.934189   2.373815
    12  H    3.266950   4.212362   5.083333   2.410885   2.417899
    13  H    4.094995   2.595965   2.670086   2.953561   3.529540
    14  H    2.851318   2.761491   3.597572   2.508924   3.632091
    15  H    2.159260   3.365321   4.539391   4.385983   4.504267
    16  H    2.158807   2.609331   3.883116   5.655424   5.979785
    17  H    1.094674   3.602743   5.000139   3.910617   4.845271
    18  H    1.094592   2.872272   4.377877   5.292799   6.243428
    19  H    1.095174   4.068782   5.581979   5.495448   6.153375
    20  H    3.001534   1.105559   2.162474   5.005842   5.960799
    21  H    3.183989   1.095896   2.143979   5.993222   6.589572
    22  H    5.083564   2.171904   1.094566   5.913064   6.164614
    23  H    5.237245   2.163745   1.094973   6.530851   7.161150
    24  H    5.032899   2.196623   1.093953   5.043118   5.639966
                   11         12         13         14         15
    11  H    0.000000
    12  H    1.766458   0.000000
    13  H    2.470426   3.050620   0.000000
    14  H    3.063515   2.526186   1.759266   0.000000
    15  H    2.828312   2.167450   3.698052   3.199606   0.000000
    16  H    4.061697   3.750017   4.153159   3.788601   1.747648
    17  H    4.172862   2.814155   3.900031   2.358990   2.528362
    18  H    5.089295   4.164924   4.312800   3.092844   3.082719
    19  H    5.041319   3.818191   5.119989   3.880570   2.479274
    20  H    4.627364   4.495671   2.857795   2.531215   3.870373
    21  H    4.717511   4.819800   3.635241   3.674756   3.483207
    22  H    4.219643   5.183886   3.017573   4.196437   4.541295
    23  H    5.501857   6.104066   3.668611   4.435312   5.414235
    24  H    4.274349   5.022937   2.162102   3.342673   4.950592
                   16         17         18         19         20
    16  H    0.000000
    17  H    3.084255   0.000000
    18  H    2.536656   1.770849   0.000000
    19  H    2.465921   1.765709   1.767646   0.000000
    20  H    3.204058   3.324739   2.470900   4.003441   0.000000
    21  H    2.196730   3.940914   2.832479   3.921772   1.762068
    22  H    3.921578   5.525819   5.000248   5.953544   3.077093
    23  H    4.498245   5.688868   4.785905   6.152250   2.507011
    24  H    4.622333   5.180518   4.833551   6.068175   2.513520
                   21         22         23         24
    21  H    0.000000
    22  H    2.526017   0.000000
    23  H    2.429503   1.774736   0.000000
    24  H    3.074317   1.772438   1.762531   0.000000
 Stoichiometry    C6H16N2
 Framework group  C1[X(C6H16N2)]
 Deg. of freedom    66
 Full point group                 C1      NOp   1
 Largest Abelian subgroup         C1      NOp   1
 Largest concise Abelian subgroup C1      NOp   1
                         Standard orientation:                         
 ---------------------------------------------------------------------
 Center     Atomic      Atomic             Coordinates (Angstroms)
 Number     Number       Type             X           Y           Z
 ---------------------------------------------------------------------
      1          7           0       -3.051507   -0.776223   -0.265021
      2          6           0       -1.931100   -0.136626    0.443070
      3          6           0       -0.624787   -0.446935   -0.290516
      4          7           0        0.580170   -0.015145    0.424284
      5          6           0        0.649169    1.433197    0.678473
      6          6           0        0.665791    2.365380   -0.544352
      7          6           0        1.804813   -0.524707   -0.209206
      8          6           0        2.014567   -2.027833   -0.009064
      9          1           0       -3.163770   -0.326417   -1.172723
     10          1           0       -3.914420   -0.576750    0.236910
     11          1           0       -1.876324   -0.557474    1.453788
     12          1           0       -2.066546    0.950200    0.553173
     13          1           0       -0.578832   -1.533511   -0.408165
     14          1           0       -0.676584   -0.029199   -1.315087
     15          1           0       -0.189383    1.709108    1.326580
     16          1           0        1.554533    1.608970    1.271805
     17          1           0       -0.252506    2.284334   -1.134669
     18          1           0        1.512074    2.153328   -1.205390
     19          1           0        0.754266    3.406108   -0.215015
     20          1           0        1.840597   -0.294177   -1.289871
     21          1           0        2.649512    0.003908    0.246906
     22          1           0        1.951968   -2.286260    1.052713
     23          1           0        3.004893   -2.317446   -0.375595
     24          1           0        1.279150   -2.630001   -0.550625
 ---------------------------------------------------------------------
 Rotational constants (GHZ):           2.1410277           1.3325403           0.9158875
 Standard basis: 6-31G(d,p) (6D, 7F)
 There are   200 symmetry adapted cartesian basis functions of A   symmetry.
 There are   200 symmetry adapted basis functions of A   symmetry.
   200 basis functions,   336 primitive gaussians,   200 cartesian basis functions
    33 alpha electrons       33 beta electrons
       nuclear repulsion energy       412.8735602661 Hartrees.
 NAtoms=   24 NActive=   24 NUniq=   24 SFac= 1.00D+00 NAtFMM=   60 NAOKFM=F Big=F
 Integral buffers will be    131072 words long.
 Raffenetti 2 integral format.
 Two-electron integral symmetry is turned on.
 ------------------------------------------------------------------------------
 Polarizable Continuum Model (PCM)
 =================================
 Model                : PCM.
 Atomic radii         : UFF (Universal Force Field).
 Polarization charges : Total charges.
 Charge compensation  : None.
 Solution method      : Matrix inversion.
 Cavity type          : Scaled VdW (van der Waals Surface) (Alpha=1.100).
 Cavity algorithm     : GePol (No added spheres)
                        Default sphere list used, NSphG=   24.
                        Lebedev-Laikov grids with approx.  5.0 points / Ang**2.
                        Smoothing algorithm: York/Karplus (Gamma=1.0000).
                        Polarization charges: spherical gaussians, with
                                              point-specific exponents (IZeta= 3).
                        Self-potential: point-specific (ISelfS= 7).
                        Self-field    : sphere-specific E.n sum rule (ISelfD= 2).
 1st derivatives      : Analytical E(r).r(x)/FMM algorithm (CHGder, D1EAlg=3).
                        Cavity 1st derivative terms included.
 Solvent              : Water, Eps=  78.355300 Eps(inf)=   1.777849
 ------------------------------------------------------------------------------
 One-electron integrals computed using PRISM.
 NBasis=   200 RedAO= T EigKep=  3.42D-03  NBF=   200
 NBsUse=   200 1.00D-06 EigRej= -1.00D+00 NBFU=   200
 Initial guess from the checkpoint file:  "UDGSVBYJWHOHNN-UHFFFAOYSA-N_conf_0_0.chk"
 B after Tr=     0.000000   -0.000000    0.000000
         Rot=    0.999760   -0.001927    0.001122    0.021800 Ang=  -2.51 deg.
 ExpMin= 1.61D-01 ExpMax= 4.17D+03 ExpMxC= 6.27D+02 IAcc=2 IRadAn=         4 AccDes= 0.00D+00
 Harris functional with IExCor=  402 and IRadAn=       4 diagonalized for initial guess.
 HarFok:  IExCor=  402 AccDes= 0.00D+00 IRadAn=         4 IDoV= 1 UseB2=F ITyADJ=14
 ICtDFT=  3500011 ScaDFX=  1.000000  1.000000  1.000000  1.000000
 FoFCou: FMM=F IPFlag=           0 FMFlag=      100000 FMFlg1=           0
         NFxFlg=           0 DoJE=T BraDBF=F KetDBF=T FulRan=T
         wScrn=  0.000000 ICntrl=       500 IOpCl=  0 I1Cent=   200000004 NGrid=           0
         NMat0=    1 NMatS0=      1 NMatT0=    0 NMatD0=    1 NMtDS0=    0 NMtDT0=    0
 Petite list used in FoFCou.
 Keep R1 ints in memory in canonical form, NReq=206134434.
 Requested convergence on RMS density matrix=1.00D-08 within  32 cycles.
 Requested convergence on MAX density matrix=1.00D-06.
 Requested convergence on             energy=1.00D-06.
 No special actions if energy rises.
 Inv3:  Mode=1 IEnd=     7902387.
 Iteration    1 A*A^-1 deviation from unit magnitude is 1.13D-14 for    384.
 Iteration    1 A*A^-1 deviation from orthogonality  is 2.68D-15 for   1188    521.
 Iteration    1 A^-1*A deviation from unit magnitude is 1.13D-14 for    384.
 Iteration    1 A^-1*A deviation from orthogonality  is 4.02D-13 for   1327   1299.
 Error on total polarization charges =  0.00941
 SCF Done:  E(RB3LYP) =  -347.784397075     A.U. after    9 cycles
            NFock=  9  Conv=0.70D-08     -V/T= 2.0099
 QCSCF skips out because SCF is already converged.
 D1PCM: PCM CHGder 1st derivatives, ID1Alg=3 FixD1E=F DoIter=F DoCFld=F I1PDM=0.
 Calling FoFJK, ICntrl=      2127 FMM=F ISym2X=0 I1Cent= 0 IOpClX= 0 NMat=1 NMatS=1 NMatT=0.
 ***** Axes restored to original set *****
 -------------------------------------------------------------------
 Center     Atomic                   Forces (Hartrees/Bohr)
 Number     Number              X              Y              Z
 -------------------------------------------------------------------
      1        7           0.000587275   -0.000903240    0.000608918
      2        6           0.000580225    0.000633630    0.000075003
      3        6          -0.000021987   -0.000482521   -0.000340617
      4        7          -0.000195074    0.000169906    0.000251695
      5        6          -0.000105863    0.000059963   -0.000729375
      6        6          -0.000141867    0.000295044    0.000108913
      7        6           0.000147126   -0.000502236   -0.000293028
      8        6          -0.000086991   -0.000158441    0.000016092
      9        1           0.000191683    0.000220125   -0.000079098
     10        1           0.000038698    0.000060926    0.000051635
     11        1          -0.000239135    0.000129479   -0.000183193
     12        1          -0.000564957   -0.000114313   -0.000392516
     13        1          -0.000224664    0.000168188    0.000254202
     14        1          -0.000012398    0.000420156    0.000102638
     15        1           0.000170564    0.000014826    0.000215331
     16        1          -0.000091126   -0.000213097    0.000136558
     17        1          -0.000045480   -0.000070096    0.000049472
     18        1           0.000019579    0.000032031    0.000036818
     19        1           0.000016378    0.000012806   -0.000005942
     20        1          -0.000214504   -0.000066130    0.000193896
     21        1           0.000047114    0.000266359   -0.000055850
     22        1          -0.000053928    0.000018443   -0.000051214
     23        1           0.000045621    0.000021275    0.000170303
     24        1           0.000153710   -0.000013081   -0.000140641
 -------------------------------------------------------------------
 Cartesian Forces:  Max     0.000903240 RMS     0.000269854

 GradGradGradGradGradGradGradGradGradGradGradGradGradGradGradGradGradGrad
 Berny optimization.
 Using GEDIIS/GDIIS optimizer.
 FormGI is forming the generalized inverse of G from B-inverse, IUseBI=4.
 Internal  Forces:  Max     0.001028900 RMS     0.000188843
 Search for a local minimum.
 Step number   2 out of a maximum of  126
 All quantities printed in internal units (Hartrees-Bohrs-Radians)
 Mixed Optimization -- En-DIIS/RFO-DIIS
 Update second derivatives using D2CorX and points    1    2
 DE= -2.70D-03 DEPred=-2.70D-03 R= 1.00D+00
 TightC=F SS=  1.41D+00  RLast= 2.61D-01 DXNew= 5.0454D-01 7.8354D-01
 Trust test= 1.00D+00 RLast= 2.61D-01 DXMaxT set to 5.05D-01
 ITU=  1  0
 Use linear search instead of GDIIS.
     Eigenvalues ---    0.00127   0.00165   0.00214   0.00245   0.00339
     Eigenvalues ---    0.00500   0.00704   0.02202   0.03248   0.04220
     Eigenvalues ---    0.04417   0.04441   0.04475   0.04498   0.04529
     Eigenvalues ---    0.04628   0.04633   0.04677   0.04867   0.05130
     Eigenvalues ---    0.05310   0.08060   0.08441   0.08584   0.08919
     Eigenvalues ---    0.11112   0.11514   0.11888   0.12297   0.12324
     Eigenvalues ---    0.13669   0.13925   0.13940   0.14805   0.16083
     Eigenvalues ---    0.16238   0.16627   0.18482   0.19284   0.21830
     Eigenvalues ---    0.23619   0.24966   0.25213   0.26964   0.28226
     Eigenvalues ---    0.29239   0.31202   0.31973   0.32411   0.32520
     Eigenvalues ---    0.33001   0.33093   0.33256   0.33639   0.33697
     Eigenvalues ---    0.33765   0.33854   0.33928   0.34639   0.34691
     Eigenvalues ---    0.35551   0.36789   0.37018   0.37333   0.44037
     Eigenvalues ---    0.44298
 RFO step:  Lambda=-3.01967547D-04 EMin= 1.26983630D-03
 Quartic linear search produced a step of  0.07342.
 Iteration  1 RMS(Cart)=  0.08350022 RMS(Int)=  0.00310013
 Iteration  2 RMS(Cart)=  0.00412044 RMS(Int)=  0.00001501
 Iteration  3 RMS(Cart)=  0.00000974 RMS(Int)=  0.00001360
 Iteration  4 RMS(Cart)=  0.00000000 RMS(Int)=  0.00001360
 Variable       Old X    -DE/DX   Delta X   Delta X   Delta X     New X
                                 (Linear)    (Quad)   (Total)
    R1        2.78104   0.00103   0.00077   0.00123   0.00200   2.78303
    R2        1.92609   0.00004   0.00003   0.00019   0.00022   1.92631
    R3        1.92376   0.00003  -0.00017   0.00051   0.00034   1.92410
    R4        2.89128   0.00046  -0.00210   0.00441   0.00232   2.89359
    R5        2.07153   0.00002   0.00009  -0.00030  -0.00021   2.07132
    R6        2.08012   0.00012   0.00089   0.00008   0.00096   2.08109
    R7        2.77043   0.00034  -0.00158   0.00087  -0.00071   2.76972
    R8        2.06716  -0.00013  -0.00033  -0.00035  -0.00068   2.06648
    R9        2.09319   0.00031   0.00140  -0.00146  -0.00006   2.09314
   R10        2.78186   0.00024  -0.00004   0.00009   0.00005   2.78190
   R11        2.77778   0.00012  -0.00048   0.00175   0.00127   2.77905
   R12        2.90585   0.00036   0.00161  -0.00031   0.00130   2.90715
   R13        2.06952   0.00001  -0.00012  -0.00010  -0.00022   2.06930
   R14        2.07235   0.00003  -0.00018   0.00023   0.00005   2.07240
   R15        2.06863  -0.00003   0.00010  -0.00032  -0.00022   2.06842
   R16        2.06848  -0.00000   0.00007   0.00024   0.00031   2.06879
   R17        2.06958   0.00001  -0.00001  -0.00000  -0.00001   2.06957
   R18        2.89285   0.00015   0.00070  -0.00087  -0.00017   2.89268
   R19        2.08920   0.00020   0.00122  -0.00094   0.00028   2.08949
   R20        2.07094   0.00002  -0.00023   0.00005  -0.00018   2.07077
   R21        2.06843   0.00003  -0.00007  -0.00039  -0.00047   2.06796
   R22        2.06920  -0.00000  -0.00004   0.00042   0.00038   2.06958
   R23        2.06727   0.00002   0.00004   0.00044   0.00048   2.06776
    A1        1.89711   0.00008  -0.00097   0.00131   0.00034   1.89744
    A2        1.89963   0.00003  -0.00015  -0.00099  -0.00114   1.89849
    A3        1.83305  -0.00016  -0.00165  -0.00126  -0.00293   1.83012
    A4        1.90834   0.00004  -0.00294   0.00694   0.00398   1.91232
    A5        1.89106  -0.00004  -0.00048   0.00148   0.00093   1.89199
    A6        1.96444   0.00058   0.00597   0.00022   0.00620   1.97064
    A7        1.89816  -0.00014  -0.00116  -0.00295  -0.00418   1.89398
    A8        1.93186  -0.00035  -0.00031  -0.00415  -0.00446   1.92740
    A9        1.86814  -0.00012  -0.00109  -0.00178  -0.00292   1.86521
   A10        1.99132   0.00021  -0.00067  -0.00343  -0.00410   1.98721
   A11        1.86387  -0.00002   0.00059   0.00188   0.00245   1.86632
   A12        1.90401  -0.00009  -0.00061   0.00175   0.00114   1.90516
   A13        1.88648  -0.00014  -0.00116   0.00085  -0.00030   1.88618
   A14        1.95881   0.00002   0.00209   0.00010   0.00220   1.96101
   A15        1.85156   0.00001  -0.00030  -0.00092  -0.00121   1.85035
   A16        1.99598   0.00008   0.00039  -0.00066  -0.00029   1.99568
   A17        1.95253  -0.00004   0.00016   0.00147   0.00160   1.95413
   A18        1.95673   0.00014   0.00113   0.00497   0.00609   1.96282
   A19        2.04837   0.00018   0.00122  -0.00249  -0.00126   2.04711
[...]
    11  H    0.000015   0.000478   0.000459   0.001744   0.000112   0.004065
    12  H    0.000471   0.000297   0.000364   0.000168   0.000008   0.000290
    13  H    0.000146   0.026408   0.007157   0.004237   0.003342   0.040961
    14  H    0.004316   0.018518   0.004346   0.000337   0.000217   0.002959
    15  H    0.032574   0.002286   0.008001   0.000286   0.000036   0.000182
    16  H    0.037243   0.008333   0.073482   0.002077   0.000421   0.000417
    17  H    0.049886   0.009386   0.004763   0.000020   0.000020   0.000067
    18  H    0.031858   0.018716   0.028902   0.000081   0.000183   0.000107
    19  H    0.737729   0.001338   0.003129   0.000005   0.000002   0.000003
    20  H    0.001338   0.652011   0.048591   0.009519   0.016245   0.012350
    21  H    0.003129   0.048591   0.861597   0.016011   0.027273   0.015144
    22  H    0.000005   0.009519   0.016011   0.626456   0.001714  -0.003334
    23  H    0.000002   0.016245   0.027273   0.001714   0.670750   0.012398
    24  H    0.000003   0.012350   0.015144  -0.003334   0.012398   0.655694
 Mulliken charges:
               1
     1  N   -0.616916
     2  C   -0.026491
     3  C    0.014740
     4  N   -0.219272
     5  C   -0.008099
     6  C   -0.250275
     7  C   -0.004901
     8  C   -0.316181
     9  H    0.200269
    10  H    0.237321
    11  H    0.076086
    12  H    0.036026
    13  H    0.056640
    14  H    0.049639
    15  H    0.051405
    16  H    0.041771
    17  H    0.050207
    18  H    0.077332
    19  H    0.075712
    20  H    0.130685
    21  H    0.043303
    22  H    0.109697
    23  H    0.098675
    24  H    0.092628
 Sum of Mulliken charges =   0.00000
 Mulliken charges with hydrogens summed into heavy atoms:
               1
     1  N   -0.179326
     2  C    0.085621
     3  C    0.121018
     4  N   -0.219272
     5  C    0.085077
     6  C   -0.047025
     7  C    0.169087
     8  C   -0.015181
 Electronic spatial extent (au):  <R**2>=           1414.9051
 Charge=              0.0000 electrons
 Dipole moment (field-independent basis, Debye):
    X=              1.0788    Y=             -0.0104    Z=              0.8413  Tot=              1.3681
 Quadrupole moment (field-independent basis, Debye-Ang):
   XX=            -55.9262   YY=            -57.7855   ZZ=            -55.6570
   XY=             -4.6407   XZ=             -4.2013   YZ=             -1.0669
 Traceless Quadrupole moment (field-independent basis, Debye-Ang):
   XX=              0.5300   YY=             -1.3293   ZZ=              0.7993
   XY=             -4.6407   XZ=             -4.2013   YZ=             -1.0669
 Octapole moment (field-independent basis, Debye-Ang**2):
  XXX=            -23.3479  YYY=             -5.9206  ZZZ=              0.9549  XYY=              0.5359
  XXY=              7.4362  XXZ=              8.1100  XZZ=             -0.6843  YZZ=             -1.8093
  YYZ=              1.3103  XYZ=              5.7630
 Hexadecapole moment (field-independent basis, Debye-Ang**3):
 XXXX=          -1006.8832 YYYY=           -728.1892 ZZZZ=           -179.5993 XXXY=            -51.5875
 XXXZ=            -51.3747 YYYX=             -7.7115 YYYZ=             -0.0122 ZZZX=             -2.5845
 ZZZY=             -2.6441 XXYY=           -306.2879 XXZZ=           -212.5549 YYZZ=           -150.4053
 XXYZ=            -14.6894 YYXZ=             -1.1547 ZZXY=             -5.0918
 N-N= 4.112213032274D+02 E-N=-1.626116244975D+03  KE= 3.444811280329D+02
 Evaluate density.
 Using the total density.
 Monte-Carlo method of calculating molar volume:
 based on  0.001 e/bohr**3 density envelope.
 Number of points per bohr**3 =   20 CutOff= 1.00D-04
 Using the CI density.
 There are       381 points.  Will hold       381 in memory.
 LenV=  1073623900 MDV=  1073741824.
 Box volume = 6915.052 fraction occupied=0.155
 Integrated density= 1.4726728940428453D+02 error= 8.1267289404284526D+01
 Molar volume = 1070.835 bohr**3/mol ( 95.560 cm**3/mol)
 Recommended a0 for SCRF calculation =  4.20 angstrom (  7.93 bohr)
 ******************************Gaussian NBO Version 3.1******************************
             N A T U R A L   A T O M I C   O R B I T A L   A N D
          N A T U R A L   B O N D   O R B I T A L   A N A L Y S I S
 ******************************Gaussian NBO Version 3.1******************************
       /RESON  / : Allow strongly delocalized NBO set

 Analyzing the CI density

 Job title: UDGSVBYJWHOHNN-UHFFFAOYSA-N_conf_0                              

 Storage needed:    121952 in NPA (1073738704 available)
 GSVD:  LWork=       20800 too small for GESVD, short by       16736 words or       16736 for optimal perf.


 NATURAL POPULATIONS:  Natural atomic orbital occupancies 
                                                          
   NAO  Atom  No  lang   Type(AO)    Occupancy
 --------------------------------------------
     1    N    1  S      Cor( 1S)     1.99967
     2    N    1  S      Val( 2S)     1.45030
     3    N    1  S      Ryd( 3S)     0.00113
     4    N    1  S      Ryd( 4S)     0.00004
     5    N    1  px     Val( 2p)     1.28811
     6    N    1  px     Ryd( 3p)     0.00185
     7    N    1  py     Val( 2p)     1.64815
     8    N    1  py     Ryd( 3p)     0.00425
     9    N    1  pz     Val( 2p)     1.52180
    10    N    1  pz     Ryd( 3p)     0.00332
    11    N    1  dxy    Ryd( 3d)     0.00043
    12    N    1  dxz    Ryd( 3d)     0.00105
    13    N    1  dyz    Ryd( 3d)     0.00122
    14    N    1  dx2y2  Ryd( 3d)     0.00120
    15    N    1  dz2    Ryd( 3d)     0.00059

    16    C    2  S      Cor( 1S)     1.99933
    17    C    2  S      Val( 2S)     1.03207
    18    C    2  S      Ryd( 3S)     0.00231
    19    C    2  S      Ryd( 4S)     0.00004
    20    C    2  px     Val( 2p)     0.89540
    21    C    2  px     Ryd( 3p)     0.00250
    22    C    2  py     Val( 2p)     1.23867
    23    C    2  py     Ryd( 3p)     0.00326
    24    C    2  pz     Val( 2p)     1.09318
    25    C    2  pz     Ryd( 3p)     0.00531
    26    C    2  dxy    Ryd( 3d)     0.00066
    27    C    2  dxz    Ryd( 3d)     0.00126
    28    C    2  dyz    Ryd( 3d)     0.00133
    29    C    2  dx2y2  Ryd( 3d)     0.00106
    30    C    2  dz2    Ryd( 3d)     0.00040

    31    C    3  S      Cor( 1S)     1.99924
    32    C    3  S      Val( 2S)     1.06162
    33    C    3  S      Ryd( 3S)     0.00238
    34    C    3  S      Ryd( 4S)     0.00004
    35    C    3  px     Val( 2p)     0.87237
    36    C    3  px     Ryd( 3p)     0.00410
    37    C    3  py     Val( 2p)     1.27060
    38    C    3  py     Ryd( 3p)     0.00499
    39    C    3  pz     Val( 2p)     1.10608
    40    C    3  pz     Ryd( 3p)     0.00609
    41    C    3  dxy    Ryd( 3d)     0.00041
    42    C    3  dxz    Ryd( 3d)     0.00125
    43    C    3  dyz    Ryd( 3d)     0.00100
    44    C    3  dx2y2  Ryd( 3d)     0.00107
    45    C    3  dz2    Ryd( 3d)     0.00037

    46    N    4  S      Cor( 1S)     1.99933
    47    N    4  S      Val( 2S)     1.28453
    48    N    4  S      Ryd( 3S)     0.00138
    49    N    4  S      Ryd( 4S)     0.00004
    50    N    4  px     Val( 2p)     1.28503
    51    N    4  px     Ryd( 3p)     0.00084
    52    N    4  py     Val( 2p)     1.26837
    53    N    4  py     Ryd( 3p)     0.00154
    54    N    4  pz     Val( 2p)     1.19090
    55    N    4  pz     Ryd( 3p)     0.00160
    56    N    4  dxy    Ryd( 3d)     0.00071
    57    N    4  dxz    Ryd( 3d)     0.00095
    58    N    4  dyz    Ryd( 3d)     0.00050
    59    N    4  dx2y2  Ryd( 3d)     0.00092
    60    N    4  dz2    Ryd( 3d)     0.00050

    61    C    5  S      Cor( 1S)     1.99933
    62    C    5  S      Val( 2S)     1.04253
    63    C    5  S      Ryd( 3S)     0.00135
    64    C    5  S      Ryd( 4S)     0.00006
    65    C    5  px     Val( 2p)     1.22496
    66    C    5  px     Ryd( 3p)     0.00494
    67    C    5  py     Val( 2p)     0.87188
    68    C    5  py     Ryd( 3p)     0.00337
    69    C    5  pz     Val( 2p)     1.16144
    70    C    5  pz     Ryd( 3p)     0.00518
    71    C    5  dxy    Ryd( 3d)     0.00080
    72    C    5  dxz    Ryd( 3d)     0.00103
    73    C    5  dyz    Ryd( 3d)     0.00071
    74    C    5  dx2y2  Ryd( 3d)     0.00111
    75    C    5  dz2    Ryd( 3d)     0.00059

    76    C    6  S      Cor( 1S)     1.99940
    77    C    6  S      Val( 2S)     1.14414
    78    C    6  S      Ryd( 3S)     0.00063
    79    C    6  S      Ryd( 4S)     0.00004
    80    C    6  px     Val( 2p)     1.22639
    81    C    6  px     Ryd( 3p)     0.00131
    82    C    6  py     Val( 2p)     1.17738
    83    C    6  py     Ryd( 3p)     0.00155
    84    C    6  pz     Val( 2p)     1.13939
    85    C    6  pz     Ryd( 3p)     0.00319
    86    C    6  dxy    Ryd( 3d)     0.00040
    87    C    6  dxz    Ryd( 3d)     0.00087
    88    C    6  dyz    Ryd( 3d)     0.00061
    89    C    6  dx2y2  Ryd( 3d)     0.00053
    90    C    6  dz2    Ryd( 3d)     0.00029

    91    C    7  S      Cor( 1S)     1.99931
    92    C    7  S      Val( 2S)     1.05535
    93    C    7  S      Ryd( 3S)     0.00197
    94    C    7  S      Ryd( 4S)     0.00004
    95    C    7  px     Val( 2p)     1.03934
    96    C    7  px     Ryd( 3p)     0.00333
    97    C    7  py     Val( 2p)     1.01219
    98    C    7  py     Ryd( 3p)     0.00224
    99    C    7  pz     Val( 2p)     1.19413
   100    C    7  pz     Ryd( 3p)     0.00357
   101    C    7  dxy    Ryd( 3d)     0.00118
   102    C    7  dxz    Ryd( 3d)     0.00079
   103    C    7  dyz    Ryd( 3d)     0.00069
   104    C    7  dx2y2  Ryd( 3d)     0.00073
   105    C    7  dz2    Ryd( 3d)     0.00086

   106    C    8  S      Cor( 1S)     1.99944
   107    C    8  S      Val( 2S)     1.11493
   108    C    8  S      Ryd( 3S)     0.00047
   109    C    8  S      Ryd( 4S)     0.00001
   110    C    8  px     Val( 2p)     1.25790
   111    C    8  px     Ryd( 3p)     0.00156
   112    C    8  py     Val( 2p)     1.07557
   113    C    8  py     Ryd( 3p)     0.00454
   114    C    8  pz     Val( 2p)     1.25097
   115    C    8  pz     Ryd( 3p)     0.00156
   116    C    8  dxy    Ryd( 3d)     0.00053
   117    C    8  dxz    Ryd( 3d)     0.00045
   118    C    8  dyz    Ryd( 3d)     0.00031
   119    C    8  dx2y2  Ryd( 3d)     0.00059
   120    C    8  dz2    Ryd( 3d)     0.00078

   121    H    9  S      Val( 1S)     0.63406
   122    H    9  S      Ryd( 2S)     0.01963
   123    H    9  px     Ryd( 2p)     0.00029
   124    H    9  py     Ryd( 2p)     0.00067
   125    H    9  pz     Ryd( 2p)     0.00043

   126    H   10  S      Val( 1S)     0.61134
   127    H   10  S      Ryd( 2S)     0.00771
   128    H   10  px     Ryd( 2p)     0.00045
   129    H   10  py     Ryd( 2p)     0.00046
   130    H   10  pz     Ryd( 2p)     0.00048

   131    H   11  S      Val( 1S)     0.77641
   132    H   11  S      Ryd( 2S)     0.01576
   133    H   11  px     Ryd( 2p)     0.00006
   134    H   11  py     Ryd( 2p)     0.00028
   135    H   11  pz     Ryd( 2p)     0.00020

   136    H   12  S      Val( 1S)     0.81114
   137    H   12  S      Ryd( 2S)     0.02421
   138    H   12  px     Ryd( 2p)     0.00009
   139    H   12  py     Ryd( 2p)     0.00029
   140    H   12  pz     Ryd( 2p)     0.00019

   141    H   13  S      Val( 1S)     0.77364
   142    H   13  S      Ryd( 2S)     0.02705
   143    H   13  px     Ryd( 2p)     0.00006
   144    H   13  py     Ryd( 2p)     0.00029
   145    H   13  pz     Ryd( 2p)     0.00015

   146    H   14  S      Val( 1S)     0.76084
   147    H   14  S      Ryd( 2S)     0.04224
   148    H   14  px     Ryd( 2p)     0.00006
   149    H   14  py     Ryd( 2p)     0.00025
   150    H   14  pz     Ryd( 2p)     0.00023

   151    H   15  S      Val( 1S)     0.77461
   152    H   15  S      Ryd( 2S)     0.03233
   153    H   15  px     Ryd( 2p)     0.00024
   154    H   15  py     Ryd( 2p)     0.00013
   155    H   15  pz     Ryd( 2p)     0.00015

   156    H   16  S      Val( 1S)     0.77697
   157    H   16  S      Ryd( 2S)     0.03436
   158    H   16  px     Ryd( 2p)     0.00022
   159    H   16  py     Ryd( 2p)     0.00005
   160    H   16  pz     Ryd( 2p)     0.00026

   161    H   17  S      Val( 1S)     0.78433
   162    H   17  S      Ryd( 2S)     0.02560
   163    H   17  px     Ryd( 2p)     0.00022
   164    H   17  py     Ryd( 2p)     0.00009
   165    H   17  pz     Ryd( 2p)     0.00021

   166    H   18  S      Val( 1S)     0.77341
   167    H   18  S      Ryd( 2S)     0.01669
   168    H   18  px     Ryd( 2p)     0.00026
   169    H   18  py     Ryd( 2p)     0.00012
   170    H   18  pz     Ryd( 2p)     0.00013

   171    H   19  S      Val( 1S)     0.76825
   172    H   19  S      Ryd( 2S)     0.01598
   173    H   19  px     Ryd( 2p)     0.00010
   174    H   19  py     Ryd( 2p)     0.00030
   175    H   19  pz     Ryd( 2p)     0.00010

   176    H   20  S      Val( 1S)     0.72567
   177    H   20  S      Ryd( 2S)     0.01913
   178    H   20  px     Ryd( 2p)     0.00008
   179    H   20  py     Ryd( 2p)     0.00009
   180    H   20  pz     Ryd( 2p)     0.00036

   181    H   21  S      Val( 1S)     0.77420
   182    H   21  S      Ryd( 2S)     0.03631
   183    H   21  px     Ryd( 2p)     0.00030
   184    H   21  py     Ryd( 2p)     0.00009
   185    H   21  pz     Ryd( 2p)     0.00012

   186    H   22  S      Val( 1S)     0.76069
   187    H   22  S      Ryd( 2S)     0.00705
   188    H   22  px     Ryd( 2p)     0.00008
   189    H   22  py     Ryd( 2p)     0.00009
   190    H   22  pz     Ryd( 2p)     0.00033

   191    H   23  S      Val( 1S)     0.75945
   192    H   23  S      Ryd( 2S)     0.00923
   193    H   23  px     Ryd( 2p)     0.00022
   194    H   23  py     Ryd( 2p)     0.00017
   195    H   23  pz     Ryd( 2p)     0.00011

   196    H   24  S      Val( 1S)     0.76886
   197    H   24  S      Ryd( 2S)     0.01346
   198    H   24  px     Ryd( 2p)     0.00026
   199    H   24  py     Ryd( 2p)     0.00014
   200    H   24  pz     Ryd( 2p)     0.00013


 Summary of Natural Population Analysis:                  
                                                          
                                       Natural Population 
                Natural  -----------------------------------------------
    Atom  No    Charge         Core      Valence    Rydberg      Total
 -----------------------------------------------------------------------
      N    1   -0.92309      1.99967     5.90836    0.01506     7.92309
      C    2   -0.27679      1.99933     4.25931    0.01814     6.27679
      C    3   -0.33162      1.99924     4.31067    0.02171     6.33162
      N    4   -0.03713      1.99933     5.02882    0.00898     7.03713
      C    5   -0.31927      1.99933     4.30081    0.01914     6.31927
      C    6   -0.69612      1.99940     4.68730    0.00941     6.69612
      C    7   -0.31572      1.99931     4.30100    0.01540     6.31572
      C    8   -0.70961      1.99944     4.69937    0.01080     6.70961
      H    9    0.34493      0.00000     0.63406    0.02101     0.65507
      H   10    0.37956      0.00000     0.61134    0.00910     0.62044
      H   11    0.20728      0.00000     0.77641    0.01631     0.79272
      H   12    0.16408      0.00000     0.81114    0.02478     0.83592
      H   13    0.19881      0.00000     0.77364    0.02756     0.80119
      H   14    0.19638      0.00000     0.76084    0.04278     0.80362
      H   15    0.19254      0.00000     0.77461    0.03285     0.80746
      H   16    0.18814      0.00000     0.77697    0.03489     0.81186
      H   17    0.18956      0.00000     0.78433    0.02611     0.81044
      H   18    0.20939      0.00000     0.77341    0.01720     0.79061
      H   19    0.21528      0.00000     0.76825    0.01647     0.78472
      H   20    0.25467      0.00000     0.72567    0.01966     0.74533
      H   21    0.18899      0.00000     0.77420    0.03681     0.81101
      H   22    0.23176      0.00000     0.76069    0.00755     0.76824
      H   23    0.23083      0.00000     0.75945    0.00972     0.76917
      H   24    0.21714      0.00000     0.76886    0.01399     0.78286
 =======================================================================
   * Total *    0.00000     15.99505    49.52950    0.47545    66.00000

                                 Natural Population      
 --------------------------------------------------------
   Core                      15.99505 ( 99.9691% of  16)
   Valence                   49.52950 ( 99.0590% of  50)
   Natural Minimal Basis     65.52455 ( 99.2796% of  66)
   Natural Rydberg Basis      0.47545 (  0.7204% of  66)
 --------------------------------------------------------

    Atom  No          Natural Electron Configuration
 ----------------------------------------------------------------------------
      N    1      [core]2S( 1.45)2p( 4.46)3p( 0.01)
      C    2      [core]2S( 1.03)2p( 3.23)3p( 0.01)
      C    3      [core]2S( 1.06)2p( 3.25)3p( 0.02)
      N    4      [core]2S( 1.28)2p( 3.74)
      C    5      [core]2S( 1.04)2p( 3.26)3p( 0.01)
      C    6      [core]2S( 1.14)2p( 3.54)3p( 0.01)
      C    7      [core]2S( 1.06)2p( 3.25)3p( 0.01)
      C    8      [core]2S( 1.11)2p( 3.58)3p( 0.01)
      H    9            1S( 0.63)2S( 0.02)
      H   10            1S( 0.61)2S( 0.01)
      H   11            1S( 0.78)2S( 0.02)
      H   12            1S( 0.81)2S( 0.02)
      H   13            1S( 0.77)2S( 0.03)
      H   14            1S( 0.76)2S( 0.04)
      H   15            1S( 0.77)2S( 0.03)
      H   16            1S( 0.78)2S( 0.03)
      H   17            1S( 0.78)2S( 0.03)
      H   18            1S( 0.77)2S( 0.02)
      H   19            1S( 0.77)2S( 0.02)
      H   20            1S( 0.73)2S( 0.02)
      H   21            1S( 0.77)2S( 0.04)
      H   22            1S( 0.76)2S( 0.01)
      H   23            1S( 0.76)2S( 0.01)
      H   24            1S( 0.77)2S( 0.01)


 NBO analysis skipped by request.
 1\1\GINC-CN34\SP\RB3LYP TD-FC\6-31G(d,p)\C6H16N2\QDUEZ\11-Jul-2024\0\\
 # TD(NStates=10, Root=1) B3LYP/6-31G** SCRF=(Solvent=water) volume pop
 =NPA density=current Geom=AllCheck Guess=Read\\UDGSVBYJWHOHNN-UHFFFAOY
 SA-N_conf_0\\0,1\N,0,3.2032687371,0.3262930211,0.7506111794\C,0,2.1173
 834452,0.111043066,-0.2185062744\C,0,0.7739602515,0.0102875795,0.51189
 48221\N,0,-0.3496238726,-0.192132345,-0.4085992549\C,0,-0.8690212803,1
 .0530039536,-0.9914860116\C,0,-1.6551475753,1.9891557634,-0.0566016465
 \C,0,-1.402489382,-1.0666194659,0.1223112362\C,0,-1.0094757168,-2.5452
 499557,0.0980312556\H,0,3.1150187995,1.2632359031,1.1419867876\H,0,4.0
 932812202,0.329398801,0.2564299744\H,0,2.3015667594,-0.8350728287,-0.7
 399696297\H,0,2.0605857232,0.8916551048,-0.9950495858\H,0,0.8303436867
 ,-0.838409515,1.1995179228\H,0,0.6378751164,0.9044692515,1.1466116989\
 H,0,-0.021838872,1.602142211,-1.4174432517\H,0,-1.5109964776,0.7779010
 62,-1.8381076514\H,0,-1.0525232542,2.3203227812,0.795094278\H,0,-2.555
 1617417,1.5047991216,0.3350848785\H,0,-1.9707486664,2.883255972,-0.604
 882577\H,0,-1.7077312694,-0.7840353771,1.1460731664\H,0,-2.2887883541,
 -0.9315280915,-0.5083858116\H,0,-0.7713448849,-2.8623082675,-0.9221126
 859\H,0,-1.8325190027,-3.1639853927,0.4713571339\H,0,-0.1358733894,-2.
 7476223527,0.7261400466\\Version=EM64L-G16RevA.03\State=1-A\HF=-347.78
 49097\RMSD=2.557e-09\Dipole=-0.3682822,-0.0974548,-0.3802713\Quadrupol
 e=0.5192219,0.0383695,-0.5575914,3.0307006,-3.573379,0.8873048\PG=C01 
 [X(C6H16N2)]\\@


 KNOWLEDGE IS EXPERIMENT'S DAUGHTER.
 -- LEONARDO DA VINCI, IN "PENSIERI" CA. 1492
 Job cpu time:       0 days  0 hours 58 minutes 58.8 seconds.
 Elapsed time:       0 days  0 hours 20 minutes 50.1 seconds.
 File lengths (MBytes):  RWF=    377 Int=      0 D2E=      0 Chk=     24 Scr=      1
 Normal termination of Gaussian 16 at Thu Jul 11 19:45:31 2024.
