 Entering Gaussian System, Link 0=g16
 Initial command:
 /opt/sw/arch/manual/gaussian/G16_A03/g16/l1.exe "/scratch/1032102.jesse.materianova.be/Gau-50564.inp" -scrdir="/scratch/1032102.jesse.materianova.be/"
 Entering Link 1 = /opt/sw/arch/manual/gaussian/G16_A03/g16/l1.exe PID=     50565.
  
 Copyright (c) 1988,1990,1992,1993,1995,1998,2003,2009,2016,
            Gaussian, Inc.  All Rights Reserved.
  
 This is part of the Gaussian(R) 16 program.  It is based on
 the Gaussian(R) 09 system (copyright 2009, Gaussian, Inc.),
 the Gaussian(R) 03 system (copyright 2003, Gaussian, Inc.),
 the Gaussian(R) 98 system (copyright 1998, Gaussian, Inc.),
 the Gaussian(R) 94 system (copyright 1995, Gaussian, Inc.),
 the Gaussian 92(TM) system (copyright 1992, Gaussian, Inc.),
 the Gaussian 90(TM) system (copyright 1990, Gaussian, Inc.),
 the Gaussian 88(TM) system (copyright 1988, Gaussian, Inc.),
 the Gaussian 86(TM) system (copyright 1986, Carnegie Mellon
 University), and the Gaussian 82(TM) system (copyright 1983,
 Carnegie Mellon University). Gaussian is a federally registered
 trademark of Gaussian, Inc.
  
 This software contains proprietary and confidential information,
 including trade secrets, belonging to Gaussian, Inc.
  
 This software is provided under written license and may be
 used, copied, transmitted, or stored only in accord with that
 written license.
  
 The following legend is applicable only to US Government
 contracts under FAR:
  
                    RESTRICTED RIGHTS LEGEND
  
 Use, reproduction and disclosure by the US Government is
 subject to restrictions as set forth in subparagraphs (a)
 and (c) of the Commercial Computer Software - Restricted
 Rights clause in FAR 52.227-19.
  
 Gaussian, Inc.
 340 Quinnipiac St., Bldg. 40, Wallingford CT 06492
  
  
 ---------------------------------------------------------------
 Warning -- This program may not be used in any manner that
 competes with the business of Gaussian, Inc. or will provide
 assistance to any competitor of Gaussian, Inc.  The licensee
 of this program is prohibited from giving any competitor of
 Gaussian, Inc. access to this program.  By using this program,
 the user acknowledges that Gaussian, Inc. is engaged in the
 business of creating and licensing software in the field of
 computational chemistry and represents and warrants to the
 licensee that it is not a competitor of Gaussian, Inc. and that
 it will not use this program in any manner prohibited above.
 ---------------------------------------------------------------
  

 Cite this work as:
 Gaussian 16, Revision A.03,
 M. J. Frisch, G. W. Trucks, H. B. Schlegel, G. E. Scuseria, 
 M. A. Robb, J. R. Cheeseman, G. Scalmani, V. Barone, 
 G. A. Petersson, H. Nakatsuji, X. Li, M. Caricato, A. V. Marenich, 
 J. Bloino, B. G. Janesko, R. Gomperts, B. Mennucci, H. P. Hratchian, 
 J. V. Ortiz, A. F. Izmaylov, J. L. Sonnenberg, D. Williams-Young, 
 F. Ding, F. Lipparini, F. Egidi, J. Goings, B. Peng, A. Petrone, 
 T. Henderson, D. Ranasinghe, V. G. Zakrzewski, J. Gao, N. Rega, 
 G. Zheng, W. Liang, M. Hada, M. Ehara, K. Toyota, R. Fukuda, 
 J. Hasegawa, M. Ishida, T. Nakajima, Y. Honda, O. Kitao, H. Nakai, 
 T. Vreven, K. Throssell, J. A. Montgomery, Jr., J. E. Peralta, 
 F. Ogliaro, M. J. Bearpark, J. J. Heyd, E. N. Brothers, K. N. Kudin, 
 V. N. Staroverov, T. A. Keith, R. Kobayashi, J. Normand, 
 K. Raghavachari, A. P. Rendell, J. C. Burant, S. S. Iyengar, 
 J. Tomasi, M. Cossi, J. M. Millam, M. Klene, C. Adamo, R. Cammi, 
 J. W. Ochterski, R. L. Martin, K. Morokuma, O. Farkas, 
 J. B. Foresman, and D. J. Fox, Gaussian, Inc., Wallingford CT, 2016.
 
 ******************************************
 Gaussian 16:  EM64L-G16RevA.03 25-Dec-2016
                11-Jul-2024 
 ******************************************
 %nprocshared=4
 Will use up to    4 processors via shared memory.
 %mem=8GB
 %Chk=UDGSVBYJWHOHNN-UHFFFAOYSA-N_conf_2_0.chk
 -------------------------------------------------------
 # opt=CalcFc B3LYP/6-31G** SCRF=(Solvent=water) scf=xqc
 -------------------------------------------------------
 1/10=4,18=20,19=15,26=3,38=1/1,3;
 2/9=110,12=2,17=6,18=5,40=1/2;
 3/5=1,6=6,7=101,11=2,25=1,30=1,70=2201,71=2,72=1,74=-5,140=1/1,2,3;
 4//1;
 5/5=2,8=3,13=1,38=5,53=1/2,8;
 8/6=4,10=90,11=11/1;
 11/6=1,8=1,9=11,15=111,16=1/1,2,10;
 10/6=1,13=1/2;
 6/7=2,8=2,9=2,10=2,28=1/1;
 7/10=1,18=20,25=1/1,2,3,16;
 1/10=4,18=20,19=15,26=3/3(2);
 2/9=110/2;
 99//99;
 2/9=110/2;
 3/5=1,6=6,7=101,11=2,25=1,30=1,70=2205,71=1,72=1,74=-5/1,2,3;
 4/5=5,16=3,69=1/1;
 5/5=2,8=3,13=1,38=5,53=1/2,8;
 7//1,2,3,16;
 1/18=20,19=15,26=3/3(-5);
 2/9=110/2;
 6/7=2,8=2,9=2,10=2,19=2,28=1/1;
 99/9=1/99;
 ----------------------------------
 UDGSVBYJWHOHNN-UHFFFAOYSA-N_conf_2
 ----------------------------------
 Symbolic Z-matrix:
 Charge =  0 Multiplicity = 1
 N                     2.45956  -1.26548  -0.1237 
 C                     1.66248  -1.02754   1.08711 
 C                     0.66717   0.1432    0.90643 
 N                     0.00023   0.13498  -0.4157 
 C                    -1.31286  -0.5323   -0.40401 
 C                    -1.25113  -2.03227  -0.14636 
 C                    -0.0984    1.49163  -0.98558 
 C                    -0.95956   2.48923  -0.21437 
 H                     2.99528  -0.42108  -0.32319 
 H                     1.78111  -1.29565  -0.89397 
 H                     1.13215  -1.95037   1.33545 
 H                     2.33432  -0.81293   1.92524 
 H                    -0.05549   0.16291   1.73137 
 H                     1.26749   1.05783   1.00845 
 H                    -1.78138  -0.40436  -1.38833 
 H                    -1.98694  -0.07416   0.32978 
 H                    -2.22822  -2.48387  -0.34929 
 H                    -0.5182   -2.52042  -0.79657 
 H                    -1.00635  -2.25186   0.89618 
 H                     0.91363   1.90395  -1.08882 
 H                    -0.4778    1.41891  -2.01286 
 H                    -0.91561   3.46867  -0.70244 
 H                    -0.61178   2.61771   0.81503 
 H                    -2.00969   2.18328  -0.18983 
 

 GradGradGradGradGradGradGradGradGradGradGradGradGradGradGradGradGradGrad
 Berny optimization.
 Initialization pass.
                           ----------------------------
                           !    Initial Parameters    !
                           ! (Angstroms and Degrees)  !
 --------------------------                            --------------------------
 ! Name  Definition              Value          Derivative Info.                !
 --------------------------------------------------------------------------------
 ! R1    R(1,2)                  1.469          calculate D2E/DX2 analytically  !
 ! R2    R(1,9)                  1.0197         calculate D2E/DX2 analytically  !
 ! R3    R(1,10)                 1.0269         calculate D2E/DX2 analytically  !
 ! R4    R(2,3)                  1.5472         calculate D2E/DX2 analytically  !
 ! R5    R(2,11)                 1.093          calculate D2E/DX2 analytically  !
 ! R6    R(2,12)                 1.0954         calculate D2E/DX2 analytically  !
 ! R7    R(3,4)                  1.4808         calculate D2E/DX2 analytically  !
 ! R8    R(3,13)                 1.0969         calculate D2E/DX2 analytically  !
 ! R9    R(3,14)                 1.0988         calculate D2E/DX2 analytically  !
 ! R10   R(4,5)                  1.473          calculate D2E/DX2 analytically  !
 ! R11   R(4,7)                  1.4748         calculate D2E/DX2 analytically  !
 ! R12   R(5,6)                  1.5232         calculate D2E/DX2 analytically  !
 ! R13   R(5,15)                 1.0976         calculate D2E/DX2 analytically  !
 ! R14   R(5,16)                 1.0967         calculate D2E/DX2 analytically  !
 ! R15   R(6,17)                 1.0954         calculate D2E/DX2 analytically  !
 ! R16   R(6,18)                 1.0946         calculate D2E/DX2 analytically  !
 ! R17   R(6,19)                 1.0932         calculate D2E/DX2 analytically  !
 ! R18   R(7,8)                  1.5269         calculate D2E/DX2 analytically  !
 ! R19   R(7,20)                 1.0977         calculate D2E/DX2 analytically  !
 ! R20   R(7,21)                 1.0975         calculate D2E/DX2 analytically  !
 ! R21   R(8,22)                 1.0952         calculate D2E/DX2 analytically  !
 ! R22   R(8,23)                 1.0941         calculate D2E/DX2 analytically  !
 ! R23   R(8,24)                 1.0941         calculate D2E/DX2 analytically  !
 ! A1    A(2,1,9)              108.1909         calculate D2E/DX2 analytically  !
 ! A2    A(2,1,10)             105.339          calculate D2E/DX2 analytically  !
 ! A3    A(9,1,10)             102.984          calculate D2E/DX2 analytically  !
 ! A4    A(1,2,3)              112.046          calculate D2E/DX2 analytically  !
 ! A5    A(1,2,11)             108.289          calculate D2E/DX2 analytically  !
 ! A6    A(1,2,12)             109.2443         calculate D2E/DX2 analytically  !
 ! A7    A(3,2,11)             110.6882         calculate D2E/DX2 analytically  !
 ! A8    A(3,2,12)             109.612          calculate D2E/DX2 analytically  !
 ! A9    A(11,2,12)            106.8083         calculate D2E/DX2 analytically  !
 ! A10   A(2,3,4)              112.9408         calculate D2E/DX2 analytically  !
 ! A11   A(2,3,13)             110.4616         calculate D2E/DX2 analytically  !
 ! A12   A(2,3,14)             105.5185         calculate D2E/DX2 analytically  !
 ! A13   A(4,3,13)             112.0149         calculate D2E/DX2 analytically  !
 ! A14   A(4,3,14)             109.4867         calculate D2E/DX2 analytically  !
 ! A15   A(13,3,14)            105.9719         calculate D2E/DX2 analytically  !
 ! A16   A(3,4,5)              113.3862         calculate D2E/DX2 analytically  !
 ! A17   A(3,4,7)              111.7163         calculate D2E/DX2 analytically  !
 ! A18   A(5,4,7)              111.1114         calculate D2E/DX2 analytically  !
 ! A19   A(4,5,6)              114.2883         calculate D2E/DX2 analytically  !
 ! A20   A(4,5,15)             108.6988         calculate D2E/DX2 analytically  !
 ! A21   A(4,5,16)             111.3463         calculate D2E/DX2 analytically  !
 ! A22   A(6,5,15)             106.4858         calculate D2E/DX2 analytically  !
 ! A23   A(6,5,16)             108.8514         calculate D2E/DX2 analytically  !
 ! A24   A(15,5,16)            106.7966         calculate D2E/DX2 analytically  !
 ! A25   A(5,6,17)             109.7859         calculate D2E/DX2 analytically  !
 ! A26   A(5,6,18)             111.4574         calculate D2E/DX2 analytically  !
 ! A27   A(5,6,19)             111.6051         calculate D2E/DX2 analytically  !
 ! A28   A(17,6,18)            107.6596         calculate D2E/DX2 analytically  !
 ! A29   A(17,6,19)            107.0738         calculate D2E/DX2 analytically  !
 ! A30   A(18,6,19)            109.0851         calculate D2E/DX2 analytically  !
 ! A31   A(4,7,8)              116.33           calculate D2E/DX2 analytically  !
 ! A32   A(4,7,20)             108.6769         calculate D2E/DX2 analytically  !
 ! A33   A(4,7,21)             108.8964         calculate D2E/DX2 analytically  !
 ! A34   A(8,7,20)             108.7883         calculate D2E/DX2 analytically  !
 ! A35   A(8,7,21)             108.7277         calculate D2E/DX2 analytically  !
 ! A36   A(20,7,21)            104.8074         calculate D2E/DX2 analytically  !
 ! A37   A(7,8,22)             109.6677         calculate D2E/DX2 analytically  !
 ! A38   A(7,8,23)             111.8783         calculate D2E/DX2 analytically  !
 ! A39   A(7,8,24)             111.7132         calculate D2E/DX2 analytically  !
 ! A40   A(22,8,23)            107.5478         calculate D2E/DX2 analytically  !
 ! A41   A(22,8,24)            107.3737         calculate D2E/DX2 analytically  !
 ! A42   A(23,8,24)            108.4717         calculate D2E/DX2 analytically  !
 ! D1    D(9,1,2,3)             60.8699         calculate D2E/DX2 analytically  !
 ! D2    D(9,1,2,11)          -176.7677         calculate D2E/DX2 analytically  !
 ! D3    D(9,1,2,12)           -60.7938         calculate D2E/DX2 analytically  !
 ! D4    D(10,1,2,3)           -48.7253         calculate D2E/DX2 analytically  !
 ! D5    D(10,1,2,11)           73.6371         calculate D2E/DX2 analytically  !
 ! D6    D(10,1,2,12)         -170.389          calculate D2E/DX2 analytically  !
 ! D7    D(1,2,3,4)             41.5577         calculate D2E/DX2 analytically  !
 ! D8    D(1,2,3,13)           167.8836         calculate D2E/DX2 analytically  !
 ! D9    D(1,2,3,14)           -78.0112         calculate D2E/DX2 analytically  !
 ! D10   D(11,2,3,4)           -79.4284         calculate D2E/DX2 analytically  !
 ! D11   D(11,2,3,13)           46.8975         calculate D2E/DX2 analytically  !
 ! D12   D(11,2,3,14)          161.0027         calculate D2E/DX2 analytically  !
 ! D13   D(12,2,3,4)           163.0103         calculate D2E/DX2 analytically  !
 ! D14   D(12,2,3,13)          -70.6638         calculate D2E/DX2 analytically  !
 ! D15   D(12,2,3,14)           43.4414         calculate D2E/DX2 analytically  !
 ! D16   D(2,3,4,5)             95.0933         calculate D2E/DX2 analytically  !
 ! D17   D(2,3,4,7)           -138.4202         calculate D2E/DX2 analytically  !
 ! D18   D(13,3,4,5)           -30.399          calculate D2E/DX2 analytically  !
 ! D19   D(13,3,4,7)            96.0876         calculate D2E/DX2 analytically  !
 ! D20   D(14,3,4,5)          -147.6517         calculate D2E/DX2 analytically  !
 ! D21   D(14,3,4,7)           -21.1651         calculate D2E/DX2 analytically  !
 ! D22   D(3,4,5,6)            -66.9865         calculate D2E/DX2 analytically  !
 ! D23   D(3,4,5,15)           174.2353         calculate D2E/DX2 analytically  !
 ! D24   D(3,4,5,16)            56.8597         calculate D2E/DX2 analytically  !
 ! D25   D(7,4,5,6)            166.2081         calculate D2E/DX2 analytically  !
 ! D26   D(7,4,5,15)            47.4299         calculate D2E/DX2 analytically  !
 ! D27   D(7,4,5,16)           -69.9458         calculate D2E/DX2 analytically  !
 ! D28   D(3,4,7,8)            -64.0255         calculate D2E/DX2 analytically  !
 ! D29   D(3,4,7,20)            59.1097         calculate D2E/DX2 analytically  !
 ! D30   D(3,4,7,21)           172.7414         calculate D2E/DX2 analytically  !
 ! D31   D(5,4,7,8)             63.6916         calculate D2E/DX2 analytically  !
 ! D32   D(5,4,7,20)          -173.1733         calculate D2E/DX2 analytically  !
 ! D33   D(5,4,7,21)           -59.5415         calculate D2E/DX2 analytically  !
 ! D34   D(4,5,6,17)          -168.7747         calculate D2E/DX2 analytically  !
 ! D35   D(4,5,6,18)           -49.5785         calculate D2E/DX2 analytically  !
 ! D36   D(4,5,6,19)            72.6657         calculate D2E/DX2 analytically  !
 ! D37   D(15,5,6,17)          -48.7512         calculate D2E/DX2 analytically  !
 ! D38   D(15,5,6,18)           70.4449         calculate D2E/DX2 analytically  !
 ! D39   D(15,5,6,19)         -167.3108         calculate D2E/DX2 analytically  !
 ! D40   D(16,5,6,17)           66.0511         calculate D2E/DX2 analytically  !
 ! D41   D(16,5,6,18)         -174.7527         calculate D2E/DX2 analytically  !
 ! D42   D(16,5,6,19)          -52.5084         calculate D2E/DX2 analytically  !
 ! D43   D(4,7,8,22)           177.1373         calculate D2E/DX2 analytically  !
 ! D44   D(4,7,8,23)            57.8917         calculate D2E/DX2 analytically  !
 ! D45   D(4,7,8,24)           -63.9388         calculate D2E/DX2 analytically  !
 ! D46   D(20,7,8,22)           54.06           calculate D2E/DX2 analytically  !
 ! D47   D(20,7,8,23)          -65.1855         calculate D2E/DX2 analytically  !
 ! D48   D(20,7,8,24)          172.984          calculate D2E/DX2 analytically  !
 ! D49   D(21,7,8,22)          -59.5421         calculate D2E/DX2 analytically  !
 ! D50   D(21,7,8,23)         -178.7876         calculate D2E/DX2 analytically  !
 ! D51   D(21,7,8,24)           59.3818         calculate D2E/DX2 analytically  !
 --------------------------------------------------------------------------------
 Trust Radius=3.00D-01 FncErr=1.00D-07 GrdErr=1.00D-06 EigMax=2.50D+02 EigMin=1.00D-04
 Number of steps in this run=    126 maximum allowed number of steps=    144.
 GradGradGradGradGradGradGradGradGradGradGradGradGradGradGradGradGradGrad

                          Input orientation:                          
 ---------------------------------------------------------------------
 Center     Atomic      Atomic             Coordinates (Angstroms)
 Number     Number       Type             X           Y           Z
 ---------------------------------------------------------------------
      1          7           0        2.459564   -1.265479   -0.123697
      2          6           0        1.662484   -1.027543    1.087107
      3          6           0        0.667168    0.143205    0.906427
      4          7           0        0.000228    0.134980   -0.415698
      5          6           0       -1.312862   -0.532300   -0.404007
      6          6           0       -1.251130   -2.032270   -0.146358
      7          6           0       -0.098398    1.491632   -0.985583
      8          6           0       -0.959563    2.489225   -0.214372
      9          1           0        2.995276   -0.421084   -0.323188
     10          1           0        1.781111   -1.295651   -0.893973
     11          1           0        1.132150   -1.950371    1.335452
     12          1           0        2.334320   -0.812933    1.925239
     13          1           0       -0.055491    0.162905    1.731370
     14          1           0        1.267487    1.057833    1.008454
     15          1           0       -1.781377   -0.404355   -1.388334
     16          1           0       -1.986942   -0.074161    0.329777
     17          1           0       -2.228223   -2.483871   -0.349293
     18          1           0       -0.518199   -2.520422   -0.796566
     19          1           0       -1.006355   -2.251865    0.896175
     20          1           0        0.913629    1.903950   -1.088825
     21          1           0       -0.477797    1.418915   -2.012859
     22          1           0       -0.915613    3.468670   -0.702439
     23          1           0       -0.611776    2.617711    0.815025
     24          1           0       -2.009690    2.183278   -0.189831
 ---------------------------------------------------------------------
                    Distance matrix (angstroms):
                    1          2          3          4          5
     1  N    0.000000
     2  C    1.469012   0.000000
     3  C    2.501645   1.547239   0.000000
     4  N    2.845151   2.524475   1.480842   0.000000
     5  C    3.853223   3.364724   2.468616   1.472958   0.000000
     6  C    3.789160   3.319648   3.085599   2.517025   1.523189
     7  C    3.858455   3.707153   2.446231   1.474788   2.430936
     8  C    5.079021   4.575657   3.066962   2.550334   3.048015
     9  H    1.019699   2.032992   2.692668   3.047635   4.310331
    10  H    1.026904   2.002656   2.559808   2.333880   3.224197
    11  H    2.088114   1.092950   2.187082   2.948977   3.318845
    12  H    2.102052   1.095393   2.175218   3.438969   4.336598
    13  H    3.436140   2.187162   1.096885   2.147973   2.573738
    14  H    2.846153   2.123911   1.098788   2.117974   3.343915
    15  H    4.508483   4.286764   3.400165   2.100242   1.097623
    16  H    4.625612   3.847180   2.724715   2.132678   1.096682
    17  H    4.848785   4.395650   4.106294   3.439300   2.156272
    18  H    3.300713   3.245349   3.376416   2.732212   2.176746
    19  H    3.745088   2.942468   2.921839   2.903661   2.177458
    20  H    3.656046   3.726810   2.672451   2.101584   3.370690
    21  H    4.404882   4.491742   3.385352   2.104262   2.663265
    22  H    5.842853   5.483155   4.019001   3.469074   4.031703
    23  H    5.039196   4.305132   2.786976   2.837813   3.449656
    24  H    5.645576   5.042301   3.539668   2.878596   2.811726
                    6          7          8          9         10
     6  C    0.000000
     7  C    3.801444   0.000000
     8  C    4.531397   1.526946   0.000000
     9  H    4.545234   3.697035   4.911465   0.000000
    10  H    3.208742   3.363018   4.722123   1.601517   0.000000
    11  H    2.807579   4.329992   5.146575   2.925926   2.412498
    12  H    4.316683   4.438695   5.131457   2.376096   2.913248
    13  H    3.126374   3.024762   3.164652   3.724169   3.520358
    14  H    4.150393   2.455607   2.916152   2.635473   3.069515
    15  H    2.115130   2.566981   3.228989   4.893999   3.705418
    16  H    2.145300   2.783608   2.814704   5.036785   4.145820
    17  H    1.095370   4.554738   5.134140   5.616112   4.217026
    18  H    1.094646   4.038382   5.062639   4.120171   2.606987
    19  H    1.093167   4.287093   4.869645   4.566361   3.448034
    20  H    4.590017   1.097663   2.148502   3.213291   3.320835
    21  H    3.999068   1.097510   2.147608   4.278179   3.704516
    22  H    5.539146   2.157937   1.095196   5.528930   5.477934
    23  H    4.791175   2.184903   1.094131   4.851869   4.894996
    24  H    4.283474   2.182804   1.094063   5.643596   5.193163
                   11         12         13         14         15
    11  H    0.000000
    12  H    1.756936   0.000000
    13  H    2.456253   2.588637   0.000000
    14  H    3.028949   2.340596   1.753218   0.000000
    15  H    4.277595   5.299591   3.610127   4.144654   0.000000
    16  H    3.776279   4.665253   2.398159   3.511883   1.761587
    17  H    3.796723   5.364917   4.006913   5.158210   2.367206
    18  H    2.755742   4.296581   3.715481   4.387559   2.534471
    19  H    2.203875   3.780159   2.726317   4.017096   3.038574
    20  H    4.558581   4.299348   3.453104   2.289041   3.561044
    21  H    5.015496   5.328955   3.971795   3.507810   2.326728
    22  H    6.141037   5.983217   4.194201   3.674945   4.027446
    23  H    4.917265   4.656326   2.678659   2.449952   3.918627
    24  H    5.411534   5.685176   3.404675   3.666389   2.860836
                   16         17         18         19         20
    16  H    0.000000
    17  H    2.515165   0.000000
    18  H    3.067579   1.767929   0.000000
    19  H    2.454537   1.760109   1.782075   0.000000
    20  H    3.786643   5.447120   4.659465   4.989725   0.000000
    21  H    3.161445   4.589464   4.123030   4.713436   1.739300
    22  H    3.842508   6.105768   6.003001   5.940397   2.437984
    23  H    3.061490   5.476739   5.385758   4.886210   2.541841
    24  H    2.316580   4.674983   4.971666   4.675103   3.071157
                   21         22         23         24
    21  H    0.000000
    22  H    2.471918   0.000000
    23  H    3.074409   1.766111   0.000000
    24  H    2.500876   1.764088   1.775565   0.000000
 Stoichiometry    C6H16N2
 Framework group  C1[X(C6H16N2)]
 Deg. of freedom    66
 Full point group                 C1      NOp   1
 Largest Abelian subgroup         C1      NOp   1
 Largest concise Abelian subgroup C1      NOp   1
                         Standard orientation:                         
 ---------------------------------------------------------------------
 Center     Atomic      Atomic             Coordinates (Angstroms)
 Number     Number       Type             X           Y           Z
 ---------------------------------------------------------------------
      1          7           0       -2.276680   -1.068876   -0.759583
      2          6           0       -1.899007   -0.741295    0.621739
      3          6           0       -0.364211   -0.662667    0.801085
      4          7           0        0.313812    0.023452   -0.322489
      5          6           0        0.552613    1.455593   -0.074399
      6          6           0       -0.714247    2.297615    0.004140
      7          6           0        1.560112   -0.663698   -0.709223
      8          6           0        2.667843   -0.699294    0.341123
      9          1           0       -1.882907   -1.980946   -0.989491
     10          1           0       -1.732995   -0.427567   -1.349211
     11          1           0       -2.368216    0.208814    0.889462
     12          1           0       -2.309826   -1.499033    1.297719
     13          1           0       -0.113876   -0.211985    1.769266
     14          1           0       -0.020741   -1.705003    0.854936
     15          1           0        1.145969    1.862196   -0.903482
     16          1           0        1.138077    1.610149    0.839963
     17          1           0       -0.453906    3.361487   -0.011189
     18          1           0       -1.376154    2.105433   -0.846269
     19          1           0       -1.262287    2.114638    0.932140
     20          1           0        1.317463   -1.693347   -1.002153
     21          1           0        1.954364   -0.198048   -1.621507
     22          1           0        3.517879   -1.275812   -0.039033
     23          1           0        2.335109   -1.174824    1.268637
     24          1           0        3.033499    0.304297    0.577924
 ---------------------------------------------------------------------
 Rotational constants (GHZ):           2.3302266           1.4545129           1.0759036
 Standard basis: 6-31G(d,p) (6D, 7F)
 There are   200 symmetry adapted cartesian basis functions of A   symmetry.
 There are   200 symmetry adapted basis functions of A   symmetry.
   200 basis functions,   336 primitive gaussians,   200 cartesian basis functions
    33 alpha electrons       33 beta electrons
       nuclear repulsion energy       422.0845305401 Hartrees.
 NAtoms=   24 NActive=   24 NUniq=   24 SFac= 1.00D+00 NAtFMM=   60 NAOKFM=F Big=F
 Integral buffers will be    131072 words long.
 Raffenetti 2 integral format.
 Two-electron integral symmetry is turned on.
 Force inversion solution in PCM.
 ------------------------------------------------------------------------------
 Polarizable Continuum Model (PCM)
 =================================
 Model                : PCM.
 Atomic radii         : UFF (Universal Force Field).
 Polarization charges : Total charges.
 Charge compensation  : None.
 Solution method      : Matrix inversion.
 Cavity type          : Scaled VdW (van der Waals Surface) (Alpha=1.100).
 Cavity algorithm     : GePol (No added spheres)
                        Default sphere list used, NSphG=   24.
                        Lebedev-Laikov grids with approx.  5.0 points / Ang**2.
                        Smoothing algorithm: York/Karplus (Gamma=1.0000).
                        Polarization charges: spherical gaussians, with
                                              point-specific exponents (IZeta= 3).
                        Self-potential: point-specific (ISelfS= 7).
                        Self-field    : sphere-specific E.n sum rule (ISelfD= 2).
 1st derivatives      : Analytical E(r).r(x)/FMM algorithm (CHGder, D1EAlg=3).
                        Cavity 1st derivative terms included.
 2nd derivatives      : Analytical E(r).r(xy)/FMM algorithm (CHGder, D2EAlg=3).
                        Cavity 2nd derivative terms included.
 Solvent              : Water, Eps=  78.355300 Eps(inf)=   1.777849
 ------------------------------------------------------------------------------
 One-electron integrals computed using PRISM.
 NBasis=   200 RedAO= T EigKep=  3.81D-03  NBF=   200
 NBsUse=   200 1.00D-06 EigRej= -1.00D+00 NBFU=   200
 ExpMin= 1.61D-01 ExpMax= 4.17D+03 ExpMxC= 6.27D+02 IAcc=3 IRadAn=         5 AccDes= 0.00D+00
 Harris functional with IExCor=  402 and IRadAn=       5 diagonalized for initial guess.
 HarFok:  IExCor=  402 AccDes= 0.00D+00 IRadAn=         5 IDoV= 1 UseB2=F ITyADJ=14
 ICtDFT=  3500011 ScaDFX=  1.000000  1.000000  1.000000  1.000000
 FoFCou: FMM=F IPFlag=           0 FMFlag=      100000 FMFlg1=           0
         NFxFlg=           0 DoJE=T BraDBF=F KetDBF=T FulRan=T
         wScrn=  0.000000 ICntrl=       500 IOpCl=  0 I1Cent=   200000004 NGrid=           0
         NMat0=    1 NMatS0=      1 NMatT0=    0 NMatD0=    1 NMtDS0=    0 NMtDT0=    0
 Petite list used in FoFCou.
 Keep R1 ints in memory in canonical form, NReq=206134434.
 Requested convergence on RMS density matrix=1.00D-08 within  32 cycles.
 Requested convergence on MAX density matrix=1.00D-06.
 Requested convergence on             energy=1.00D-06.
 No special actions if energy rises.
 Inv3:  Mode=1 IEnd=     7718448.
 Iteration    1 A*A^-1 deviation from unit magnitude is 5.55D-15 for    506.
 Iteration    1 A*A^-1 deviation from orthogonality  is 3.28D-15 for   1423    956.
 Iteration    1 A^-1*A deviation from unit magnitude is 5.77D-15 for    506.
 Iteration    1 A^-1*A deviation from orthogonality  is 8.39D-12 for   1319   1266.
 Error on total polarization charges =  0.00949
 SCF Done:  E(RB3LYP) =  -347.782871141     A.U. after   11 cycles
            NFock= 11  Conv=0.55D-08     -V/T= 2.0099
 QCSCF skips out because SCF is already converged.
 DoSCS=F DFT=T ScalE2(SS,OS)=  1.000000  1.000000
 Range of M.O.s used for correlation:     1   200
 NBasis=   200 NAE=    33 NBE=    33 NFC=     0 NFV=     0
 NROrb=    200 NOA=    33 NOB=    33 NVA=   167 NVB=   167
 Symmetrizing basis deriv contribution to polar:
 IMax=3 JMax=2 DiffMx= 0.00D+00
 G2DrvN: will do    25 centers at a time, making    1 passes.
 Calling FoFCou, ICntrl=  3107 FMM=F I1Cent=   0 AccDes= 0.00D+00.
 NEqPCM:  Using equilibrium solvation (IEInf=0, Eps=  78.3553, EpsInf=   1.7778)
 G2PCM: DoFxE=T DoFxN=T DoGrad=T DoDP/DQ/DG/TGxP=FFFF NFrqRd=   0 IEInf=0 SqF1=F DoCFld=F IF1Alg=4.
 End of G2Drv F.D. properties file   721 does not exist.
 End of G2Drv F.D. properties file   722 does not exist.
 End of G2Drv F.D. properties file   788 does not exist.
          IDoAtm=111111111111111111111111
 NEqPCM:  Using equilibrium solvation (IEInf=0, Eps=  78.3553, EpsInf=   1.7778)
          Differentiating once with respect to nuclear coordinates.
 Keep R1 ints in memory in canonical form, NReq=209235183.
          There are    75 degrees of freedom in the 1st order CPHF.  IDoFFX=6 NUNeed=     0.
     69 vectors produced by pass  0 Test12= 7.35D-15 1.33D-09 XBig12= 8.05D-02 7.03D-02.
 AX will form    69 AO Fock derivatives at one time.
     69 vectors produced by pass  1 Test12= 7.35D-15 1.33D-09 XBig12= 1.30D-02 2.67D-02.
     69 vectors produced by pass  2 Test12= 7.35D-15 1.33D-09 XBig12= 2.48D-04 2.92D-03.
     69 vectors produced by pass  3 Test12= 7.35D-15 1.33D-09 XBig12= 7.00D-07 1.19D-04.
     69 vectors produced by pass  4 Test12= 7.35D-15 1.33D-09 XBig12= 7.11D-10 3.25D-06.
     27 vectors produced by pass  5 Test12= 7.35D-15 1.33D-09 XBig12= 5.19D-13 7.92D-08.
      1 vectors produced by pass  6 Test12= 7.35D-15 1.33D-09 XBig12= 3.14D-16 1.65D-09.
 InvSVY:  IOpt=1 It=  1 EMax= 5.55D-16
 Solved reduced A of dimension   373 with    75 vectors.
 End of Minotr F.D. properties file   721 does not exist.
 End of Minotr F.D. properties file   722 does not exist.
 End of Minotr F.D. properties file   788 does not exist.

 **********************************************************************

            Population analysis using the SCF density.

 **********************************************************************

 Orbital symmetries:
       Occupied  (A) (A) (A) (A) (A) (A) (A) (A) (A) (A) (A) (A)
                 (A) (A) (A) (A) (A) (A) (A) (A) (A) (A) (A) (A)
                 (A) (A) (A) (A) (A) (A) (A) (A) (A)
       Virtual   (A) (A) (A) (A) (A) (A) (A) (A) (A) (A) (A) (A)
                 (A) (A) (A) (A) (A) (A) (A) (A) (A) (A) (A) (A)
                 (A) (A) (A) (A) (A) (A) (A) (A) (A) (A) (A) (A)
                 (A) (A) (A) (A) (A) (A) (A) (A) (A) (A) (A) (A)
                 (A) (A) (A) (A) (A) (A) (A) (A) (A) (A) (A) (A)
                 (A) (A) (A) (A) (A) (A) (A) (A) (A) (A) (A) (A)
                 (A) (A) (A) (A) (A) (A) (A) (A) (A) (A) (A) (A)
                 (A) (A) (A) (A) (A) (A) (A) (A) (A) (A) (A) (A)
                 (A) (A) (A) (A) (A) (A) (A) (A) (A) (A) (A) (A)
                 (A) (A) (A) (A) (A) (A) (A) (A) (A) (A) (A) (A)
                 (A) (A) (A) (A) (A) (A) (A) (A) (A) (A) (A) (A)
                 (A) (A) (A) (A) (A) (A) (A) (A) (A) (A) (A) (A)
                 (A) (A) (A) (A) (A) (A) (A) (A) (A) (A) (A) (A)
                 (A) (A) (A) (A) (A) (A) (A) (A) (A) (A) (A)
 The electronic state is 1-A.
 Alpha  occ. eigenvalues --  -14.32193 -14.30107 -10.20271 -10.20215 -10.19891
 Alpha  occ. eigenvalues --  -10.19697 -10.17137 -10.16871  -0.91414  -0.86423
 Alpha  occ. eigenvalues --   -0.75622  -0.73325  -0.69168  -0.61907  -0.61170
 Alpha  occ. eigenvalues --   -0.55419  -0.48761  -0.46653  -0.46277  -0.45308
 Alpha  occ. eigenvalues --   -0.42753  -0.40572  -0.39786  -0.38750  -0.37549
 Alpha  occ. eigenvalues --   -0.37251  -0.36198  -0.35307  -0.33070  -0.32769
 Alpha  occ. eigenvalues --   -0.31985  -0.23349  -0.21100
 Alpha virt. eigenvalues --    0.07894   0.10280   0.10849   0.12134   0.13138
 Alpha virt. eigenvalues --    0.14601   0.15120   0.16372   0.16524   0.17294
 Alpha virt. eigenvalues --    0.18198   0.18708   0.19576   0.20102   0.21338
 Alpha virt. eigenvalues --    0.21835   0.23625   0.24498   0.25332   0.26738
 Alpha virt. eigenvalues --    0.27725   0.29038   0.31059   0.49569   0.49675
 Alpha virt. eigenvalues --    0.52162   0.53647   0.54988   0.56750   0.56994
 Alpha virt. eigenvalues --    0.57418   0.60395   0.61968   0.64153   0.66438
 Alpha virt. eigenvalues --    0.68524   0.69214   0.72075   0.73275   0.76413
 Alpha virt. eigenvalues --    0.78005   0.78559   0.82102   0.83094   0.84645
 Alpha virt. eigenvalues --    0.85568   0.86921   0.87417   0.87951   0.88406
 Alpha virt. eigenvalues --    0.88978   0.89922   0.92016   0.92487   0.94996
 Alpha virt. eigenvalues --    0.95999   0.96778   0.98219   0.99434   1.01138
 Alpha virt. eigenvalues --    1.02275   1.05341   1.06673   1.12827   1.17592
 Alpha virt. eigenvalues --    1.25572   1.28581   1.31556   1.36061   1.41576
 Alpha virt. eigenvalues --    1.43842   1.47375   1.48989   1.52308   1.57304
 Alpha virt. eigenvalues --    1.59037   1.62600   1.64024   1.67697   1.70447
 Alpha virt. eigenvalues --    1.75697   1.79923   1.84779   1.85424   1.86629
 Alpha virt. eigenvalues --    1.88864   1.91717   1.93579   1.95296   1.97534
 Alpha virt. eigenvalues --    2.00620   2.01809   2.03708   2.05203   2.06016
 Alpha virt. eigenvalues --    2.07629   2.08164   2.09126   2.10396   2.12431
 Alpha virt. eigenvalues --    2.14312   2.17392   2.18879   2.19702   2.24756
 Alpha virt. eigenvalues --    2.25446   2.26330   2.27078   2.27757   2.29626
 Alpha virt. eigenvalues --    2.32638   2.34394   2.36365   2.37907   2.38471
 Alpha virt. eigenvalues --    2.43621   2.46757   2.47466   2.50465   2.52721
 Alpha virt. eigenvalues --    2.55584   2.59142   2.62654   2.64535   2.66347
 Alpha virt. eigenvalues --    2.70879   2.71363   2.73977   2.74971   2.75613
 Alpha virt. eigenvalues --    2.79314   2.80942   2.81992   2.84222   2.88291
 Alpha virt. eigenvalues --    2.88787   2.90464   2.92436   2.94858   2.97092
 Alpha virt. eigenvalues --    2.97262   2.98980   3.00693   3.19335   3.21420
 Alpha virt. eigenvalues --    3.25129   3.28998   3.32257   3.33535   3.34280
 Alpha virt. eigenvalues --    3.39032   3.40481   3.42715   3.47333   3.48441
 Alpha virt. eigenvalues --    3.50804   3.55742   3.56420   3.60370   3.97441
 Alpha virt. eigenvalues --    4.13148   4.38259   4.41756   4.45906   4.62235
 Alpha virt. eigenvalues --    4.64912   4.70589
          Condensed to atoms (all electrons):
               1          2          3          4          5          6
     1  N    6.784357   0.336450  -0.064980  -0.022552   0.000587  -0.000028
     2  C    0.336450   4.861099   0.351640  -0.060960   0.001194  -0.000890
     3  C   -0.064980   0.351640   4.926588   0.297273  -0.043289  -0.000007
     4  N   -0.022552  -0.060960   0.297273   6.887796   0.313118  -0.056832
     5  C    0.000587   0.001194  -0.043289   0.313118   4.775725   0.374320
     6  C   -0.000028  -0.000890  -0.000007  -0.056832   0.374320   4.971045
     7  C   -0.000397   0.002940  -0.043577   0.338815  -0.047965   0.004697
     8  C   -0.000002  -0.000150  -0.009281  -0.059644  -0.008648  -0.000006
     9  H    0.339753  -0.048090  -0.000789   0.001055   0.000002   0.000003
    10  H    0.335171  -0.053571  -0.012528   0.035690  -0.001056  -0.001054
    11  H   -0.041579   0.386706  -0.045369  -0.001780   0.000123   0.000518
    12  H   -0.034182   0.378579  -0.037093   0.003698  -0.000071   0.000005
    13  H    0.004851  -0.042733   0.348364  -0.042350  -0.010307  -0.002214
    14  H   -0.001617  -0.041026   0.383565  -0.037647   0.004572  -0.000052
    15  H    0.000036  -0.000167   0.005912  -0.041681   0.391973  -0.038236
    16  H   -0.000063  -0.000999  -0.012611  -0.048483   0.365732  -0.052607
    17  H   -0.000000   0.000131  -0.000220   0.003846  -0.026872   0.373240
    18  H   -0.000603  -0.000298  -0.001279   0.002489  -0.032430   0.377553
    19  H    0.000041  -0.003219   0.003267  -0.002748  -0.032318   0.386410
    20  H    0.000762   0.000403  -0.005120  -0.040372   0.005702  -0.000194
    21  H    0.000023  -0.000113   0.005978  -0.040666  -0.005669   0.000142
    22  H    0.000001   0.000004   0.000113   0.004248   0.000188  -0.000000
    23  H    0.000000  -0.000059   0.004912  -0.004670  -0.000613  -0.000024
    24  H   -0.000000  -0.000016  -0.000337  -0.003317   0.003368  -0.000112
               7          8          9         10         11         12
     1  N   -0.000397  -0.000002   0.339753   0.335171  -0.041579  -0.034182
     2  C    0.002940  -0.000150  -0.048090  -0.053571   0.386706   0.378579
     3  C   -0.043577  -0.009281  -0.000789  -0.012528  -0.045369  -0.037093
     4  N    0.338815  -0.059644   0.001055   0.035690  -0.001780   0.003698
     5  C   -0.047965  -0.008648   0.000002  -0.001056   0.000123  -0.000071
     6  C    0.004697  -0.000006   0.000003  -0.001054   0.000518   0.000005
     7  C    4.781968   0.342805  -0.000129  -0.000232  -0.000052  -0.000153
     8  C    0.342805   5.022914   0.000012   0.000155  -0.000009   0.000020
     9  H   -0.000129   0.000012   0.497852  -0.033818   0.006990  -0.006986
    10  H   -0.000232   0.000155  -0.033818   0.476816  -0.003947   0.007262
    11  H   -0.000052  -0.000009   0.006990  -0.003947   0.628004  -0.036504
    12  H   -0.000153   0.000020  -0.006986   0.007262  -0.036504   0.628239
    13  H   -0.000733   0.003422   0.000077   0.001043  -0.003985   0.003672
    14  H   -0.006469  -0.001490   0.003979  -0.000043   0.005819  -0.007454
    15  H   -0.003955  -0.002362  -0.000005  -0.000086  -0.000030   0.000005
    16  H   -0.005311   0.007203   0.000005   0.000264   0.000070   0.000024
    17  H   -0.000153   0.000016   0.000001   0.000005   0.000039  -0.000003
    18  H    0.000081   0.000022  -0.000013   0.003338   0.000209   0.000044
    19  H    0.000030  -0.000020   0.000002   0.000006   0.003244   0.000132
    20  H    0.389082  -0.052660   0.000443  -0.000383   0.000007  -0.000045
    21  H    0.390006  -0.052611   0.000000  -0.000115   0.000010   0.000003
    22  H   -0.022597   0.366641  -0.000000  -0.000002   0.000000  -0.000000
    23  H   -0.035101   0.388100   0.000001   0.000002   0.000006   0.000008
    24  H   -0.034042   0.387607   0.000000  -0.000001   0.000001  -0.000000
              13         14         15         16         17         18
     1  N    0.004851  -0.001617   0.000036  -0.000063  -0.000000  -0.000603
     2  C   -0.042733  -0.041026  -0.000167  -0.000999   0.000131  -0.000298
     3  C    0.348364   0.383565   0.005912  -0.012611  -0.000220  -0.001279
     4  N   -0.042350  -0.037647  -0.041681  -0.048483   0.003846   0.002489
     5  C   -0.010307   0.004572   0.391973   0.365732  -0.026872  -0.032430
     6  C   -0.002214  -0.000052  -0.038236  -0.052607   0.373240   0.377553
     7  C   -0.000733  -0.006469  -0.003955  -0.005311  -0.000153   0.000081
     8  C    0.003422  -0.001490  -0.002362   0.007203   0.000016   0.000022
     9  H    0.000077   0.003979  -0.000005   0.000005   0.000001  -0.000013
    10  H    0.001043  -0.000043  -0.000086   0.000264   0.000005   0.003338
    11  H   -0.003985   0.005819  -0.000030   0.000070   0.000039   0.000209
    12  H    0.003672  -0.007454   0.000005   0.000024  -0.000003   0.000044
    13  H    0.674937  -0.034306  -0.000007   0.013399   0.000049   0.000335
    14  H   -0.034306   0.622204  -0.000277   0.000235   0.000004  -0.000012
    15  H   -0.000007  -0.000277   0.632042  -0.046486  -0.006472  -0.004453
    16  H    0.013399   0.000235  -0.046486   0.693708   0.001428   0.006324
    17  H    0.000049   0.000004  -0.006472   0.001428   0.606179  -0.028239
    18  H    0.000335  -0.000012  -0.004453   0.006324  -0.028239   0.600244
    19  H    0.001088  -0.000051   0.005522  -0.007200  -0.029755  -0.033501
    20  H   -0.000288   0.003937   0.000280  -0.000393   0.000003  -0.000023
    21  H   -0.000387   0.000355   0.006282  -0.001023  -0.000020  -0.000027
    22  H   -0.000071  -0.000132  -0.000005  -0.000296  -0.000000   0.000000
    23  H   -0.000237   0.002249   0.000077   0.000651   0.000000   0.000000
    24  H    0.000076   0.000081   0.000822   0.000301   0.000008  -0.000002
              19         20         21         22         23         24
     1  N    0.000041   0.000762   0.000023   0.000001   0.000000  -0.000000
     2  C   -0.003219   0.000403  -0.000113   0.000004  -0.000059  -0.000016
     3  C    0.003267  -0.005120   0.005978   0.000113   0.004912  -0.000337
     4  N   -0.002748  -0.040372  -0.040666   0.004248  -0.004670  -0.003317
     5  C   -0.032318   0.005702  -0.005669   0.000188  -0.000613   0.003368
     6  C    0.386410  -0.000194   0.000142  -0.000000  -0.000024  -0.000112
     7  C    0.000030   0.389082   0.390006  -0.022597  -0.035101  -0.034042
     8  C   -0.000020  -0.052660  -0.052611   0.366641   0.388100   0.387607
     9  H    0.000002   0.000443   0.000000  -0.000000   0.000001   0.000000
    10  H    0.000006  -0.000383  -0.000115  -0.000002   0.000002  -0.000001
    11  H    0.003244   0.000007   0.000010   0.000000   0.000006   0.000001
    12  H    0.000132  -0.000045   0.000003  -0.000000   0.000008  -0.000000
    13  H    0.001088  -0.000288  -0.000387  -0.000071  -0.000237   0.000076
    14  H   -0.000051   0.003937   0.000355  -0.000132   0.002249   0.000081
    15  H    0.005522   0.000280   0.006282  -0.000005   0.000077   0.000822
    16  H   -0.007200  -0.000393  -0.001023  -0.000296   0.000651   0.000301
    17  H   -0.029755   0.000003  -0.000020  -0.000000   0.000000   0.000008
    18  H   -0.033501  -0.000023  -0.000027   0.000000   0.000000  -0.000002
    19  H    0.595276   0.000007  -0.000002  -0.000000  -0.000001   0.000010
    20  H    0.000007   0.635307  -0.034834  -0.001804  -0.004829   0.005343
    21  H   -0.000002  -0.034834   0.634233  -0.000849   0.005274  -0.005444
    22  H   -0.000000  -0.001804  -0.000849   0.610564  -0.030001  -0.029973
    23  H   -0.000001  -0.004829   0.005274  -0.030001   0.595513  -0.032450
    24  H    0.000010   0.005343  -0.005444  -0.029973  -0.032450   0.596509
 Mulliken charges:
               1
     1  N   -0.636029
     2  C   -0.066856
     3  C   -0.051133
     4  N   -0.424329
     5  C   -0.027368
     6  C   -0.335679
     7  C   -0.049560
     8  C   -0.332033
     9  H    0.239656
    10  H    0.247085
    11  H    0.101510
    12  H    0.100799
    13  H    0.086305
    14  H    0.103577
    15  H    0.101272
    16  H    0.086127
    17  H    0.106786
    18  H    0.110239
    19  H    0.113779
    20  H    0.099669
    21  H    0.099454
    22  H    0.103973
    23  H    0.111190
    24  H    0.111566
 Sum of Mulliken charges =  -0.00000
 Mulliken charges with hydrogens summed into heavy atoms:
               1
     1  N   -0.149288
     2  C    0.135452
     3  C    0.138750
     4  N   -0.424329
     5  C    0.160030
     6  C   -0.004873
     7  C    0.149563
     8  C   -0.005304
 APT charges:
               1
     1  N   -0.662987
     2  C   -0.806389
     3  C   -0.570697
     4  N   -0.323295
     5  C   -0.676872
     6  C   -1.114960
     7  C   -0.706531
     8  C   -1.193248
     9  H    0.442627
    10  H    0.169610
    11  H    0.338180
    12  H    0.509485
    13  H    0.299665
    14  H    0.378585
    15  H    0.430589
    16  H    0.309153
    17  H    0.572755
    18  H    0.300016
    19  H    0.298118
    20  H    0.368271
    21  H    0.419196
    22  H    0.594836
    23  H    0.275612
    24  H    0.348281
 Sum of APT charges =  -0.00000
 APT charges with hydrogens summed into heavy atoms:
               1
     1  N   -0.050751
     2  C    0.041275
     3  C    0.107554
     4  N   -0.323295
     5  C    0.062870
     6  C    0.055929
     7  C    0.080936
     8  C    0.025482
 Electronic spatial extent (au):  <R**2>=           1249.7891
 Charge=             -0.0000 electrons
 Dipole moment (field-independent basis, Debye):
    X=              2.8026    Y=              0.0545    Z=              0.9170  Tot=              2.9493
 Quadrupole moment (field-independent basis, Debye-Ang):
   XX=            -61.5633   YY=            -49.0770   ZZ=            -52.4340
   XY=             -1.8303   XZ=             -3.7174   YZ=             -0.5414
 Traceless Quadrupole moment (field-independent basis, Debye-Ang):
   XX=             -7.2052   YY=              5.2811   ZZ=              1.9241
   XY=             -1.8303   XZ=             -3.7174   YZ=             -0.5414
 Octapole moment (field-independent basis, Debye-Ang**2):
  XXX=             32.8478  YYY=             -6.4942  ZZZ=             -2.9116  XYY=             -0.1422
  XXY=              7.8938  XXZ=              7.3058  XZZ=             -0.1250  YZZ=             -1.4174
  YYZ=             -2.2856  XYZ=              2.8575
 Hexadecapole moment (field-independent basis, Debye-Ang**3):
 XXXX=          -1032.8757 YYYY=           -535.0655 ZZZZ=           -203.0364 XXXY=            -32.2988
 XXXZ=            -40.1860 YYYX=             14.9261 YYYZ=              4.2088 ZZZX=              0.2770
 ZZZY=              1.1667 XXYY=           -249.7643 XXZZ=           -192.1242 YYZZ=           -124.6582
 XXYZ=             -8.3989 YYXZ=             -1.8331 ZZXY=              1.0908
 N-N= 4.220845305401D+02 E-N=-1.649759258307D+03  KE= 3.443865605210D+02
  Exact polarizability:   0.000   0.000   0.000   0.000   0.000   0.000
 Approx polarizability: 105.130   1.142 110.714  -2.451   0.552 106.623
 D2PCM: PCM CHGder 2nd derivatives, FixD1E=F FixD2E=F DoIter=F DoCFld=F I1PDM=0
 Calling FoFJK, ICntrl=    100147 FMM=F ISym2X=0 I1Cent= 0 IOpClX= 0 NMat=1 NMatS=1 NMatT=0.
 ***** Axes restored to original set *****
 -------------------------------------------------------------------
 Center     Atomic                   Forces (Hartrees/Bohr)
 Number     Number              X              Y              Z
 -------------------------------------------------------------------
      1        7           0.001066900   -0.004581254   -0.002552823
      2        6          -0.002325350    0.000746268   -0.007608598
      3        6           0.004551982    0.000283789    0.000669556
      4        7          -0.002332697    0.003617917    0.003451882
      5        6           0.001465861   -0.002618492   -0.004754463
      6        6          -0.000796710   -0.003284052    0.003245826
      7        6           0.003550842    0.000696707   -0.003941180
      8        6          -0.002903460    0.004512225    0.000118126
      9        1           0.001624154    0.000730457    0.001140251
     10        1           0.003370510    0.000537915    0.003550020
     11        1           0.000134490   -0.001456786   -0.000095559
     12        1          -0.000738622    0.000788608    0.000548255
     13        1          -0.002610791   -0.000294641    0.002704556
     14        1          -0.003562868    0.000685442   -0.003897502
     15        1           0.002823614    0.004816485   -0.000054845
     16        1          -0.003618866    0.001190134    0.002626512
     17        1          -0.000208967    0.000531215    0.000387605
     18        1           0.000401334    0.000256641    0.000431238
     19        1           0.001204984   -0.001835197   -0.000277132
     20        1           0.000837493   -0.002666500    0.002256776
     21        1          -0.001240643   -0.003354377    0.000536910
     22        1          -0.000252298    0.000420315    0.000131778
     23        1          -0.000343679   -0.000109114    0.000398926
     24        1          -0.000097211    0.000386295    0.000983884
 -------------------------------------------------------------------
 Cartesian Forces:  Max     0.007608598 RMS     0.002404083
 FormGI is forming the generalized inverse of G from B-inverse, IUseBI=4.

 GradGradGradGradGradGradGradGradGradGradGradGradGradGradGradGradGradGrad
 Berny optimization.
 Internal  Forces:  Max     0.012581848 RMS     0.002333169
 Search for a local minimum.
 Step number   1 out of a maximum of  126
 All quantities printed in internal units (Hartrees-Bohrs-Radians)
 Mixed Optimization -- RFO/linear search
 Second derivative matrix not updated -- analytic derivatives used.
 ITU=  0
     Eigenvalues ---    0.00222   0.00229   0.00262   0.00351   0.00404
     Eigenvalues ---    0.00471   0.00834   0.02420   0.04066   0.04320
     Eigenvalues ---    0.04451   0.04477   0.04508   0.04543   0.04603
     Eigenvalues ---    0.04617   0.04704   0.04846   0.04906   0.05096
     Eigenvalues ---    0.05618   0.08050   0.08460   0.08573   0.08975
     Eigenvalues ---    0.11475   0.11681   0.11962   0.12295   0.12376
     Eigenvalues ---    0.12528   0.13851   0.13947   0.15531   0.16202
     Eigenvalues ---    0.16232   0.19007   0.19076   0.20099   0.22978
     Eigenvalues ---    0.23550   0.24715   0.26202   0.28266   0.29877
     Eigenvalues ---    0.30624   0.31852   0.32421   0.32580   0.32826
     Eigenvalues ---    0.32929   0.33167   0.33406   0.33497   0.33705
     Eigenvalues ---    0.33792   0.33910   0.33937   0.34593   0.34684
     Eigenvalues ---    0.34883   0.36621   0.36852   0.40810   0.42464
     Eigenvalues ---    0.43897
 RFO step:  Lambda=-4.80112398D-03 EMin= 2.22253178D-03
 Linear search not attempted -- first point.
 Iteration  1 RMS(Cart)=  0.11168927 RMS(Int)=  0.00482996
 Iteration  2 RMS(Cart)=  0.00735155 RMS(Int)=  0.00015259
 Iteration  3 RMS(Cart)=  0.00003353 RMS(Int)=  0.00015027
 Iteration  4 RMS(Cart)=  0.00000000 RMS(Int)=  0.00015027
 Variable       Old X    -DE/DX   Delta X   Delta X   Delta X     New X
                                 (Linear)    (Quad)   (Total)
    R1        2.77603   0.00206   0.00000   0.00037   0.00037   2.77640
    R2        1.92695   0.00123   0.00000   0.00203   0.00203   1.92899
    R3        1.94057  -0.00491   0.00000  -0.00897  -0.00897   1.93160
    R4        2.92386   0.00388   0.00000  -0.00733  -0.00733   2.91653
    R5        2.06538   0.00114   0.00000   0.00365   0.00365   2.06903
    R6        2.06999   0.00012   0.00000   0.00238   0.00238   2.07237
    R7        2.79839  -0.00427   0.00000  -0.01465  -0.01465   2.78373
    R8        2.07281   0.00375   0.00000   0.01146   0.01146   2.08427
    R9        2.07641  -0.00174   0.00000  -0.00477  -0.00477   2.07164
   R10        2.78349  -0.00069   0.00000  -0.00751  -0.00751   2.77598
   R11        2.78695  -0.00026   0.00000  -0.00640  -0.00640   2.78054
   R12        2.87841   0.00493   0.00000   0.01105   0.01105   2.88946
   R13        2.07421  -0.00059   0.00000  -0.00212  -0.00212   2.07209
   R14        2.07243   0.00448   0.00000   0.01609   0.01609   2.08852
   R15        2.06995  -0.00010   0.00000  -0.00048  -0.00048   2.06947
   R16        2.06858  -0.00010   0.00000  -0.00001  -0.00001   2.06857
   R17        2.06579   0.00038   0.00000   0.00122   0.00122   2.06701
   R18        2.88551   0.00625   0.00000   0.01871   0.01871   2.90422
   R19        2.07428  -0.00044   0.00000  -0.00256  -0.00256   2.07172
   R20        2.07399   0.00015   0.00000  -0.00037  -0.00037   2.07362
   R21        2.06962   0.00031   0.00000   0.00021   0.00021   2.06983
   R22        2.06761   0.00025   0.00000   0.00170   0.00170   2.06931
   R23        2.06748   0.00001   0.00000   0.00043   0.00043   2.06791
    A1        1.88829  -0.00095   0.00000   0.00099   0.00098   1.88927
    A2        1.83851   0.00044   0.00000   0.00179   0.00177   1.84028
    A3        1.79741   0.00053   0.00000   0.02206   0.02202   1.81943
    A4        1.95557   0.01258   0.00000   0.03366   0.03365   1.98923
    A5        1.89000  -0.00314   0.00000  -0.00152  -0.00159   1.88841
    A6        1.90667  -0.00461   0.00000  -0.00823  -0.00809   1.89858
    A7        1.93187  -0.00293   0.00000  -0.00730  -0.00750   1.92437
    A8        1.91309  -0.00412   0.00000  -0.01567  -0.01568   1.89741
    A9        1.86416   0.00169   0.00000  -0.00254  -0.00268   1.86148
   A10        1.97119   0.00289   0.00000  -0.00784  -0.00787   1.96331
   A11        1.92792  -0.00075   0.00000  -0.00455  -0.00467   1.92325
   A12        1.84165   0.00215   0.00000   0.03028   0.03028   1.87192
   A13        1.95503  -0.00187   0.00000  -0.00644  -0.00654   1.94849
   A14        1.91090  -0.00301   0.00000  -0.01385  -0.01381   1.89710
   A15        1.84956   0.00063   0.00000   0.00524   0.00512   1.85468
   A16        1.97896  -0.00049   0.00000   0.01370   0.01277   1.99173
   A17        1.94982   0.00170   0.00000   0.02769   0.02702   1.97684
   A18        1.93926   0.00011   0.00000   0.01670   0.01583   1.95509
   A19        1.99471   0.00098   0.00000   0.00016   0.00018   1.99489
   A20        1.89715  -0.00438   0.00000  -0.02944  -0.02946   1.86770
   A21        1.94336   0.00099   0.00000   0.00701   0.00699   1.95035
   A22        1.85853   0.00420   0.00000   0.03372   0.03376   1.89229
   A23        1.89982  -0.00146   0.00000  -0.00473  -0.00474   1.89508
   A24        1.86395  -0.00029   0.00000  -0.00621  -0.00631   1.85765
   A25        1.91613  -0.00084   0.00000  -0.00210  -0.00211   1.91401
   A26        1.94530  -0.00071   0.00000  -0.00960  -0.00959   1.93571
   A27        1.94788   0.00269   0.00000   0.00974   0.00974   1.95762
   A28        1.87901   0.00069   0.00000   0.01116   0.01116   1.89017
   A29        1.86879  -0.00048   0.00000   0.00354   0.00352   1.87231
   A30        1.90389  -0.00141   0.00000  -0.01216  -0.01215   1.89174
   A31        2.03034   0.00617   0.00000   0.01166   0.01173   2.04207
   A32        1.89677  -0.00385   0.00000  -0.02215  -0.02219   1.87458
   A33        1.90060  -0.00400   0.00000  -0.02477  -0.02480   1.87580
   A34        1.89871  -0.00029   0.00000   0.00704   0.00706   1.90577
   A35        1.89766  -0.00038   0.00000   0.00552   0.00553   1.90319
   A36        1.82924   0.00200   0.00000   0.02447   0.02418   1.85341
   A37        1.91406   0.00047   0.00000   0.00455   0.00454   1.91860
   A38        1.95265  -0.00006   0.00000  -0.00504  -0.00504   1.94760
   A39        1.94976   0.00106   0.00000   0.00205   0.00203   1.95179
   A40        1.87706  -0.00019   0.00000   0.00229   0.00230   1.87936
   A41        1.87402  -0.00049   0.00000   0.00428   0.00426   1.87828
   A42        1.89319  -0.00086   0.00000  -0.00782  -0.00783   1.88536
    D1        1.06238   0.00003   0.00000   0.05679   0.05676   1.11914
    D2       -3.08518   0.00233   0.00000   0.06836   0.06843  -3.01675
    D3       -1.06105   0.00013   0.00000   0.06009   0.06009  -1.00096
    D4       -0.85042  -0.00038   0.00000   0.03068   0.03063  -0.81979
    D5        1.28521   0.00192   0.00000   0.04225   0.04229   1.32750
    D6       -2.97385  -0.00028   0.00000   0.03397   0.03395  -2.93990
    D7        0.72532   0.00234   0.00000   0.12715   0.12716   0.85248
    D8        2.93012   0.00149   0.00000   0.10885   0.10888   3.03900
    D9       -1.36155   0.00302   0.00000   0.12895   0.12903  -1.23253
   D10       -1.38629  -0.00020   0.00000   0.11119   0.11119  -1.27509
   D11        0.81852  -0.00106   0.00000   0.09288   0.09291   0.91142
   D12        2.81003   0.00047   0.00000   0.11298   0.11306   2.92309
   D13        2.84507   0.00201   0.00000   0.12827   0.12816   2.97323
   D14       -1.23332   0.00115   0.00000   0.10996   0.10988  -1.12344
   D15        0.75819   0.00268   0.00000   0.13007   0.13003   0.88822
   D16        1.65969  -0.00052   0.00000   0.05564   0.05555   1.71524
   D17       -2.41589   0.00065   0.00000   0.11258   0.11272  -2.30317
   D18       -0.53056  -0.00030   0.00000   0.07324   0.07312  -0.45744
   D19        1.67704   0.00086   0.00000   0.13019   0.13029   1.80733
   D20       -2.57701   0.00196   0.00000   0.07949   0.07936  -2.49765
   D21       -0.36940   0.00313   0.00000   0.13644   0.13653  -0.23287
   D22       -1.16913   0.00181   0.00000   0.01793   0.01789  -1.15124
   D23        3.04098  -0.00107   0.00000  -0.00427  -0.00423   3.03675
   D24        0.99239   0.00140   0.00000   0.01735   0.01731   1.00970
   D25        2.90088  -0.00019   0.00000  -0.04448  -0.04449   2.85638
   D26        0.82781  -0.00307   0.00000  -0.06668  -0.06661   0.76119
   D27       -1.22078  -0.00060   0.00000  -0.04506  -0.04507  -1.26586
   D28       -1.11746  -0.00047   0.00000  -0.03574  -0.03589  -1.15335
   D29        1.03166   0.00050   0.00000  -0.03587  -0.03613   0.99553
   D30        3.01491  -0.00123   0.00000  -0.03146  -0.03151   2.98340
   D31        1.11163   0.00031   0.00000   0.01804   0.01821   1.12983
   D32       -3.02244   0.00129   0.00000   0.01792   0.01797  -3.00448
   D33       -1.03920  -0.00044   0.00000   0.02233   0.02259  -1.01661
   D34       -2.94567   0.00093   0.00000  -0.02254  -0.02254  -2.96821
   D35       -0.86531   0.00080   0.00000  -0.01606  -0.01607  -0.88138
   D36        1.26826   0.00039   0.00000  -0.03167  -0.03169   1.23657
   D37       -0.85087  -0.00105   0.00000  -0.03595  -0.03595  -0.88682
   D38        1.22950  -0.00118   0.00000  -0.02948  -0.02948   1.20001
   D39       -2.92012  -0.00159   0.00000  -0.04509  -0.04510  -2.96523
   D40        1.15281   0.00007   0.00000  -0.02817  -0.02815   1.12466
   D41       -3.05001  -0.00007   0.00000  -0.02169  -0.02168  -3.07169
   D42       -0.91644  -0.00047   0.00000  -0.03730  -0.03730  -0.95374
   D43        3.09163   0.00002   0.00000   0.00677   0.00677   3.09840
   D44        1.01040  -0.00000   0.00000   0.00410   0.00411   1.01452
   D45       -1.11594   0.00039   0.00000   0.01636   0.01637  -1.09957
   D46        0.94353   0.00090   0.00000   0.02207   0.02209   0.96562
   D47       -1.13770   0.00087   0.00000   0.01940   0.01944  -1.11827
   D48        3.01914   0.00126   0.00000   0.03166   0.03169   3.05083
   D49       -1.03921  -0.00111   0.00000  -0.01324  -0.01329  -1.05249
   D50       -3.12043  -0.00114   0.00000  -0.01591  -0.01594  -3.13637
   D51        1.03641  -0.00074   0.00000  -0.00365  -0.00368   1.03272
         Item               Value     Threshold  Converged?
 Maximum Force            0.012582     0.000450     NO 
 RMS     Force            0.002333     0.000300     NO 
 Maximum Displacement     0.433182     0.001800     NO 
 RMS     Displacement     0.111829     0.001200     NO 
 Predicted change in Energy=-2.971457D-03
 GradGradGradGradGradGradGradGradGradGradGradGradGradGradGradGradGradGrad

                          Input orientation:                          
 ---------------------------------------------------------------------
 Center     Atomic      Atomic             Coordinates (Angstroms)
 Number     Number       Type             X           Y           Z
 ---------------------------------------------------------------------
      1          7           0        2.587015   -1.129633   -0.135261
      2          6           0        1.682081   -1.046588    1.019193
      3          6           0        0.644233    0.091553    0.921875
      4          7           0       -0.052607    0.109255   -0.375850
      5          6           0       -1.371033   -0.538321   -0.358088
      6          6           0       -1.328277   -2.045710   -0.105308
      7          6           0       -0.102414    1.445157   -0.990586
      8          6           0       -0.931189    2.516758   -0.264844
      9          1           0        3.144924   -0.275371   -0.166149
     10          1           0        1.984428   -1.066421   -0.958487
     11          1           0        1.177033   -2.011924    1.127900
     12          1           0        2.280111   -0.900773    1.926797
     13          1           0       -0.065636    0.032535    1.763953
     14          1           0        1.186051    1.036874    1.042712
     15          1           0       -1.827077   -0.364461   -1.339981
     16          1           0       -2.044603   -0.075461    0.385905
     17          1           0       -2.319187   -2.477238   -0.281843
     18          1           0       -0.615850   -2.534469   -0.777466
     19          1           0       -1.049316   -2.283540    0.925248
     20          1           0        0.930641    1.797283   -1.094008
     21          1           0       -0.488086    1.324271   -2.010751
     22          1           0       -0.852957    3.471878   -0.795248
     23          1           0       -0.576990    2.675042    0.759160
     24          1           0       -1.991297    2.249306   -0.218873
 ---------------------------------------------------------------------
                    Distance matrix (angstroms):
                    1          2          3          4          5
     1  N    0.000000
     2  C    1.469206   0.000000
     3  C    2.526506   1.543361   0.000000
     4  N    2.925805   2.508239   1.473089   0.000000
     5  C    4.008172   3.387735   2.469078   1.468984   0.000000
     6  C    4.021145   3.365265   3.084444   2.518809   1.529035
     7  C    3.820231   3.665028   2.459113   1.471400   2.437956
     8  C    5.068602   4.601670   3.126001   2.565210   3.087987
     9  H    1.020775   2.034631   2.751706   3.227402   4.527676
    10  H    1.022159   2.000756   2.583174   2.423054   3.449418
    11  H    2.088555   1.094881   2.179664   2.876226   3.297318
    12  H    2.097296   1.096652   2.161174   3.429856   4.322374
    13  H    3.463265   2.184877   1.102947   2.141218   2.555973
    14  H    2.836208   2.141824   1.096266   2.099302   3.313934
    15  H    4.639079   4.283129   3.381024   2.074295   1.096502
    16  H    4.778576   3.902860   2.746816   2.140663   1.105198
    17  H    5.090025   4.444053   4.102376   3.440373   2.159679
    18  H    3.555888   3.274487   3.372175   2.732730   2.175037
    19  H    3.959683   2.999902   2.917051   2.900302   2.190033
    20  H    3.497086   3.621862   2.656188   2.081339   3.360704
    21  H    4.358367   4.417144   3.376691   2.082981   2.641995
    22  H    5.782984   5.489549   4.076357   3.481909   4.067088
    23  H    5.028566   4.361370   2.862216   2.854206   3.493487
    24  H    5.690796   5.088165   3.592106   2.891881   2.859190
                    6          7          8          9         10
     6  C    0.000000
     7  C    3.804289   0.000000
     8  C    4.582494   1.536846   0.000000
     9  H    4.811168   3.766314   4.941702   0.000000
    10  H    3.558221   3.265573   4.671310   1.612548   0.000000
    11  H    2.792583   4.251632   5.185875   2.926223   2.428759
    12  H    4.296603   4.437448   5.176414   2.349353   2.905122
    13  H    3.067166   3.095859   3.322133   3.758696   3.580802
    14  H    4.140304   2.441544   2.895249   2.649626   3.010988
    15  H    2.144718   2.524135   3.203117   5.109464   3.894337
    16  H    2.153207   2.824731   2.895300   5.222636   4.361478
    17  H    1.095118   4.560876   5.183322   5.892209   4.579231
    18  H    1.094639   4.018266   5.086956   4.429521   2.991552
    19  H    1.093814   4.297701   4.947034   4.776562   3.772723
    20  H    4.566053   1.096309   2.161381   3.171729   3.054445
    21  H    3.961491   1.097312   2.160221   4.377233   3.596664
    22  H    5.580835   2.170038   1.095309   5.515496   5.354770
    23  H    4.857699   2.190765   1.095032   4.838779   4.848682
    24  H    4.347373   2.193188   1.094291   5.723420   5.229480
                   11         12         13         14         15
    11  H    0.000000
    12  H    1.757747   0.000000
    13  H    2.475601   2.529843   0.000000
    14  H    3.050001   2.394379   1.759433   0.000000
    15  H    4.222469   5.275269   3.590918   4.088998   0.000000
    16  H    3.831368   4.664615   2.413916   3.479340   1.763384
    17  H    3.798348   5.340119   3.944964   5.137132   2.413639
    18  H    2.667940   4.285859   3.653910   4.394814   2.548024
    19  H    2.251993   3.741688   2.652407   4.004474   3.069046
    20  H    4.416746   4.269174   3.503548   2.282330   3.512642
    21  H    4.873802   5.302643   4.011912   3.494133   2.257133
    22  H    6.155602   6.028741   4.358723   3.669454   3.995390
    23  H    5.017989   4.723649   2.872966   2.423285   3.899704
    24  H    5.478155   5.724667   3.543140   3.627275   2.848795
                   16         17         18         19         20
    16  H    0.000000
    17  H    2.507952   0.000000
    18  H    3.072701   1.774902   0.000000
    19  H    2.481351   1.762714   1.774851   0.000000
    20  H    3.814367   5.430703   4.610414   4.964952   0.000000
    21  H    3.182131   4.559993   4.053047   4.685230   1.754122
    22  H    3.924124   6.148609   6.011052   6.010283   2.464700
    23  H    3.139820   5.537593   5.431550   4.983796   2.545122
    24  H    2.402735   4.738322   5.008830   4.768966   3.083490
                   21         22         23         24
    21  H    0.000000
    22  H    2.494553   0.000000
    23  H    3.083001   1.768414   0.000000
    24  H    2.515186   1.767119   1.771458   0.000000
 Stoichiometry    C6H16N2
 Framework group  C1[X(C6H16N2)]
 Deg. of freedom    66
 Full point group                 C1      NOp   1
 Largest Abelian subgroup         C1      NOp   1
 Largest concise Abelian subgroup C1      NOp   1
                         Standard orientation:                         
 ---------------------------------------------------------------------
 Center     Atomic      Atomic             Coordinates (Angstroms)
 Number     Number       Type             X           Y           Z
 ---------------------------------------------------------------------
      1          7           0       -2.311454   -1.161868   -0.726769
      2          6           0       -1.950506   -0.598230    0.581128
      3          6           0       -0.430621   -0.548256    0.844594
      4          7           0        0.316839    0.042968   -0.278682
      5          6           0        0.652726    1.461298   -0.095831
      6          6           0       -0.557196    2.395746   -0.066795
      7          6           0        1.486614   -0.753450   -0.681625
      8          6           0        2.636577   -0.866200    0.331671
      9          1           0       -2.015176   -2.138497   -0.746696
     10          1           0       -1.698255   -0.699180   -1.401094
     11          1           0       -2.380622    0.406197    0.651073
     12          1           0       -2.424312   -1.198474    1.367169
     13          1           0       -0.225497   -0.021577    1.791708
     14          1           0       -0.091310   -1.580815    0.987734
     15          1           0        1.293568    1.750267   -0.937340
     16          1           0        1.247268    1.626402    0.821079
     17          1           0       -0.219799    3.436849   -0.106185
     18          1           0       -1.211886    2.213925   -0.925023
     19          1           0       -1.146418    2.279608    0.847404
     20          1           0        1.128172   -1.758476   -0.933289
     21          1           0        1.872366   -0.323596   -1.614638
     22          1           0        3.422785   -1.516475   -0.066726
     23          1           0        2.297503   -1.296811    1.279667
     24          1           0        3.088345    0.107504    0.544461
 ---------------------------------------------------------------------
 Rotational constants (GHZ):           2.2254212           1.4641849           1.0515244
 Standard basis: 6-31G(d,p) (6D, 7F)
 There are   200 symmetry adapted cartesian basis functions of A   symmetry.
 There are   200 symmetry adapted basis functions of A   symmetry.
   200 basis functions,   336 primitive gaussians,   200 cartesian basis functions
    33 alpha electrons       33 beta electrons
       nuclear repulsion energy       420.1136693955 Hartrees.
 NAtoms=   24 NActive=   24 NUniq=   24 SFac= 1.00D+00 NAtFMM=   60 NAOKFM=F Big=F
 Integral buffers will be    131072 words long.
 Raffenetti 2 integral format.
 Two-electron integral symmetry is turned on.
 ------------------------------------------------------------------------------
 Polarizable Continuum Model (PCM)
 =================================
 Model                : PCM.
 Atomic radii         : UFF (Universal Force Field).
 Polarization charges : Total charges.
 Charge compensation  : None.
 Solution method      : Matrix inversion.
 Cavity type          : Scaled VdW (van der Waals Surface) (Alpha=1.100).
 Cavity algorithm     : GePol (No added spheres)
                        Default sphere list used, NSphG=   24.
                        Lebedev-Laikov grids with approx.  5.0 points / Ang**2.
                        Smoothing algorithm: York/Karplus (Gamma=1.0000).
                        Polarization charges: spherical gaussians, with
                                              point-specific exponents (IZeta= 3).
                        Self-potential: point-specific (ISelfS= 7).
                        Self-field    : sphere-specific E.n sum rule (ISelfD= 2).
 1st derivatives      : Analytical E(r).r(x)/FMM algorithm (CHGder, D1EAlg=3).
                        Cavity 1st derivative terms included.
 Solvent              : Water, Eps=  78.355300 Eps(inf)=   1.777849
 ------------------------------------------------------------------------------
 One-electron integrals computed using PRISM.
 NBasis=   200 RedAO= T EigKep=  4.05D-03  NBF=   200
 NBsUse=   200 1.00D-06 EigRej= -1.00D+00 NBFU=   200
 Initial guess from the checkpoint file:  "UDGSVBYJWHOHNN-UHFFFAOYSA-N_conf_2_0.chk"
 B after Tr=     0.000000    0.000000    0.000000
         Rot=    0.999420    0.022973    0.001586    0.025105 Ang=   3.90 deg.
 ExpMin= 1.61D-01 ExpMax= 4.17D+03 ExpMxC= 6.27D+02 IAcc=2 IRadAn=         4 AccDes= 0.00D+00
 Harris functional with IExCor=  402 and IRadAn=       4 diagonalized for initial guess.
 HarFok:  IExCor=  402 AccDes= 0.00D+00 IRadAn=         4 IDoV= 1 UseB2=F ITyADJ=14
 ICtDFT=  3500011 ScaDFX=  1.000000  1.000000  1.000000  1.000000
 FoFCou: FMM=F IPFlag=           0 FMFlag=      100000 FMFlg1=           0
         NFxFlg=           0 DoJE=T BraDBF=F KetDBF=T FulRan=T
         wScrn=  0.000000 ICntrl=       500 IOpCl=  0 I1Cent=   200000004 NGrid=           0
         NMat0=    1 NMatS0=      1 NMatT0=    0 NMatD0=    1 NMtDS0=    0 NMtDT0=    0
 Petite list used in FoFCou.
 Keep R1 ints in memory in canonical form, NReq=206134434.
 Requested convergence on RMS density matrix=1.00D-08 within  32 cycles.
 Requested convergence on MAX density matrix=1.00D-06.
 Requested convergence on             energy=1.00D-06.
 No special actions if energy rises.
 Inv3:  Mode=1 IEnd=     8058963.
 Iteration    1 A*A^-1 deviation from unit magnitude is 6.88D-15 for   1297.
 Iteration    1 A*A^-1 deviation from orthogonality  is 5.52D-15 for   1261    392.
 Iteration    1 A^-1*A deviation from unit magnitude is 6.44D-15 for   1297.
 Iteration    1 A^-1*A deviation from orthogonality  is 3.69D-15 for   1498    349.
 Error on total polarization charges =  0.00951
 SCF Done:  E(RB3LYP) =  -347.785885608     A.U. after    9 cycles
            NFock=  9  Conv=0.84D-08     -V/T= 2.0100
 QCSCF skips out because SCF is already converged.
 D1PCM: PCM CHGder 1st derivatives, ID1Alg=3 FixD1E=F DoIter=F DoCFld=F I1PDM=0.
 Calling FoFJK, ICntrl=      2127 FMM=F ISym2X=0 I1Cent= 0 IOpClX= 0 NMat=1 NMatS=1 NMatT=0.
 ***** Axes restored to original set *****
 -------------------------------------------------------------------
 Center     Atomic                   Forces (Hartrees/Bohr)
 Number     Number              X              Y              Z
 -------------------------------------------------------------------
      1        7           0.000183785    0.000010704   -0.000024117
      2        6           0.000407446    0.000590405   -0.000425468
      3        6           0.000487585   -0.000230971    0.000108876
      4        7          -0.002137083    0.000200635    0.001668375
      5        6          -0.000171806    0.000002562   -0.000399829
      6        6          -0.000176966   -0.000145202    0.000078959
      7        6           0.001092918   -0.000105801   -0.001149689
      8        6          -0.000191578    0.000332970   -0.000054909
      9        1           0.000178010   -0.000253110    0.000172953
     10        1           0.000759133   -0.000029195    0.000015560
     11        1           0.000037683   -0.000160188   -0.000502363
     12        1          -0.000438359   -0.000352693    0.000417460
     13        1           0.000457453   -0.000185891    0.000337825
     14        1          -0.000476534    0.000416650   -0.000633198
     15        1           0.000180416    0.000264203   -0.000049404
     16        1          -0.000270815   -0.000079462    0.000044030
     17        1           0.000009376    0.000016826    0.000191026
     18        1          -0.000251605   -0.000152164   -0.000111469
     19        1           0.000387347   -0.000075588   -0.000084593
     20        1           0.000063774   -0.000049650    0.000292833
     21        1          -0.000082315   -0.000106837    0.000036316
     22        1          -0.000042407   -0.000001771   -0.000012179
     23        1          -0.000033822    0.000073707   -0.000032246
     24        1           0.000028365    0.000019862    0.000115250
 -------------------------------------------------------------------
 Cartesian Forces:  Max     0.002137083 RMS     0.000450366

 GradGradGradGradGradGradGradGradGradGradGradGradGradGradGradGradGradGrad
 Berny optimization.
 Using GEDIIS/GDIIS optimizer.
 FormGI is forming the generalized inverse of G from B-inverse, IUseBI=4.
 Internal  Forces:  Max     0.002215904 RMS     0.000416242
 Search for a local minimum.
 Step number   2 out of a maximum of  126
 All quantities printed in internal units (Hartrees-Bohrs-Radians)
 Mixed Optimization -- En-DIIS/RFO-DIIS
 Update second derivatives using D2CorX and points    1    2
 DE= -3.01D-03 DEPred=-2.97D-03 R= 1.01D+00
 TightC=F SS=  1.41D+00  RLast= 4.88D-01 DXNew= 5.0454D-01 1.4630D+00
 Trust test= 1.01D+00 RLast= 4.88D-01 DXMaxT set to 5.05D-01
 ITU=  1  0
 Use linear search instead of GDIIS.
     Eigenvalues ---    0.00222   0.00226   0.00260   0.00360   0.00429
     Eigenvalues ---    0.00470   0.00835   0.02395   0.04030   0.04321
     Eigenvalues ---    0.04451   0.04478   0.04509   0.04543   0.04598
     Eigenvalues ---    0.04628   0.04707   0.04846   0.04906   0.05093
     Eigenvalues ---    0.05579   0.08046   0.08456   0.08571   0.09017
     Eigenvalues ---    0.11382   0.11672   0.11980   0.12296   0.12362
     Eigenvalues ---    0.12441   0.13850   0.13930   0.15439   0.16224
     Eigenvalues ---    0.16299   0.18785   0.19140   0.20102   0.22913
     Eigenvalues ---    0.23415   0.24687   0.26223   0.28216   0.29544
     Eigenvalues ---    0.30012   0.31797   0.32415   0.32629   0.32827
     Eigenvalues ---    0.32926   0.33173   0.33376   0.33442   0.33692
     Eigenvalues ---    0.33792   0.33907   0.33938   0.34575   0.34683
     Eigenvalues ---    0.34903   0.36357   0.36645   0.40821   0.42201
     Eigenvalues ---    0.43908
 RFO step:  Lambda=-7.33596555D-04 EMin= 2.22084182D-03
 Quartic linear search produced a step of  0.37266.
 Iteration  1 RMS(Cart)=  0.12303713 RMS(Int)=  0.00570138
 Iteration  2 RMS(Cart)=  0.00857011 RMS(Int)=  0.00009890
 Iteration  3 RMS(Cart)=  0.00003668 RMS(Int)=  0.00009503
 Iteration  4 RMS(Cart)=  0.00000000 RMS(Int)=  0.00009503
 Variable       Old X    -DE/DX   Delta X   Delta X   Delta X     New X
                                 (Linear)    (Quad)   (Total)
    R1        2.77640   0.00058   0.00014  -0.00005   0.00009   2.77649
    R2        1.92899  -0.00012   0.00076  -0.00157  -0.00081   1.92818
    R3        1.93160  -0.00046  -0.00334   0.00299  -0.00035   1.93125
    R4        2.91653   0.00088  -0.00273  -0.00571  -0.00844   2.90809
    R5        2.06903   0.00007   0.00136  -0.00039   0.00097   2.07000
    R6        2.07237   0.00006   0.00089   0.00010   0.00098   2.07336
    R7        2.78373   0.00029  -0.00546   0.00602   0.00056   2.78430
    R8        2.08427  -0.00003   0.00427  -0.00520  -0.00093   2.08334
    R9        2.07164   0.00005  -0.00178   0.00259   0.00082   2.07246
   R10        2.77598   0.00033  -0.00280  -0.00143  -0.00423   2.77175
   R11        2.78054   0.00045  -0.00239   0.00024  -0.00214   2.77840
   R12        2.88946   0.00036   0.00412  -0.00494  -0.00082   2.88864
   R13        2.07209   0.00001  -0.00079   0.00096   0.00017   2.07226
   R14        2.08852   0.00016   0.00600  -0.00475   0.00125   2.08977
   R15        2.06947  -0.00005  -0.00018   0.00023   0.00006   2.06953
   R16        2.06857  -0.00002  -0.00001  -0.00009  -0.00009   2.06848
   R17        2.06701   0.00003   0.00046   0.00049   0.00094   2.06795
   R18        2.90422   0.00044   0.00697  -0.00555   0.00142   2.90564
   R19        2.07172   0.00002  -0.00095   0.00045  -0.00050   2.07122
   R20        2.07362   0.00001  -0.00014   0.00025   0.00012   2.07373
   R21        2.06983  -0.00000   0.00008  -0.00000   0.00008   2.06991
   R22        2.06931  -0.00003   0.00063  -0.00021   0.00043   2.06974
   R23        2.06791  -0.00003   0.00016  -0.00004   0.00013   2.06804
    A1        1.88927  -0.00002   0.00036   0.00530   0.00564   1.89491
    A2        1.84028   0.00109   0.00066   0.00176   0.00239   1.84268
    A3        1.81943  -0.00019   0.00821   0.00544   0.01357   1.83301
    A4        1.98923   0.00222   0.01254  -0.01358  -0.00106   1.98816
    A5        1.88841  -0.00052  -0.00059  -0.00536  -0.00601   1.88240
    A6        1.89858  -0.00084  -0.00302   0.00852   0.00554   1.90412
    A7        1.92437  -0.00064  -0.00279  -0.00202  -0.00491   1.91946
    A8        1.89741  -0.00057  -0.00584   0.01063   0.00477   1.90219
    A9        1.86148   0.00022  -0.00100   0.00295   0.00192   1.86340
   A10        1.96331   0.00142  -0.00293  -0.00764  -0.01060   1.95272
   A11        1.92325  -0.00056  -0.00174   0.00221   0.00039   1.92364
   A12        1.87192  -0.00010   0.01128  -0.00552   0.00578   1.87771
   A13        1.94849  -0.00054  -0.00244   0.00120  -0.00130   1.94718
   A14        1.89710  -0.00047  -0.00515   0.01333   0.00822   1.90532
   A15        1.85468   0.00020   0.00191  -0.00338  -0.00152   1.85316
   A16        1.99173   0.00001   0.00476  -0.00170   0.00242   1.99415
   A17        1.97684   0.00012   0.01007   0.00265   0.01228   1.98912
   A18        1.95509   0.00022   0.00590   0.00793   0.01332   1.96842
[...]
    13  H    0.009656   0.006409   0.001173   0.000361   0.005869   0.001612
    14  H    0.000919   0.088885   0.008541   0.004449   0.036596   0.003526
    15  H    0.009487   0.010360   0.062784   0.002071   0.002182   0.014410
    16  H    0.000514   0.002412   0.006079   0.001057   0.004506   0.010748
    17  H   -0.012473   0.000038   0.000264   0.000002   0.000010   0.000096
    18  H   -0.019405   0.000368   0.001245   0.000003   0.000013   0.000043
    19  H    0.590179   0.000104   0.000130   0.000001   0.000026   0.000046
    20  H    0.000104   1.059205   0.100078   0.039590   0.025562   0.015089
    21  H    0.000130   0.100078   0.807018   0.026443   0.013483   0.013224
    22  H    0.000001   0.039590   0.026443   0.702976   0.015999   0.007654
    23  H    0.000026   0.025562   0.013483   0.015999   0.651653  -0.005146
    24  H    0.000046   0.015089   0.013224   0.007654  -0.005146   0.628960
 Mulliken charges:
               1
     1  N   -0.526304
     2  C   -0.074060
     3  C   -0.017161
     4  N   -0.219933
     5  C   -0.014418
     6  C   -0.334918
     7  C    0.003562
     8  C   -0.288382
     9  H    0.094595
    10  H    0.163594
    11  H    0.113895
    12  H    0.100230
    13  H    0.112265
    14  H    0.019781
    15  H    0.047019
    16  H    0.148060
    17  H    0.109266
    18  H    0.111641
    19  H    0.118589
    20  H   -0.019573
    21  H    0.060316
    22  H    0.090890
    23  H    0.095605
    24  H    0.105443
 Sum of Mulliken charges =  -0.00000
 Mulliken charges with hydrogens summed into heavy atoms:
               1
     1  N   -0.268115
     2  C    0.140066
     3  C    0.114885
     4  N   -0.219933
     5  C    0.180660
     6  C    0.004576
     7  C    0.044305
     8  C    0.003556
 Electronic spatial extent (au):  <R**2>=           1292.1643
 Charge=              0.0000 electrons
 Dipole moment (field-independent basis, Debye):
    X=              3.0777    Y=              2.9368    Z=              1.8253  Tot=              4.6291
 Quadrupole moment (field-independent basis, Debye-Ang):
   XX=            -63.9766   YY=            -56.7290   ZZ=            -54.3356
   XY=             -3.3672   XZ=             -2.9233   YZ=             -0.3827
 Traceless Quadrupole moment (field-independent basis, Debye-Ang):
   XX=             -5.6296   YY=              1.6181   ZZ=              4.0115
   XY=             -3.3672   XZ=             -2.9233   YZ=             -0.3827
 Octapole moment (field-independent basis, Debye-Ang**2):
  XXX=             31.6784  YYY=             15.5292  ZZZ=              2.6642  XYY=              4.3499
  XXY=             14.0769  XXZ=             14.8843  XZZ=             -1.0123  YZZ=              1.6733
  YYZ=              2.0989  XYZ=              5.1725
 Hexadecapole moment (field-independent basis, Debye-Ang**3):
 XXXX=          -1031.2504 YYYY=           -680.9904 ZZZZ=           -204.3930 XXXY=            -40.9693
 XXXZ=            -32.1466 YYYX=              3.8249 YYYZ=              2.2595 ZZZX=              0.9243
 ZZZY=              1.2323 XXYY=           -274.7316 XXZZ=           -194.7022 YYZZ=           -150.0866
 XXYZ=             -8.8925 YYXZ=             -1.2256 ZZXY=             -2.1668
 N-N= 4.187591217419D+02 E-N=-1.641124562362D+03  KE= 3.444879943914D+02
 Evaluate density.
 Using the total density.
 Monte-Carlo method of calculating molar volume:
 based on  0.001 e/bohr**3 density envelope.
 Number of points per bohr**3 =   20 CutOff= 1.00D-04
 Using the CI density.
 There are       380 points.  Will hold       380 in memory.
 LenV=  1073624104 MDV=  1073741824.
 Box volume = 6871.340 fraction occupied=0.176
 Integrated density= 3.6976014156773438D+01 error=-2.9023985843226562D+01
 Molar volume = 1211.526 bohr**3/mol (108.115 cm**3/mol)
 Recommended a0 for SCRF calculation =  4.35 angstrom (  8.22 bohr)
 ******************************Gaussian NBO Version 3.1******************************
             N A T U R A L   A T O M I C   O R B I T A L   A N D
          N A T U R A L   B O N D   O R B I T A L   A N A L Y S I S
 ******************************Gaussian NBO Version 3.1******************************
       /RESON  / : Allow strongly delocalized NBO set

 Analyzing the CI density

 Job title: UDGSVBYJWHOHNN-UHFFFAOYSA-N_conf_2                              

 Storage needed:    121952 in NPA (1073738704 available)
 GSVD:  LWork=       20800 too small for GESVD, short by       16736 words or       16736 for optimal perf.


 NATURAL POPULATIONS:  Natural atomic orbital occupancies 
                                                          
   NAO  Atom  No  lang   Type(AO)    Occupancy
 --------------------------------------------
     1    N    1  S      Cor( 1S)     1.99968
     2    N    1  S      Val( 2S)     1.46301
     3    N    1  S      Ryd( 3S)     0.00392
     4    N    1  S      Ryd( 4S)     0.00003
     5    N    1  px     Val( 2p)     1.76721
     6    N    1  px     Ryd( 3p)     0.00556
     7    N    1  py     Val( 2p)     1.34784
     8    N    1  py     Ryd( 3p)     0.00199
     9    N    1  pz     Val( 2p)     1.30942
    10    N    1  pz     Ryd( 3p)     0.00233
    11    N    1  dxy    Ryd( 3d)     0.00097
    12    N    1  dxz    Ryd( 3d)     0.00136
    13    N    1  dyz    Ryd( 3d)     0.00027
    14    N    1  dx2y2  Ryd( 3d)     0.00122
    15    N    1  dz2    Ryd( 3d)     0.00056

    16    C    2  S      Cor( 1S)     1.99936
    17    C    2  S      Val( 2S)     1.02666
    18    C    2  S      Ryd( 3S)     0.00146
    19    C    2  S      Ryd( 4S)     0.00004
    20    C    2  px     Val( 2p)     1.03655
    21    C    2  px     Ryd( 3p)     0.00376
    22    C    2  py     Val( 2p)     1.15676
    23    C    2  py     Ryd( 3p)     0.00409
    24    C    2  pz     Val( 2p)     1.04723
    25    C    2  pz     Ryd( 3p)     0.00475
    26    C    2  dxy    Ryd( 3d)     0.00067
    27    C    2  dxz    Ryd( 3d)     0.00120
    28    C    2  dyz    Ryd( 3d)     0.00096
    29    C    2  dx2y2  Ryd( 3d)     0.00100
    30    C    2  dz2    Ryd( 3d)     0.00100

    31    C    3  S      Cor( 1S)     1.99924
    32    C    3  S      Val( 2S)     1.05309
    33    C    3  S      Ryd( 3S)     0.00192
    34    C    3  S      Ryd( 4S)     0.00003
    35    C    3  px     Val( 2p)     1.00152
    36    C    3  px     Ryd( 3p)     0.00174
    37    C    3  py     Val( 2p)     1.24835
    38    C    3  py     Ryd( 3p)     0.00585
    39    C    3  pz     Val( 2p)     1.01764
    40    C    3  pz     Ryd( 3p)     0.00437
    41    C    3  dxy    Ryd( 3d)     0.00067
    42    C    3  dxz    Ryd( 3d)     0.00111
    43    C    3  dyz    Ryd( 3d)     0.00084
    44    C    3  dx2y2  Ryd( 3d)     0.00073
    45    C    3  dz2    Ryd( 3d)     0.00074

    46    N    4  S      Cor( 1S)     1.99935
    47    N    4  S      Val( 2S)     1.29937
    48    N    4  S      Ryd( 3S)     0.00155
    49    N    4  S      Ryd( 4S)     0.00009
    50    N    4  px     Val( 2p)     1.25181
    51    N    4  px     Ryd( 3p)     0.00208
    52    N    4  py     Val( 2p)     1.29110
    53    N    4  py     Ryd( 3p)     0.00102
    54    N    4  pz     Val( 2p)     1.22837
    55    N    4  pz     Ryd( 3p)     0.00207
    56    N    4  dxy    Ryd( 3d)     0.00091
    57    N    4  dxz    Ryd( 3d)     0.00066
    58    N    4  dyz    Ryd( 3d)     0.00065
    59    N    4  dx2y2  Ryd( 3d)     0.00070
    60    N    4  dz2    Ryd( 3d)     0.00078

    61    C    5  S      Cor( 1S)     1.99931
    62    C    5  S      Val( 2S)     1.04980
    63    C    5  S      Ryd( 3S)     0.00187
    64    C    5  S      Ryd( 4S)     0.00004
    65    C    5  px     Val( 2p)     1.12982
    66    C    5  px     Ryd( 3p)     0.00223
    67    C    5  py     Val( 2p)     0.85797
    68    C    5  py     Ryd( 3p)     0.00381
    69    C    5  pz     Val( 2p)     1.26121
    70    C    5  pz     Ryd( 3p)     0.00405
    71    C    5  dxy    Ryd( 3d)     0.00103
    72    C    5  dxz    Ryd( 3d)     0.00111
    73    C    5  dyz    Ryd( 3d)     0.00048
    74    C    5  dx2y2  Ryd( 3d)     0.00096
    75    C    5  dz2    Ryd( 3d)     0.00076

    76    C    6  S      Cor( 1S)     1.99945
    77    C    6  S      Val( 2S)     1.11010
    78    C    6  S      Ryd( 3S)     0.00046
    79    C    6  S      Ryd( 4S)     0.00001
    80    C    6  px     Val( 2p)     1.17220
    81    C    6  px     Ryd( 3p)     0.00252
    82    C    6  py     Val( 2p)     1.16452
    83    C    6  py     Ryd( 3p)     0.00332
    84    C    6  pz     Val( 2p)     1.25518
    85    C    6  pz     Ryd( 3p)     0.00131
    86    C    6  dxy    Ryd( 3d)     0.00070
    87    C    6  dxz    Ryd( 3d)     0.00093
    88    C    6  dyz    Ryd( 3d)     0.00010
    89    C    6  dx2y2  Ryd( 3d)     0.00034
    90    C    6  dz2    Ryd( 3d)     0.00059

    91    C    7  S      Cor( 1S)     1.99934
    92    C    7  S      Val( 2S)     1.03804
    93    C    7  S      Ryd( 3S)     0.00132
    94    C    7  S      Ryd( 4S)     0.00007
    95    C    7  px     Val( 2p)     0.99449
    96    C    7  px     Ryd( 3p)     0.00435
    97    C    7  py     Val( 2p)     1.10059
    98    C    7  py     Ryd( 3p)     0.00680
    99    C    7  pz     Val( 2p)     1.16937
   100    C    7  pz     Ryd( 3p)     0.00313
   101    C    7  dxy    Ryd( 3d)     0.00149
   102    C    7  dxz    Ryd( 3d)     0.00078
   103    C    7  dyz    Ryd( 3d)     0.00062
   104    C    7  dx2y2  Ryd( 3d)     0.00045
   105    C    7  dz2    Ryd( 3d)     0.00086

   106    C    8  S      Cor( 1S)     1.99941
   107    C    8  S      Val( 2S)     1.12896
   108    C    8  S      Ryd( 3S)     0.00035
   109    C    8  S      Ryd( 4S)     0.00002
   110    C    8  px     Val( 2p)     1.13105
   111    C    8  px     Ryd( 3p)     0.00211
   112    C    8  py     Val( 2p)     1.25031
   113    C    8  py     Ryd( 3p)     0.00113
   114    C    8  pz     Val( 2p)     1.17218
   115    C    8  pz     Ryd( 3p)     0.00227
   116    C    8  dxy    Ryd( 3d)     0.00083
   117    C    8  dxz    Ryd( 3d)     0.00064
   118    C    8  dyz    Ryd( 3d)     0.00043
   119    C    8  dx2y2  Ryd( 3d)     0.00023
   120    C    8  dz2    Ryd( 3d)     0.00061

   121    H    9  S      Val( 1S)     0.67252
   122    H    9  S      Ryd( 2S)     0.05011
   123    H    9  px     Ryd( 2p)     0.00051
   124    H    9  py     Ryd( 2p)     0.00053
   125    H    9  pz     Ryd( 2p)     0.00029

   126    H   10  S      Val( 1S)     0.65173
   127    H   10  S      Ryd( 2S)     0.02545
   128    H   10  px     Ryd( 2p)     0.00064
   129    H   10  py     Ryd( 2p)     0.00032
   130    H   10  pz     Ryd( 2p)     0.00044

   131    H   11  S      Val( 1S)     0.76221
   132    H   11  S      Ryd( 2S)     0.00500
   133    H   11  px     Ryd( 2p)     0.00014
   134    H   11  py     Ryd( 2p)     0.00034
   135    H   11  pz     Ryd( 2p)     0.00009

   136    H   12  S      Val( 1S)     0.76133
   137    H   12  S      Ryd( 2S)     0.00933
   138    H   12  px     Ryd( 2p)     0.00020
   139    H   12  py     Ryd( 2p)     0.00011
   140    H   12  pz     Ryd( 2p)     0.00025

   141    H   13  S      Val( 1S)     0.74220
   142    H   13  S      Ryd( 2S)     0.01537
   143    H   13  px     Ryd( 2p)     0.00008
   144    H   13  py     Ryd( 2p)     0.00016
   145    H   13  pz     Ryd( 2p)     0.00030

   146    H   14  S      Val( 1S)     0.78436
   147    H   14  S      Ryd( 2S)     0.04562
   148    H   14  px     Ryd( 2p)     0.00008
   149    H   14  py     Ryd( 2p)     0.00034
   150    H   14  pz     Ryd( 2p)     0.00010

   151    H   15  S      Val( 1S)     0.77714
   152    H   15  S      Ryd( 2S)     0.03172
   153    H   15  px     Ryd( 2p)     0.00020
   154    H   15  py     Ryd( 2p)     0.00008
   155    H   15  pz     Ryd( 2p)     0.00023

   156    H   16  S      Val( 1S)     0.72041
   157    H   16  S      Ryd( 2S)     0.01175
   158    H   16  px     Ryd( 2p)     0.00018
   159    H   16  py     Ryd( 2p)     0.00008
   160    H   16  pz     Ryd( 2p)     0.00029

   161    H   17  S      Val( 1S)     0.75381
   162    H   17  S      Ryd( 2S)     0.00604
   163    H   17  px     Ryd( 2p)     0.00012
   164    H   17  py     Ryd( 2p)     0.00031
   165    H   17  pz     Ryd( 2p)     0.00008

   166    H   18  S      Val( 1S)     0.75954
   167    H   18  S      Ryd( 2S)     0.00798
   168    H   18  px     Ryd( 2p)     0.00016
   169    H   18  py     Ryd( 2p)     0.00008
   170    H   18  pz     Ryd( 2p)     0.00027

   171    H   19  S      Val( 1S)     0.76098
   172    H   19  S      Ryd( 2S)     0.00439
   173    H   19  px     Ryd( 2p)     0.00019
   174    H   19  py     Ryd( 2p)     0.00011
   175    H   19  pz     Ryd( 2p)     0.00024

   176    H   20  S      Val( 1S)     0.80463
   177    H   20  S      Ryd( 2S)     0.05448
   178    H   20  px     Ryd( 2p)     0.00013
   179    H   20  py     Ryd( 2p)     0.00030
   180    H   20  pz     Ryd( 2p)     0.00011

   181    H   21  S      Val( 1S)     0.77087
   182    H   21  S      Ryd( 2S)     0.02675
   183    H   21  px     Ryd( 2p)     0.00012
   184    H   21  py     Ryd( 2p)     0.00009
   185    H   21  pz     Ryd( 2p)     0.00031

   186    H   22  S      Val( 1S)     0.76431
   187    H   22  S      Ryd( 2S)     0.01261
   188    H   22  px     Ryd( 2p)     0.00019
   189    H   22  py     Ryd( 2p)     0.00021
   190    H   22  pz     Ryd( 2p)     0.00011

   191    H   23  S      Val( 1S)     0.76672
   192    H   23  S      Ryd( 2S)     0.01195
   193    H   23  px     Ryd( 2p)     0.00012
   194    H   23  py     Ryd( 2p)     0.00011
   195    H   23  pz     Ryd( 2p)     0.00028

   196    H   24  S      Val( 1S)     0.76241
   197    H   24  S      Ryd( 2S)     0.00850
   198    H   24  px     Ryd( 2p)     0.00017
   199    H   24  py     Ryd( 2p)     0.00025
   200    H   24  pz     Ryd( 2p)     0.00010


 Summary of Natural Population Analysis:                  
                                                          
                                       Natural Population 
                Natural  -----------------------------------------------
    Atom  No    Charge         Core      Valence    Rydberg      Total
 -----------------------------------------------------------------------
      N    1   -0.90537      1.99968     5.88748    0.01821     7.90537
      C    2   -0.28549      1.99936     4.26720    0.01893     6.28549
      C    3   -0.33785      1.99924     4.32059    0.01801     6.33785
      N    4   -0.08052      1.99935     5.07065    0.01052     7.08052
      C    5   -0.31446      1.99931     4.29880    0.01636     6.31446
      C    6   -0.71174      1.99945     4.70200    0.01029     6.71174
      C    7   -0.32171      1.99934     4.30249    0.01988     6.32171
      C    8   -0.69055      1.99941     4.68251    0.00862     6.69055
      H    9    0.27604      0.00000     0.67252    0.05144     0.72396
      H   10    0.32142      0.00000     0.65173    0.02685     0.67858
      H   11    0.23222      0.00000     0.76221    0.00557     0.76778
      H   12    0.22878      0.00000     0.76133    0.00989     0.77122
      H   13    0.24189      0.00000     0.74220    0.01591     0.75811
      H   14    0.16950      0.00000     0.78436    0.04614     0.83050
      H   15    0.19063      0.00000     0.77714    0.03223     0.80937
      H   16    0.26730      0.00000     0.72041    0.01229     0.73270
      H   17    0.23965      0.00000     0.75381    0.00654     0.76035
      H   18    0.23198      0.00000     0.75954    0.00848     0.76802
      H   19    0.23410      0.00000     0.76098    0.00492     0.76590
      H   20    0.14036      0.00000     0.80463    0.05501     0.85964
      H   21    0.20186      0.00000     0.77087    0.02728     0.79814
      H   22    0.22258      0.00000     0.76431    0.01311     0.77742
      H   23    0.22082      0.00000     0.76672    0.01246     0.77918
      H   24    0.22857      0.00000     0.76241    0.00902     0.77143
 =======================================================================
   * Total *    0.00000     15.99515    49.54688    0.45797    66.00000

                                 Natural Population      
 --------------------------------------------------------
   Core                      15.99515 ( 99.9697% of  16)
   Valence                   49.54688 ( 99.0938% of  50)
   Natural Minimal Basis     65.54203 ( 99.3061% of  66)
   Natural Rydberg Basis      0.45797 (  0.6939% of  66)
 --------------------------------------------------------

    Atom  No          Natural Electron Configuration
 ----------------------------------------------------------------------------
      N    1      [core]2S( 1.46)2p( 4.42)3p( 0.01)
      C    2      [core]2S( 1.03)2p( 3.24)3p( 0.01)
      C    3      [core]2S( 1.05)2p( 3.27)3p( 0.01)
      N    4      [core]2S( 1.30)2p( 3.77)3p( 0.01)
      C    5      [core]2S( 1.05)2p( 3.25)3p( 0.01)
      C    6      [core]2S( 1.11)2p( 3.59)3p( 0.01)
      C    7      [core]2S( 1.04)2p( 3.26)3p( 0.01)
      C    8      [core]2S( 1.13)2p( 3.55)3p( 0.01)
      H    9            1S( 0.67)2S( 0.05)
      H   10            1S( 0.65)2S( 0.03)
      H   11            1S( 0.76)2S( 0.01)
      H   12            1S( 0.76)2S( 0.01)
      H   13            1S( 0.74)2S( 0.02)
      H   14            1S( 0.78)2S( 0.05)
      H   15            1S( 0.78)2S( 0.03)
      H   16            1S( 0.72)2S( 0.01)
      H   17            1S( 0.75)2S( 0.01)
      H   18            1S( 0.76)2S( 0.01)
      H   19            1S( 0.76)
      H   20            1S( 0.80)2S( 0.05)
      H   21            1S( 0.77)2S( 0.03)
      H   22            1S( 0.76)2S( 0.01)
      H   23            1S( 0.77)2S( 0.01)
      H   24            1S( 0.76)2S( 0.01)


 NBO analysis skipped by request.
 1\1\GINC-CN34\SP\RB3LYP TD-FC\6-31G(d,p)\C6H16N2\QDUEZ\11-Jul-2024\0\\
 # TD(NStates=10, Root=1) B3LYP/6-31G** SCRF=(Solvent=water) volume pop
 =NPA density=current Geom=AllCheck Guess=Read\\UDGSVBYJWHOHNN-UHFFFAOY
 SA-N_conf_2\\0,1\N,0,2.7222521801,-0.9054245672,-0.1139946293\C,0,1.72
 92725781,-1.0412793473,0.9596946273\C,0,0.6137111716,0.0201276055,0.94
 62170321\N,0,-0.1057972203,0.0588190603,-0.3378400847\C,0,-1.446246867
 1,-0.5347995796,-0.2988115195\C,0,-1.4401070598,-2.0478916808,-0.07660
 49884\C,0,-0.0776169986,1.3705208456,-1.0005845235\C,0,-0.8738202782,2
 .5045349939,-0.3335225153\H,0,3.1945555605,-0.0070930995,-0.0105646435
 \H,0,2.1976958328,-0.8275153163,-0.986205477\H,0,1.2850907147,-2.03986
 13374,0.8802645916\H,0,2.2473392379,-1.0015970654,1.9262790252\H,0,-0.
 0768435337,-0.1572880823,1.7860111008\H,0,1.0740897165,0.99850416,1.13
 35949148\H,0,-1.9225676372,-0.3242144714,-1.2637265802\H,0,-2.08413228
 36,-0.0658434411,0.4731984912\H,0,-2.4612345703,-2.4387711419,-0.13824
 65073\H,0,-0.8307975745,-2.5503364242,-0.8345919134\H,0,-1.0467897536,
 -2.3149828036,0.9090226112\H,0,0.9728074218,1.6703744335,-1.0892592534
 \H,0,-0.4455719352,1.2306621209,-2.0250093084\H,0,-0.754049435,3.43271
 94029,-0.9027297197\H,0,-0.5278108334,2.6938378615,0.6881632688\H,0,-1
 .9434284334,2.2767978739,-0.2907539992\\Version=EM64L-G16RevA.03\State
 =1-A\HF=-347.7865818\RMSD=7.518e-10\Dipole=-1.7705185,0.0815183,0.4189
 076\Quadrupole=-4.4927943,0.8960068,3.5967875,2.8091067,-0.0233208,-0.
 3843176\PG=C01 [X(C6H16N2)]\\@


 LET US PLACE AT THE END OF EVERY CHAPTER.....THE
 TWO LETTERS USED BY THE ROMAN JUDGES WHEN THEY DID
 NOT UNDERSTAND A PLEADING.
 N. L. -NON LIQUET- IT IS NOT CLEAR.
                                              -- VOLTAIRE
 Job cpu time:       0 days  1 hours  0 minutes 34.0 seconds.
 Elapsed time:       0 days  0 hours 22 minutes 16.0 seconds.
 File lengths (MBytes):  RWF=    373 Int=      0 D2E=      0 Chk=     24 Scr=      1
 Normal termination of Gaussian 16 at Thu Jul 11 19:41:28 2024.
