 Entering Gaussian System, Link 0=g16
 Initial command:
 /opt/sw/arch/manual/gaussian/G16_A03/g16/l1.exe "/scratch/1381530/Gau-185254.inp" -scrdir="/scratch/1381530/"
 Entering Link 1 = /opt/sw/arch/manual/gaussian/G16_A03/g16/l1.exe PID=    185255.
  
 Copyright (c) 1988,1990,1992,1993,1995,1998,2003,2009,2016,
            Gaussian, Inc.  All Rights Reserved.
  
 This is part of the Gaussian(R) 16 program.  It is based on
 the Gaussian(R) 09 system (copyright 2009, Gaussian, Inc.),
 the Gaussian(R) 03 system (copyright 2003, Gaussian, Inc.),
 the Gaussian(R) 98 system (copyright 1998, Gaussian, Inc.),
 the Gaussian(R) 94 system (copyright 1995, Gaussian, Inc.),
 the Gaussian 92(TM) system (copyright 1992, Gaussian, Inc.),
 the Gaussian 90(TM) system (copyright 1990, Gaussian, Inc.),
 the Gaussian 88(TM) system (copyright 1988, Gaussian, Inc.),
 the Gaussian 86(TM) system (copyright 1986, Carnegie Mellon
 University), and the Gaussian 82(TM) system (copyright 1983,
 Carnegie Mellon University). Gaussian is a federally registered
 trademark of Gaussian, Inc.
  
 This software contains proprietary and confidential information,
 including trade secrets, belonging to Gaussian, Inc.
  
 This software is provided under written license and may be
 used, copied, transmitted, or stored only in accord with that
 written license.
  
 The following legend is applicable only to US Government
 contracts under FAR:
  
                    RESTRICTED RIGHTS LEGEND
  
 Use, reproduction and disclosure by the US Government is
 subject to restrictions as set forth in subparagraphs (a)
 and (c) of the Commercial Computer Software - Restricted
 Rights clause in FAR 52.227-19.
  
 Gaussian, Inc.
 340 Quinnipiac St., Bldg. 40, Wallingford CT 06492
  
  
 ---------------------------------------------------------------
 Warning -- This program may not be used in any manner that
 competes with the business of Gaussian, Inc. or will provide
 assistance to any competitor of Gaussian, Inc.  The licensee
 of this program is prohibited from giving any competitor of
 Gaussian, Inc. access to this program.  By using this program,
 the user acknowledges that Gaussian, Inc. is engaged in the
 business of creating and licensing software in the field of
 computational chemistry and represents and warrants to the
 licensee that it is not a competitor of Gaussian, Inc. and that
 it will not use this program in any manner prohibited above.
 ---------------------------------------------------------------
  

 Cite this work as:
 Gaussian 16, Revision A.03,
 M. J. Frisch, G. W. Trucks, H. B. Schlegel, G. E. Scuseria, 
 M. A. Robb, J. R. Cheeseman, G. Scalmani, V. Barone, 
 G. A. Petersson, H. Nakatsuji, X. Li, M. Caricato, A. V. Marenich, 
 J. Bloino, B. G. Janesko, R. Gomperts, B. Mennucci, H. P. Hratchian, 
 J. V. Ortiz, A. F. Izmaylov, J. L. Sonnenberg, D. Williams-Young, 
 F. Ding, F. Lipparini, F. Egidi, J. Goings, B. Peng, A. Petrone, 
 T. Henderson, D. Ranasinghe, V. G. Zakrzewski, J. Gao, N. Rega, 
 G. Zheng, W. Liang, M. Hada, M. Ehara, K. Toyota, R. Fukuda, 
 J. Hasegawa, M. Ishida, T. Nakajima, Y. Honda, O. Kitao, H. Nakai, 
 T. Vreven, K. Throssell, J. A. Montgomery, Jr., J. E. Peralta, 
 F. Ogliaro, M. J. Bearpark, J. J. Heyd, E. N. Brothers, K. N. Kudin, 
 V. N. Staroverov, T. A. Keith, R. Kobayashi, J. Normand, 
 K. Raghavachari, A. P. Rendell, J. C. Burant, S. S. Iyengar, 
 J. Tomasi, M. Cossi, J. M. Millam, M. Klene, C. Adamo, R. Cammi, 
 J. W. Ochterski, R. L. Martin, K. Morokuma, O. Farkas, 
 J. B. Foresman, and D. J. Fox, Gaussian, Inc., Wallingford CT, 2016.
 
 ******************************************
 Gaussian 16:  ES64L-G16RevA.03 25-Dec-2016
                21-Jul-2024 
 ******************************************
 %nprocshared=4
 Will use up to    4 processors via shared memory.
 %mem=8GB
 %Chk=ZLSMCQSGRWNEGX-UHFFFAOYSA-N_conf_3_0.chk
 -------------------------------------------------------
 # opt=CalcFc B3LYP/6-31G** SCRF=(Solvent=water) scf=xqc
 -------------------------------------------------------
 1/10=4,18=20,19=15,26=3,38=1/1,3;
 2/9=110,12=2,17=6,18=5,40=1/2;
 3/5=1,6=6,7=101,11=2,25=1,30=1,70=2201,71=2,72=1,74=-5,140=1/1,2,3;
 4//1;
 5/5=2,8=3,13=1,38=5,53=1/2,8;
 8/6=4,10=90,11=11/1;
 11/6=1,8=1,9=11,15=111,16=1/1,2,10;
 10/6=1,13=1/2;
 6/7=2,8=2,9=2,10=2,28=1/1;
 7/10=1,18=20,25=1/1,2,3,16;
 1/10=4,18=20,19=15,26=3/3(2);
 2/9=110/2;
 99//99;
 2/9=110/2;
 3/5=1,6=6,7=101,11=2,25=1,30=1,70=2205,71=1,72=1,74=-5/1,2,3;
 4/5=5,16=3,69=1/1;
 5/5=2,8=3,13=1,38=5,53=1/2,8;
 7//1,2,3,16;
 1/18=20,19=15,26=3/3(-5);
 2/9=110/2;
 6/7=2,8=2,9=2,10=2,19=2,28=1/1;
 99/9=1/99;
 ----------------------------------
 ZLSMCQSGRWNEGX-UHFFFAOYSA-N_conf_3
 ----------------------------------
 Symbolic Z-matrix:
 Charge =  0 Multiplicity = 1
 O                     0.22984  -2.72112   0.60067 
 C                     0.12458  -1.50897   0.43145 
 C                    -1.21953  -0.8792    0.48508 
 C                    -2.32516  -1.62565   0.06795 
 C                    -3.60656  -1.06853   0.11828 
 C                    -3.79759   0.2448    0.55497 
 N                    -5.09054   0.75247   0.71493 
 C                    -2.69777   0.95506   1.0443 
 C                    -1.41134   0.40677   0.99918 
 C                     1.34758  -0.70824   0.17571 
 C                     2.5284   -1.06572   0.83218 
 C                     3.70016  -0.33647   0.61068 
 C                     3.72237   0.71665  -0.30747 
 N                     4.8627    1.51691  -0.43369 
 C                     2.52891   1.08973  -0.9325 
 C                     1.35038   0.36785  -0.71668 
 H                    -2.19527  -2.64728  -0.28333 
 H                    -4.45636  -1.67548  -0.18336 
 H                    -5.14129   1.766     0.73249 
 H                    -5.77759   0.34143   0.09059 
 H                    -2.83524   1.9432    1.47639 
 H                    -0.58069   0.9835    1.39746 
 H                     2.53645  -1.90267   1.52739 
 H                     4.59912  -0.60528   1.15937 
 H                     4.91488   2.02651  -1.31019 
 H                     5.72963   1.03286  -0.22012 
 H                     2.50903   1.94511  -1.60315 
 H                     0.45089   0.65579  -1.25397 
 

 GradGradGradGradGradGradGradGradGradGradGradGradGradGradGradGradGradGrad
 Berny optimization.
 Initialization pass.
                           ----------------------------
                           !    Initial Parameters    !
                           ! (Angstroms and Degrees)  !
 --------------------------                            --------------------------
 ! Name  Definition              Value          Derivative Info.                !
 --------------------------------------------------------------------------------
 ! R1    R(1,2)                  1.2284         calculate D2E/DX2 analytically  !
 ! R2    R(2,3)                  1.4853         calculate D2E/DX2 analytically  !
 ! R3    R(2,10)                 1.484          calculate D2E/DX2 analytically  !
 ! R4    R(3,4)                  1.3977         calculate D2E/DX2 analytically  !
 ! R5    R(3,9)                  1.3981         calculate D2E/DX2 analytically  !
 ! R6    R(4,5)                  1.3982         calculate D2E/DX2 analytically  !
 ! R7    R(4,17)                 1.0881         calculate D2E/DX2 analytically  !
 ! R8    R(5,6)                  1.3972         calculate D2E/DX2 analytically  !
 ! R9    R(5,18)                 1.087          calculate D2E/DX2 analytically  !
 ! R10   R(6,7)                  1.3982         calculate D2E/DX2 analytically  !
 ! R11   R(6,8)                  1.3977         calculate D2E/DX2 analytically  !
 ! R12   R(7,19)                 1.015          calculate D2E/DX2 analytically  !
 ! R13   R(7,20)                 1.0153         calculate D2E/DX2 analytically  !
 ! R14   R(8,9)                  1.3991         calculate D2E/DX2 analytically  !
 ! R15   R(8,21)                 1.0872         calculate D2E/DX2 analytically  !
 ! R16   R(9,22)                 1.0868         calculate D2E/DX2 analytically  !
 ! R17   R(10,11)                1.3975         calculate D2E/DX2 analytically  !
 ! R18   R(10,16)                1.398          calculate D2E/DX2 analytically  !
 ! R19   R(11,12)                1.3978         calculate D2E/DX2 analytically  !
 ! R20   R(11,23)                1.0881         calculate D2E/DX2 analytically  !
 ! R21   R(12,13)                1.3973         calculate D2E/DX2 analytically  !
 ! R22   R(12,24)                1.087          calculate D2E/DX2 analytically  !
 ! R23   R(13,14)                1.3988         calculate D2E/DX2 analytically  !
 ! R24   R(13,15)                1.3979         calculate D2E/DX2 analytically  !
 ! R25   R(14,25)                1.0152         calculate D2E/DX2 analytically  !
 ! R26   R(14,26)                1.0156         calculate D2E/DX2 analytically  !
 ! R27   R(15,16)                1.3988         calculate D2E/DX2 analytically  !
 ! R28   R(15,27)                1.0871         calculate D2E/DX2 analytically  !
 ! R29   R(16,28)                1.0866         calculate D2E/DX2 analytically  !
 ! A1    A(1,2,3)              119.403          calculate D2E/DX2 analytically  !
 ! A2    A(1,2,10)             119.0484         calculate D2E/DX2 analytically  !
 ! A3    A(3,2,10)             121.5486         calculate D2E/DX2 analytically  !
 ! A4    A(2,3,4)              118.5951         calculate D2E/DX2 analytically  !
 ! A5    A(2,3,9)              121.8304         calculate D2E/DX2 analytically  !
 ! A6    A(4,3,9)              119.5            calculate D2E/DX2 analytically  !
 ! A7    A(3,4,5)              120.0939         calculate D2E/DX2 analytically  !
 ! A8    A(3,4,17)             120.2213         calculate D2E/DX2 analytically  !
 ! A9    A(5,4,17)             119.6786         calculate D2E/DX2 analytically  !
 ! A10   A(4,5,6)              120.7382         calculate D2E/DX2 analytically  !
 ! A11   A(4,5,18)             118.948          calculate D2E/DX2 analytically  !
 ! A12   A(6,5,18)             120.3131         calculate D2E/DX2 analytically  !
 ! A13   A(5,6,7)              120.2309         calculate D2E/DX2 analytically  !
 ! A14   A(5,6,8)              118.6538         calculate D2E/DX2 analytically  !
 ! A15   A(7,6,8)              120.2045         calculate D2E/DX2 analytically  !
 ! A16   A(6,7,19)             114.2544         calculate D2E/DX2 analytically  !
 ! A17   A(6,7,20)             114.1053         calculate D2E/DX2 analytically  !
 ! A18   A(19,7,20)            112.4012         calculate D2E/DX2 analytically  !
 ! A19   A(6,8,9)              120.8688         calculate D2E/DX2 analytically  !
 ! A20   A(6,8,21)             120.0997         calculate D2E/DX2 analytically  !
 ! A21   A(9,8,21)             119.0287         calculate D2E/DX2 analytically  !
 ! A22   A(3,9,8)              119.8964         calculate D2E/DX2 analytically  !
 ! A23   A(3,9,22)             121.1966         calculate D2E/DX2 analytically  !
 ! A24   A(8,9,22)             118.8778         calculate D2E/DX2 analytically  !
 ! A25   A(2,10,11)            118.513          calculate D2E/DX2 analytically  !
 ! A26   A(2,10,16)            121.802          calculate D2E/DX2 analytically  !
 ! A27   A(11,10,16)           119.6738         calculate D2E/DX2 analytically  !
 ! A28   A(10,11,12)           120.0266         calculate D2E/DX2 analytically  !
 ! A29   A(10,11,23)           120.2088         calculate D2E/DX2 analytically  !
 ! A30   A(12,11,23)           119.759          calculate D2E/DX2 analytically  !
 ! A31   A(11,12,13)           120.7067         calculate D2E/DX2 analytically  !
 ! A32   A(11,12,24)           118.9656         calculate D2E/DX2 analytically  !
 ! A33   A(13,12,24)           120.3263         calculate D2E/DX2 analytically  !
 ! A34   A(12,13,14)           120.2265         calculate D2E/DX2 analytically  !
 ! A35   A(12,13,15)           118.7738         calculate D2E/DX2 analytically  !
 ! A36   A(14,13,15)           120.1947         calculate D2E/DX2 analytically  !
 ! A37   A(13,14,25)           114.015          calculate D2E/DX2 analytically  !
 ! A38   A(13,14,26)           113.8421         calculate D2E/DX2 analytically  !
 ! A39   A(25,14,26)           112.1432         calculate D2E/DX2 analytically  !
 ! A40   A(13,15,16)           120.836          calculate D2E/DX2 analytically  !
 ! A41   A(13,15,27)           120.0951         calculate D2E/DX2 analytically  !
 ! A42   A(16,15,27)           119.0668         calculate D2E/DX2 analytically  !
 ! A43   A(10,16,15)           119.8296         calculate D2E/DX2 analytically  !
 ! A44   A(10,16,28)           121.1962         calculate D2E/DX2 analytically  !
 ! A45   A(15,16,28)           118.9737         calculate D2E/DX2 analytically  !
 ! D1    D(1,2,3,4)            -31.3773         calculate D2E/DX2 analytically  !
 ! D2    D(1,2,3,9)            145.4672         calculate D2E/DX2 analytically  !
 ! D3    D(10,2,3,4)           148.5317         calculate D2E/DX2 analytically  !
 ! D4    D(10,2,3,9)           -34.6238         calculate D2E/DX2 analytically  !
 ! D5    D(1,2,10,11)          -36.0219         calculate D2E/DX2 analytically  !
 ! D6    D(1,2,10,16)          142.7546         calculate D2E/DX2 analytically  !
 ! D7    D(3,2,10,11)          144.0688         calculate D2E/DX2 analytically  !
 ! D8    D(3,2,10,16)          -37.1547         calculate D2E/DX2 analytically  !
 ! D9    D(2,3,4,5)            179.3383         calculate D2E/DX2 analytically  !
 ! D10   D(2,3,4,17)             0.2486         calculate D2E/DX2 analytically  !
 ! D11   D(9,3,4,5)              2.4185         calculate D2E/DX2 analytically  !
 ! D12   D(9,3,4,17)          -176.6711         calculate D2E/DX2 analytically  !
 ! D13   D(2,3,9,8)           -179.2753         calculate D2E/DX2 analytically  !
 ! D14   D(2,3,9,22)            -1.2602         calculate D2E/DX2 analytically  !
 ! D15   D(4,3,9,8)             -2.4587         calculate D2E/DX2 analytically  !
 ! D16   D(4,3,9,22)           175.5564         calculate D2E/DX2 analytically  !
 ! D17   D(3,4,5,6)              1.4451         calculate D2E/DX2 analytically  !
 ! D18   D(3,4,5,18)          -178.2386         calculate D2E/DX2 analytically  !
 ! D19   D(17,4,5,6)          -179.4602         calculate D2E/DX2 analytically  !
 ! D20   D(17,4,5,18)            0.856          calculate D2E/DX2 analytically  !
 ! D21   D(4,5,6,7)           -174.2827         calculate D2E/DX2 analytically  !
 ! D22   D(4,5,6,8)             -5.1807         calculate D2E/DX2 analytically  !
 ! D23   D(18,5,6,7)             5.3967         calculate D2E/DX2 analytically  !
 ! D24   D(18,5,6,8)           174.4987         calculate D2E/DX2 analytically  !
 ! D25   D(5,6,7,19)          -160.8419         calculate D2E/DX2 analytically  !
 ! D26   D(5,6,7,20)           -29.5793         calculate D2E/DX2 analytically  !
 ! D27   D(8,6,7,19)            30.2259         calculate D2E/DX2 analytically  !
 ! D28   D(8,6,7,20)           161.4885         calculate D2E/DX2 analytically  !
 ! D29   D(5,6,8,9)              5.1421         calculate D2E/DX2 analytically  !
 ! D30   D(5,6,8,21)          -174.2489         calculate D2E/DX2 analytically  !
 ! D31   D(7,6,8,9)            174.2469         calculate D2E/DX2 analytically  !
 ! D32   D(7,6,8,21)            -5.144          calculate D2E/DX2 analytically  !
 ! D33   D(6,8,9,3)             -1.3592         calculate D2E/DX2 analytically  !
 ! D34   D(6,8,9,22)          -179.4203         calculate D2E/DX2 analytically  !
 ! D35   D(21,8,9,3)           178.0381         calculate D2E/DX2 analytically  !
 ! D36   D(21,8,9,22)           -0.0229         calculate D2E/DX2 analytically  !
 ! D37   D(2,10,11,12)         179.7558         calculate D2E/DX2 analytically  !
 ! D38   D(2,10,11,23)          -1.106          calculate D2E/DX2 analytically  !
 ! D39   D(16,10,11,12)          0.9526         calculate D2E/DX2 analytically  !
 ! D40   D(16,10,11,23)       -179.9092         calculate D2E/DX2 analytically  !
 ! D41   D(2,10,16,15)        -179.6243         calculate D2E/DX2 analytically  !
 ! D42   D(2,10,16,28)           0.1174         calculate D2E/DX2 analytically  !
 ! D43   D(11,10,16,15)         -0.8617         calculate D2E/DX2 analytically  !
 ! D44   D(11,10,16,28)        178.88           calculate D2E/DX2 analytically  !
 ! D45   D(10,11,12,13)         -2.7801         calculate D2E/DX2 analytically  !
 ! D46   D(10,11,12,24)        177.6462         calculate D2E/DX2 analytically  !
 ! D47   D(23,11,12,13)        178.0778         calculate D2E/DX2 analytically  !
 ! D48   D(23,11,12,24)         -1.4959         calculate D2E/DX2 analytically  !
 ! D49   D(11,12,13,14)        174.1808         calculate D2E/DX2 analytically  !
 ! D50   D(11,12,13,15)          4.4334         calculate D2E/DX2 analytically  !
 ! D51   D(24,12,13,14)         -6.2513         calculate D2E/DX2 analytically  !
 ! D52   D(24,12,13,15)       -175.9987         calculate D2E/DX2 analytically  !
 ! D53   D(12,13,14,25)        159.9756         calculate D2E/DX2 analytically  !
 ! D54   D(12,13,14,26)         29.5816         calculate D2E/DX2 analytically  !
 ! D55   D(15,13,14,25)        -30.4234         calculate D2E/DX2 analytically  !
 ! D56   D(15,13,14,26)       -160.8174         calculate D2E/DX2 analytically  !
 ! D57   D(12,13,15,16)         -4.3488         calculate D2E/DX2 analytically  !
 ! D58   D(12,13,15,27)        176.1905         calculate D2E/DX2 analytically  !
 ! D59   D(14,13,15,16)       -174.0996         calculate D2E/DX2 analytically  !
 ! D60   D(14,13,15,27)          6.4397         calculate D2E/DX2 analytically  !
 ! D61   D(13,15,16,10)          2.6005         calculate D2E/DX2 analytically  !
 ! D62   D(13,15,16,28)       -177.1468         calculate D2E/DX2 analytically  !
 ! D63   D(27,15,16,10)       -177.9333         calculate D2E/DX2 analytically  !
 ! D64   D(27,15,16,28)          2.3193         calculate D2E/DX2 analytically  !
 --------------------------------------------------------------------------------
 Trust Radius=3.00D-01 FncErr=1.00D-07 GrdErr=1.00D-06 EigMax=2.50D+02 EigMin=1.00D-04
 Number of steps in this run=    148 maximum allowed number of steps=    168.
 GradGradGradGradGradGradGradGradGradGradGradGradGradGradGradGradGradGrad

                          Input orientation:                          
 ---------------------------------------------------------------------
 Center     Atomic      Atomic             Coordinates (Angstroms)
 Number     Number       Type             X           Y           Z
 ---------------------------------------------------------------------
      1          8           0        0.229842   -2.721117    0.600675
      2          6           0        0.124585   -1.508972    0.431447
      3          6           0       -1.219534   -0.879199    0.485085
      4          6           0       -2.325159   -1.625647    0.067949
      5          6           0       -3.606561   -1.068530    0.118284
      6          6           0       -3.797592    0.244804    0.554966
      7          7           0       -5.090541    0.752466    0.714929
      8          6           0       -2.697766    0.955061    1.044299
      9          6           0       -1.411337    0.406767    0.999181
     10          6           0        1.347580   -0.708244    0.175715
     11          6           0        2.528396   -1.065722    0.832185
     12          6           0        3.700156   -0.336468    0.610676
     13          6           0        3.722373    0.716646   -0.307467
     14          7           0        4.862699    1.516905   -0.433691
     15          6           0        2.528915    1.089730   -0.932504
     16          6           0        1.350377    0.367849   -0.716681
     17          1           0       -2.195269   -2.647284   -0.283332
     18          1           0       -4.456357   -1.675481   -0.183362
     19          1           0       -5.141294    1.766000    0.732490
     20          1           0       -5.777589    0.341426    0.090592
     21          1           0       -2.835236    1.943202    1.476391
     22          1           0       -0.580688    0.983503    1.397457
     23          1           0        2.536451   -1.902673    1.527390
     24          1           0        4.599124   -0.605277    1.159370
     25          1           0        4.914877    2.026509   -1.310188
     26          1           0        5.729628    1.032855   -0.220118
     27          1           0        2.509026    1.945106   -1.603146
     28          1           0        0.450893    0.655787   -1.253972
 ---------------------------------------------------------------------
                    Distance matrix (angstroms):
                    1          2          3          4          5
     1  O    0.000000
     2  C    1.228419   0.000000
     3  C    2.346639   1.485310   0.000000
     4  C    2.830527   2.479312   1.397710   0.000000
     5  C    4.204965   3.770081   2.422455   1.398179   0.000000
     6  C    5.001899   4.298192   2.813299   2.429780   1.397151
     7  N    6.354943   5.691397   4.207119   3.704233   2.423676
     8  C    4.720379   3.796407   2.421239   2.784268   2.403817
     9  C    3.554706   2.520205   1.398138   2.415154   2.787740
    10  C    2.341279   1.484008   2.591333   3.787116   4.967556
    11  C    2.842055   2.476967   3.768586   4.945156   6.176355
    12  C    4.210669   3.767174   4.951129   6.185544   7.359789
    13  C    4.984045   4.294583   5.253313   6.496146   7.555223
    14  N    6.363498   5.688069   6.601441   7.860826   8.872290
    15  C    4.707327   3.793997   4.465099   5.651213   6.588347
    16  C    3.540160   2.518575   3.099001   4.254319   5.227962
    17  H    2.582263   2.681117   2.160706   1.088124   2.155343
    18  H    4.865031   4.625013   3.399693   2.146543   1.086983
    19  H    7.000050   6.208506   4.736928   4.458194   3.281343
    20  H    6.762291   6.194821   4.735126   3.973558   2.588842
    21  H    5.649553   4.665828   3.399872   3.870474   3.392628
    22  H    3.875053   2.764600   2.170301   3.408582   3.873375
    23  H    2.617078   2.678281   4.030052   5.083499   6.357513
    24  H    4.886670   4.622558   5.863998   7.083647   8.284427
    25  H    6.938364   6.203210   7.021192   8.225304   9.177947
    26  H    6.709222   6.188855   7.241831   8.487062   9.575739
    27  H    5.641378   4.664309   5.122457   6.237963   7.031766
    28  H    3.859023   2.762842   2.858465   3.828691   4.617282
                    6          7          8          9         10
     6  C    0.000000
     7  N    1.398222   0.000000
     8  C    1.397687   2.423819   0.000000
     9  C    2.432647   3.706325   1.399129   0.000000
    10  C    5.246420   6.623731   4.459354   3.087550   0.000000
    11  C    6.466254   7.833757   5.607256   4.209228   1.397523
    12  C    7.520453   8.858499   6.541367   5.179836   2.421162
    13  C    7.583950   8.872092   6.565234   5.306442   2.811302
    14  N    8.808878  10.048417   7.724037   6.530625   4.204608
    15  C    6.553713   7.802813   5.589640   4.441107   2.420002
    16  C    5.304131   6.609300   4.453462   3.251578   1.397982
    17  H    3.410917   4.575743   3.871950   3.403912   4.064773
    18  H    2.160230   2.665341   3.394046   3.873798   5.894927
    19  H    2.037422   1.014956   2.593391   3.978846   6.966876
    20  H    2.036018   1.015276   3.281983   4.460265   7.202574
    21  H    2.158635   2.661592   1.087209   2.148453   5.120339
    22  H    3.406455   4.567055   2.146520   1.086842   2.841281
    23  H    6.758503   8.116703   5.983064   4.604080   2.160348
    24  H    8.461252   9.794417   7.462741   6.097174   3.398635
    25  H    9.086274  10.287500   8.040145   6.926596   4.734172
    26  H    9.591126  10.864115   8.522076   7.271318   4.731856
    27  H    6.879092   8.034256   5.924511   4.950539   3.399054
    28  H    4.635815   5.881615   3.909688   2.933702   2.169938
                   11         12         13         14         15
    11  C    0.000000
    12  C    1.397820   0.000000
    13  C    2.429243   1.397330   0.000000
    14  N    3.704238   2.424294   1.398818   0.000000
    15  C    2.785695   2.405671   1.397929   2.424426   0.000000
    16  C    2.416989   2.789158   2.432176   3.706322   1.398801
    17  H    5.104775   6.394933   6.806989   8.196219   6.058433
    18  H    7.084484   8.303744   8.522282   9.853872   7.549942
    19  H    8.176352   9.088809   8.985947  10.074816   7.877922
    20  H    8.456914   9.516180   9.515698  10.717852   8.402660
    21  H    6.183621   6.975508   6.905710   7.942818   5.941827
    22  H    3.766332   4.548294   4.636196   5.767849   3.887111
    23  H    1.088055   2.155823   3.410857   4.577203   3.873708
    24  H    2.146387   1.086953   2.160506   2.666641   3.396285
    25  H    4.454991   3.278555   2.035499   1.015217   2.590949
    26  H    3.969793   2.585347   2.033886   1.015620   3.279527
    27  H    3.872505   3.394905   2.158728   2.662848   1.087117
    28  H    3.410522   3.875461   3.406194   4.569291   2.147050
                   16         17         18         19         20
    16  C    0.000000
    17  H    4.674443   0.000000
    18  H    6.178817   2.463110   0.000000
    19  H    6.796816   5.402595   3.626529   0.000000
    20  H    7.173582   4.680301   2.426648   1.687103   0.000000
    21  H    4.981030   4.957695   4.298567   2.429546   3.625405
    22  H    2.928758   4.314457   4.958830   4.674784   5.397030
    23  H    3.405569   5.120775   7.202614   8.546274   8.730615
    24  H    3.875681   7.239818   9.216833  10.033989  10.474479
    25  H    3.976061   8.570470  10.138761  10.264842  10.914692
    26  H    4.457203   8.737930  10.539959  10.937181  11.532158
    27  H    2.148495   6.705397   7.977530   8.000917   8.608631
    28  H    1.086583   4.342188   5.537338   6.037479   6.379707
                   21         22         23         24         25
    21  H    0.000000
    22  H    2.451579   0.000000
    23  H    6.606692   4.250112   0.000000
    24  H    7.865428   5.423224   2.464406   0.000000
    25  H    8.236275   6.214534   5.398817   3.622804   0.000000
    26  H    8.778598   6.514528   4.676269   2.421673   1.685058
    27  H    6.168038   4.413007   4.960485   4.301681   2.424988
    28  H    4.462170   2.863849   4.316393   4.962089   4.670031
                   26         27         28
    26  H    0.000000
    27  H    3.621774   0.000000
    28  H    5.392225   2.453605   0.000000
 Stoichiometry    C13H12N2O
 Framework group  C1[X(C13H12N2O)]
 Deg. of freedom    78
 Full point group                 C1      NOp   1
 Largest Abelian subgroup         C1      NOp   1
 Largest concise Abelian subgroup C1      NOp   1
                         Standard orientation:                         
 ---------------------------------------------------------------------
 Center     Atomic      Atomic             Coordinates (Angstroms)
 Number     Number       Type             X           Y           Z
 ---------------------------------------------------------------------
      1          8           0       -0.001005    2.553064   -0.027309
      2          6           0        0.000225    1.324690   -0.016858
      3          6           0        1.294509    0.597085    0.022704
      4          6           0        2.407226    1.177343   -0.592727
      5          6           0        3.644166    0.526217   -0.562429
      6          6           0        3.779950   -0.720601    0.053232
      7          7           0        5.042180   -1.307942    0.182974
      8          6           0        2.682358   -1.255129    0.733745
      9          6           0        1.440278   -0.611505    0.710347
     10          6           0       -1.295902    0.602559   -0.046179
     11          6           0       -2.381243    1.151703    0.641967
     12          6           0       -3.618137    0.500644    0.631217
     13          6           0       -3.802075   -0.669631   -0.109832
     14          7           0       -5.003964   -1.379421   -0.018432
     15          6           0       -2.702366   -1.230638   -0.765664
     16          6           0       -1.459806   -0.588255   -0.759937
     17          1           0        2.319096    2.143946   -1.084587
     18          1           0        4.503584    1.007726   -1.021865
     19          1           0        5.021093   -2.308603    0.351400
     20          1           0        5.695667   -1.052806   -0.550951
     21          1           0        2.787992   -2.177548    1.299438
     22          1           0        0.611092   -1.050741    1.258753
     23          1           0       -2.263818    2.078920    1.199052
     24          1           0       -4.440084    0.922572    1.203796
     25          1           0       -5.174541   -2.005386   -0.799289
     26          1           0       -5.809916   -0.797103    0.188523
     27          1           0       -2.807072   -2.173433   -1.296701
     28          1           0       -0.637660   -1.027413   -1.318397
 ---------------------------------------------------------------------
 Rotational constants (GHZ):           1.3576570           0.2508366           0.2225145
 Standard basis: 6-31G(d,p) (6D, 7F)
 There are   300 symmetry adapted cartesian basis functions of A   symmetry.
 There are   300 symmetry adapted basis functions of A   symmetry.
   300 basis functions,   532 primitive gaussians,   300 cartesian basis functions
    56 alpha electrons       56 beta electrons
       nuclear repulsion energy       976.0494298950 Hartrees.
 NAtoms=   28 NActive=   28 NUniq=   28 SFac= 1.00D+00 NAtFMM=   60 NAOKFM=F Big=F
 Integral buffers will be    131072 words long.
 Raffenetti 2 integral format.
 Two-electron integral symmetry is turned on.
 Force inversion solution in PCM.
 ------------------------------------------------------------------------------
 Polarizable Continuum Model (PCM)
 =================================
 Model                : PCM.
 Atomic radii         : UFF (Universal Force Field).
 Polarization charges : Total charges.
 Charge compensation  : None.
 Solution method      : Matrix inversion.
 Cavity type          : Scaled VdW (van der Waals Surface) (Alpha=1.100).
 Cavity algorithm     : GePol (No added spheres)
                        Default sphere list used, NSphG=   28.
                        Lebedev-Laikov grids with approx.  5.0 points / Ang**2.
                        Smoothing algorithm: York/Karplus (Gamma=1.0000).
                        Polarization charges: spherical gaussians, with
                                              point-specific exponents (IZeta= 3).
                        Self-potential: point-specific (ISelfS= 7).
                        Self-field    : sphere-specific E.n sum rule (ISelfD= 2).
 1st derivatives      : Analytical E(r).r(x)/FMM algorithm (CHGder, D1EAlg=3).
                        Cavity 1st derivative terms included.
 2nd derivatives      : Analytical E(r).r(xy)/FMM algorithm (CHGder, D2EAlg=3).
                        Cavity 2nd derivative terms included.
 Solvent              : Water, Eps=  78.355300 Eps(inf)=   1.777849
 ------------------------------------------------------------------------------
 One-electron integrals computed using PRISM.
 NBasis=   300 RedAO= T EigKep=  4.30D-04  NBF=   300
 NBsUse=   300 1.00D-06 EigRej= -1.00D+00 NBFU=   300
 ExpMin= 1.61D-01 ExpMax= 5.48D+03 ExpMxC= 8.25D+02 IAcc=3 IRadAn=         5 AccDes= 0.00D+00
 Harris functional with IExCor=  402 and IRadAn=       5 diagonalized for initial guess.
 HarFok:  IExCor=  402 AccDes= 0.00D+00 IRadAn=         5 IDoV= 1 UseB2=F ITyADJ=14
 ICtDFT=  3500011 ScaDFX=  1.000000  1.000000  1.000000  1.000000
 FoFCou: FMM=F IPFlag=           0 FMFlag=      100000 FMFlg1=           0
         NFxFlg=           0 DoJE=T BraDBF=F KetDBF=T FulRan=T
         wScrn=  0.000000 ICntrl=       500 IOpCl=  0 I1Cent=   200000004 NGrid=           0
         NMat0=    1 NMatS0=      1 NMatT0=    0 NMatD0=    1 NMtDS0=    0 NMtDT0=    0
 Petite list used in FoFCou.
 Keep R1 ints in memory in canonical form, NReq=1032920980.
 Requested convergence on RMS density matrix=1.00D-08 within  32 cycles.
 Requested convergence on MAX density matrix=1.00D-06.
 Requested convergence on             energy=1.00D-06.
 No special actions if energy rises.
 Inv3:  Mode=1 IEnd=    14113683.
 Iteration    1 A*A^-1 deviation from unit magnitude is 3.33D-15 for    586.
 Iteration    1 A*A^-1 deviation from orthogonality  is 2.41D-15 for   1893   1307.
 Iteration    1 A^-1*A deviation from unit magnitude is 3.33D-15 for   1090.
 Iteration    1 A^-1*A deviation from orthogonality  is 7.24D-14 for   1072   1022.
 Error on total polarization charges =  0.00873
 SCF Done:  E(RB3LYP) =  -687.382039664     A.U. after   12 cycles
            NFock= 12  Conv=0.97D-08     -V/T= 2.0095
 QCSCF skips out because SCF is already converged.
 DoSCS=F DFT=T ScalE2(SS,OS)=  1.000000  1.000000
 Range of M.O.s used for correlation:     1   300
 NBasis=   300 NAE=    56 NBE=    56 NFC=     0 NFV=     0
 NROrb=    300 NOA=    56 NOB=    56 NVA=   244 NVB=   244
 Symmetrizing basis deriv contribution to polar:
 IMax=3 JMax=2 DiffMx= 0.00D+00
 G2DrvN: will do    29 centers at a time, making    1 passes.
 Calling FoFCou, ICntrl=  3107 FMM=F I1Cent=   0 AccDes= 0.00D+00.
 NEqPCM:  Using equilibrium solvation (IEInf=0, Eps=  78.3553, EpsInf=   1.7778)
 G2PCM: DoFxE=T DoFxN=T DoGrad=T DoDP/DQ/DG/TGxP=FFFF NFrqRd=   0 IEInf=0 SqF1=F DoCFld=F IF1Alg=4.
 End of G2Drv F.D. properties file   721 does not exist.
 End of G2Drv F.D. properties file   722 does not exist.
 End of G2Drv F.D. properties file   788 does not exist.
          IDoAtm=1111111111111111111111111111
 NEqPCM:  Using equilibrium solvation (IEInf=0, Eps=  78.3553, EpsInf=   1.7778)
          Differentiating once with respect to nuclear coordinates.
 Keep R1 ints in memory in canonical form, NReq=1032932641.
          There are    87 degrees of freedom in the 1st order CPHF.  IDoFFX=6 NUNeed=     0.
     81 vectors produced by pass  0 Test12= 1.57D-14 1.15D-09 XBig12= 1.25D-01 1.17D-01.
 AX will form    81 AO Fock derivatives at one time.
     81 vectors produced by pass  1 Test12= 1.57D-14 1.15D-09 XBig12= 4.73D-02 6.13D-02.
     81 vectors produced by pass  2 Test12= 1.57D-14 1.15D-09 XBig12= 2.82D-04 2.55D-03.
     81 vectors produced by pass  3 Test12= 1.57D-14 1.15D-09 XBig12= 1.14D-06 1.87D-04.
     81 vectors produced by pass  4 Test12= 1.57D-14 1.15D-09 XBig12= 3.46D-09 6.59D-06.
     63 vectors produced by pass  5 Test12= 1.57D-14 1.15D-09 XBig12= 3.80D-12 2.21D-07.
     17 vectors produced by pass  6 Test12= 1.57D-14 1.15D-09 XBig12= 3.30D-15 5.95D-09.
 InvSVY:  IOpt=1 It=  1 EMax= 5.00D-16
 Solved reduced A of dimension   485 with    87 vectors.
 End of Minotr F.D. properties file   721 does not exist.
 End of Minotr F.D. properties file   722 does not exist.
 End of Minotr F.D. properties file   788 does not exist.

 **********************************************************************

            Population analysis using the SCF density.

 **********************************************************************

 Orbital symmetries:
       Occupied  (A) (A) (A) (A) (A) (A) (A) (A) (A) (A) (A) (A)
                 (A) (A) (A) (A) (A) (A) (A) (A) (A) (A) (A) (A)
                 (A) (A) (A) (A) (A) (A) (A) (A) (A) (A) (A) (A)
                 (A) (A) (A) (A) (A) (A) (A) (A) (A) (A) (A) (A)
                 (A) (A) (A) (A) (A) (A) (A) (A)
       Virtual   (A) (A) (A) (A) (A) (A) (A) (A) (A) (A) (A) (A)
                 (A) (A) (A) (A) (A) (A) (A) (A) (A) (A) (A) (A)
                 (A) (A) (A) (A) (A) (A) (A) (A) (A) (A) (A) (A)
                 (A) (A) (A) (A) (A) (A) (A) (A) (A) (A) (A) (A)
                 (A) (A) (A) (A) (A) (A) (A) (A) (A) (A) (A) (A)
                 (A) (A) (A) (A) (A) (A) (A) (A) (A) (A) (A) (A)
                 (A) (A) (A) (A) (A) (A) (A) (A) (A) (A) (A) (A)
                 (A) (A) (A) (A) (A) (A) (A) (A) (A) (A) (A) (A)
                 (A) (A) (A) (A) (A) (A) (A) (A) (A) (A) (A) (A)
                 (A) (A) (A) (A) (A) (A) (A) (A) (A) (A) (A) (A)
                 (A) (A) (A) (A) (A) (A) (A) (A) (A) (A) (A) (A)
                 (A) (A) (A) (A) (A) (A) (A) (A) (A) (A) (A) (A)
                 (A) (A) (A) (A) (A) (A) (A) (A) (A) (A) (A) (A)
                 (A) (A) (A) (A) (A) (A) (A) (A) (A) (A) (A) (A)
                 (A) (A) (A) (A) (A) (A) (A) (A) (A) (A) (A) (A)
                 (A) (A) (A) (A) (A) (A) (A) (A) (A) (A) (A) (A)
                 (A) (A) (A) (A) (A) (A) (A) (A) (A) (A) (A) (A)
                 (A) (A) (A) (A) (A) (A) (A) (A) (A) (A) (A) (A)
                 (A) (A) (A) (A) (A) (A) (A) (A) (A) (A) (A) (A)
                 (A) (A) (A) (A) (A) (A) (A) (A) (A) (A) (A) (A)
                 (A) (A) (A) (A)
 The electronic state is 1-A.
 Alpha  occ. eigenvalues --  -19.12531 -14.34381 -14.34326 -10.26606 -10.23594
 Alpha  occ. eigenvalues --  -10.23538 -10.19801 -10.19788 -10.19627 -10.19625
 Alpha  occ. eigenvalues --  -10.18856 -10.18849 -10.18845 -10.18837 -10.18830
 Alpha  occ. eigenvalues --  -10.18825  -1.02757  -0.92077  -0.92039  -0.84795
 Alpha  occ. eigenvalues --   -0.84091  -0.75715  -0.74822  -0.74681  -0.73092
 Alpha  occ. eigenvalues --   -0.63992  -0.61887  -0.61815  -0.60025  -0.55431
 Alpha  occ. eigenvalues --   -0.52807  -0.51276  -0.50890  -0.50852  -0.48428
 Alpha  occ. eigenvalues --   -0.44633  -0.44238  -0.44060  -0.43371  -0.42409
 Alpha  occ. eigenvalues --   -0.42165  -0.41774  -0.39620  -0.38950  -0.37980
 Alpha  occ. eigenvalues --   -0.37335  -0.36527  -0.34572  -0.34419  -0.31720
 Alpha  occ. eigenvalues --   -0.30694  -0.25736  -0.25488  -0.24468  -0.21278
 Alpha  occ. eigenvalues --   -0.21228
 Alpha virt. eigenvalues --   -0.04750  -0.01314  -0.00175   0.00539   0.06478
 Alpha virt. eigenvalues --    0.09219   0.09245   0.10800   0.11316   0.12966
 Alpha virt. eigenvalues --    0.13060   0.15238   0.17041   0.17061   0.17349
 Alpha virt. eigenvalues --    0.17826   0.18268   0.19628   0.20299   0.24561
 Alpha virt. eigenvalues --    0.25249   0.26310   0.28993   0.30303   0.32593
 Alpha virt. eigenvalues --    0.33174   0.33337   0.34403   0.34679   0.35420
 Alpha virt. eigenvalues --    0.38343   0.41173   0.47599   0.49878   0.50486
 Alpha virt. eigenvalues --    0.52017   0.52243   0.52737   0.53528   0.54128
 Alpha virt. eigenvalues --    0.55688   0.56859   0.57621   0.58478   0.58605
 Alpha virt. eigenvalues --    0.58859   0.58911   0.59422   0.60209   0.60450
 Alpha virt. eigenvalues --    0.60933   0.62203   0.62517   0.63381   0.65120
 Alpha virt. eigenvalues --    0.65783   0.67540   0.68888   0.69248   0.70069
 Alpha virt. eigenvalues --    0.70380   0.73589   0.74374   0.75311   0.77672
 Alpha virt. eigenvalues --    0.78942   0.80845   0.81162   0.81716   0.82088
 Alpha virt. eigenvalues --    0.82429   0.83835   0.84079   0.85384   0.85476
 Alpha virt. eigenvalues --    0.86523   0.86797   0.87481   0.88826   0.89311
 Alpha virt. eigenvalues --    0.91313   0.92051   0.92974   0.96729   0.98781
 Alpha virt. eigenvalues --    0.99616   0.99763   1.00430   1.01980   1.02181
 Alpha virt. eigenvalues --    1.04317   1.07563   1.07782   1.11148   1.12546
 Alpha virt. eigenvalues --    1.13136   1.15132   1.16649   1.17354   1.18644
 Alpha virt. eigenvalues --    1.19677   1.23257   1.26396   1.26956   1.27711
 Alpha virt. eigenvalues --    1.30097   1.31165   1.34160   1.38242   1.38884
 Alpha virt. eigenvalues --    1.39652   1.40034   1.40560   1.41333   1.43799
 Alpha virt. eigenvalues --    1.45581   1.47905   1.48715   1.50233   1.51047
 Alpha virt. eigenvalues --    1.56122   1.66309   1.73062   1.74200   1.75190
 Alpha virt. eigenvalues --    1.75377   1.76948   1.77472   1.78184   1.79594
 Alpha virt. eigenvalues --    1.80852   1.81780   1.82071   1.84900   1.86435
 Alpha virt. eigenvalues --    1.86819   1.89057   1.89671   1.91274   1.92946
 Alpha virt. eigenvalues --    1.94869   1.96206   1.96503   1.96670   1.97499
 Alpha virt. eigenvalues --    1.98954   1.99223   1.99876   2.02446   2.04145
 Alpha virt. eigenvalues --    2.07952   2.08652   2.09932   2.10379   2.12416
 Alpha virt. eigenvalues --    2.16283   2.16524   2.23180   2.24143   2.24231
 Alpha virt. eigenvalues --    2.25670   2.26475   2.29198   2.29837   2.31978
 Alpha virt. eigenvalues --    2.33110   2.33340   2.34701   2.35200   2.36426
 Alpha virt. eigenvalues --    2.38832   2.40883   2.41143   2.42011   2.43969
 Alpha virt. eigenvalues --    2.44318   2.45892   2.46462   2.46902   2.47985
 Alpha virt. eigenvalues --    2.49451   2.49984   2.51211   2.54498   2.54849
 Alpha virt. eigenvalues --    2.56206   2.56549   2.59231   2.59427   2.60152
 Alpha virt. eigenvalues --    2.61799   2.65549   2.66112   2.67595   2.69370
 Alpha virt. eigenvalues --    2.72402   2.73027   2.77747   2.79033   2.79382
 Alpha virt. eigenvalues --    2.81681   2.84607   2.84887   2.87800   2.93838
 Alpha virt. eigenvalues --    2.96606   2.98198   2.98520   3.05179   3.05547
 Alpha virt. eigenvalues --    3.09672   3.11666   3.18916   3.19190   3.24872
 Alpha virt. eigenvalues --    3.24956   3.27855   3.28063   3.30566   3.33700
 Alpha virt. eigenvalues --    3.37654   3.38512   3.48251   3.48335   3.53308
 Alpha virt. eigenvalues --    3.54485   3.82228   3.84120   4.00065   4.03576
 Alpha virt. eigenvalues --    4.03846   4.13030   4.13342   4.15422   4.15640
 Alpha virt. eigenvalues --    4.19362   4.19961   4.36501   4.42684   4.44450
 Alpha virt. eigenvalues --    4.44905   4.55399   4.80410   4.86659
          Condensed to atoms (all electrons):
               1          2          3          4          5          6
     1  O    8.154028   0.541992  -0.099795   0.003238   0.000765  -0.000002
     2  C    0.541992   4.707490   0.299948  -0.027785   0.005360   0.000511
     3  C   -0.099795   0.299948   5.043938   0.485098  -0.036034  -0.029013
     4  C    0.003238  -0.027785   0.485098   4.915404   0.503902  -0.024272
     5  C    0.000765   0.005360  -0.036034   0.503902   4.965648   0.525628
     6  C   -0.000002   0.000511  -0.029013  -0.024272   0.525628   4.570471
     7  N    0.000000   0.000001   0.000458   0.004270  -0.069928   0.306724
     8  C   -0.000094   0.004751  -0.032561  -0.041315  -0.048566   0.532281
     9  C    0.002289  -0.042418   0.512895  -0.053069  -0.041711  -0.025155
    10  C   -0.101657   0.300989  -0.102598   0.008215  -0.000105  -0.000023
    11  C    0.004081  -0.028318   0.007797  -0.000249   0.000000   0.000001
    12  C    0.000799   0.005580  -0.000103   0.000000  -0.000000   0.000000
    13  C   -0.000021   0.000368  -0.000007   0.000000   0.000000  -0.000000
    14  N   -0.000000   0.000000   0.000000  -0.000000  -0.000000  -0.000000
    15  C   -0.000068   0.005046   0.000239   0.000014  -0.000000  -0.000000
    16  C    0.001721  -0.043121  -0.005783   0.000208  -0.000015  -0.000004
    17  H    0.011637  -0.007843  -0.049094   0.368073  -0.035959   0.003865
    18  H    0.000002  -0.000146   0.003825  -0.033032   0.366336  -0.043268
    19  H    0.000000  -0.000000   0.000004  -0.000179   0.005438  -0.024148
    20  H    0.000000  -0.000000   0.000009  -0.000076  -0.008857  -0.024294
    21  H    0.000001  -0.000155   0.003696   0.000752   0.005033  -0.043121
    22  H    0.000047  -0.007763  -0.042196   0.005392   0.000505   0.003665
    23  H    0.010146  -0.007517   0.000645  -0.000018  -0.000000   0.000000
    24  H    0.000002  -0.000153   0.000002  -0.000000   0.000000   0.000000
    25  H   -0.000000  -0.000000   0.000000  -0.000000   0.000000   0.000000
    26  H    0.000000  -0.000000   0.000000  -0.000000  -0.000000   0.000000
    27  H    0.000001  -0.000149   0.000004  -0.000000  -0.000000   0.000000
    28  H    0.000032  -0.007888   0.006667  -0.000206  -0.000032   0.000005
               7          8          9         10         11         12
     1  O    0.000000  -0.000094   0.002289  -0.101657   0.004081   0.000799
     2  C    0.000001   0.004751  -0.042418   0.300989  -0.028318   0.005580
     3  C    0.000458  -0.032561   0.512895  -0.102598   0.007797  -0.000103
     4  C    0.004270  -0.041315  -0.053069   0.008215  -0.000249   0.000000
     5  C   -0.069928  -0.048566  -0.041711  -0.000105   0.000000  -0.000000
     6  C    0.306724   0.532281  -0.025155  -0.000023   0.000001   0.000000
     7  N    6.813747  -0.070765   0.004661  -0.000000   0.000000  -0.000000
     8  C   -0.070765   4.952972   0.510009   0.000286   0.000012  -0.000000
     9  C    0.004661   0.510009   4.918293  -0.005674   0.000279  -0.000025
    10  C   -0.000000   0.000286  -0.005674   5.040846   0.484276  -0.033996
    11  C    0.000000   0.000012   0.000279   0.484276   4.912758   0.500935
    12  C   -0.000000  -0.000000  -0.000025  -0.033996   0.500935   4.967870
    13  C   -0.000000  -0.000000  -0.000001  -0.031437  -0.021331   0.525011
    14  N    0.000000   0.000000   0.000000   0.000402   0.004447  -0.070366
    15  C    0.000000  -0.000022  -0.000170  -0.031267  -0.042959  -0.047586
    16  C    0.000000  -0.000104  -0.003212   0.515399  -0.048348  -0.042871
    17  H   -0.000106   0.000490   0.005554   0.000674  -0.000016  -0.000000
    18  H   -0.007236   0.005089   0.000669   0.000002  -0.000000   0.000000
    19  H    0.343829  -0.008872  -0.000015  -0.000000   0.000000   0.000000
    20  H    0.343728   0.005425  -0.000167  -0.000000  -0.000000   0.000000
    21  H   -0.007240   0.365579  -0.032202   0.000007  -0.000000  -0.000000
    22  H   -0.000107  -0.034978   0.366808   0.006876  -0.000180  -0.000018
    23  H   -0.000000   0.000001  -0.000031  -0.049230   0.368754  -0.036043
    24  H    0.000000   0.000000  -0.000000   0.004024  -0.033158   0.365870
    25  H   -0.000000  -0.000000  -0.000000   0.000006  -0.000168   0.005368
    26  H   -0.000000  -0.000000  -0.000000   0.000001  -0.000043  -0.009047
    27  H    0.000000   0.000000  -0.000006   0.003720   0.000692   0.005155
    28  H    0.000000   0.000062   0.003527  -0.042335   0.005465   0.000485
              13         14         15         16         17         18
     1  O   -0.000021  -0.000000  -0.000068   0.001721   0.011637   0.000002
     2  C    0.000368   0.000000   0.005046  -0.043121  -0.007843  -0.000146
     3  C   -0.000007   0.000000   0.000239  -0.005783  -0.049094   0.003825
     4  C    0.000000  -0.000000   0.000014   0.000208   0.368073  -0.033032
     5  C    0.000000  -0.000000  -0.000000  -0.000015  -0.035959   0.366336
     6  C   -0.000000  -0.000000  -0.000000  -0.000004   0.003865  -0.043268
     7  N   -0.000000   0.000000   0.000000   0.000000  -0.000106  -0.007236
     8  C   -0.000000   0.000000  -0.000022  -0.000104   0.000490   0.005089
     9  C   -0.000001   0.000000  -0.000170  -0.003212   0.005554   0.000669
    10  C   -0.031437   0.000402  -0.031267   0.515399   0.000674   0.000002
    11  C   -0.021331   0.004447  -0.042959  -0.048348  -0.000016  -0.000000
    12  C    0.525011  -0.070366  -0.047586  -0.042871  -0.000000   0.000000
    13  C    4.572733   0.305311   0.533147  -0.025340   0.000000   0.000000
    14  N    0.305311   6.816506  -0.070549   0.004619  -0.000000  -0.000000
    15  C    0.533147  -0.070549   4.950418   0.510556   0.000001   0.000000
    16  C   -0.025340   0.004619   0.510556   4.912131  -0.000028  -0.000000
    17  H    0.000000  -0.000000   0.000001  -0.000028   0.602516  -0.005682
    18  H    0.000000  -0.000000   0.000000  -0.000000  -0.005682   0.606772
    19  H   -0.000000   0.000000   0.000000   0.000000   0.000003  -0.000042
    20  H   -0.000000  -0.000000   0.000000   0.000000  -0.000005   0.004540
    21  H    0.000000   0.000000   0.000000  -0.000006   0.000017  -0.000174
    22  H   -0.000018  -0.000000   0.000123   0.003283  -0.000150   0.000016
    23  H    0.003904  -0.000105   0.000480   0.005592  -0.000004  -0.000000
    24  H   -0.043070  -0.007293   0.005095   0.000688  -0.000000  -0.000000
    25  H   -0.024012   0.343436  -0.009002  -0.000093  -0.000000  -0.000000
    26  H   -0.024299   0.343117   0.005485  -0.000194  -0.000000  -0.000000
    27  H   -0.042945  -0.007364   0.365121  -0.032528  -0.000000  -0.000000
    28  H    0.003707  -0.000107  -0.035050   0.366671  -0.000011  -0.000000
              19         20         21         22         23         24
     1  O    0.000000   0.000000   0.000001   0.000047   0.010146   0.000002
     2  C   -0.000000  -0.000000  -0.000155  -0.007763  -0.007517  -0.000153
     3  C    0.000004   0.000009   0.003696  -0.042196   0.000645   0.000002
     4  C   -0.000179  -0.000076   0.000752   0.005392  -0.000018  -0.000000
     5  C    0.005438  -0.008857   0.005033   0.000505  -0.000000   0.000000
     6  C   -0.024148  -0.024294  -0.043121   0.003665   0.000000   0.000000
     7  N    0.343829   0.343728  -0.007240  -0.000107  -0.000000   0.000000
     8  C   -0.008872   0.005425   0.365579  -0.034978   0.000001   0.000000
     9  C   -0.000015  -0.000167  -0.032202   0.366808  -0.000031  -0.000000
    10  C   -0.000000  -0.000000   0.000007   0.006876  -0.049230   0.004024
    11  C    0.000000  -0.000000  -0.000000  -0.000180   0.368754  -0.033158
    12  C    0.000000   0.000000  -0.000000  -0.000018  -0.036043   0.365870
    13  C   -0.000000  -0.000000   0.000000  -0.000018   0.003904  -0.043070
    14  N    0.000000  -0.000000   0.000000  -0.000000  -0.000105  -0.007293
    15  C    0.000000   0.000000   0.000000   0.000123   0.000480   0.005095
    16  C    0.000000   0.000000  -0.000006   0.003283   0.005592   0.000688
    17  H    0.000003  -0.000005   0.000017  -0.000150  -0.000004  -0.000000
    18  H   -0.000042   0.004540  -0.000174   0.000016  -0.000000  -0.000000
    19  H    0.423952  -0.027847   0.004477  -0.000006   0.000000   0.000000
    20  H   -0.027847   0.424321  -0.000036   0.000003  -0.000000   0.000000
    21  H    0.004477  -0.000036   0.606917  -0.005677  -0.000000  -0.000000
    22  H   -0.000006   0.000003  -0.005677   0.594728  -0.000015  -0.000000
    23  H    0.000000  -0.000000  -0.000000  -0.000015   0.603538  -0.005739
    24  H    0.000000   0.000000  -0.000000  -0.000000  -0.005739   0.607253
    25  H   -0.000000  -0.000000  -0.000000  -0.000000   0.000003  -0.000048
    26  H   -0.000000  -0.000000  -0.000000  -0.000000  -0.000005   0.004577
    27  H   -0.000000  -0.000000  -0.000000  -0.000004   0.000017  -0.000172
    28  H    0.000000  -0.000000  -0.000004  -0.000405  -0.000148   0.000015
              25         26         27         28
     1  O   -0.000000   0.000000   0.000001   0.000032
     2  C   -0.000000  -0.000000  -0.000149  -0.007888
     3  C    0.000000   0.000000   0.000004   0.006667
     4  C   -0.000000  -0.000000  -0.000000  -0.000206
     5  C    0.000000  -0.000000  -0.000000  -0.000032
     6  C    0.000000   0.000000   0.000000   0.000005
     7  N   -0.000000  -0.000000   0.000000   0.000000
     8  C   -0.000000  -0.000000   0.000000   0.000062
     9  C   -0.000000  -0.000000  -0.000006   0.003527
    10  C    0.000006   0.000001   0.003720  -0.042335
    11  C   -0.000168  -0.000043   0.000692   0.005465
    12  C    0.005368  -0.009047   0.005155   0.000485
    13  C   -0.024012  -0.024299  -0.042945   0.003707
    14  N    0.343436   0.343117  -0.007364  -0.000107
    15  C   -0.009002   0.005485   0.365121  -0.035050
    16  C   -0.000093  -0.000194  -0.032528   0.366671
    17  H   -0.000000  -0.000000  -0.000000  -0.000011
    18  H   -0.000000  -0.000000  -0.000000  -0.000000
    19  H   -0.000000  -0.000000  -0.000000   0.000000
    20  H   -0.000000  -0.000000  -0.000000  -0.000000
    21  H   -0.000000  -0.000000  -0.000000  -0.000004
    22  H   -0.000000  -0.000000  -0.000004  -0.000405
    23  H    0.000003  -0.000005   0.000017  -0.000148
    24  H   -0.000048   0.004577  -0.000172   0.000015
    25  H    0.425194  -0.027958   0.004498  -0.000005
    26  H   -0.027958   0.425876  -0.000047   0.000003
    27  H    0.004498  -0.000047   0.608016  -0.005647
    28  H   -0.000005   0.000003  -0.005647   0.595697
 Mulliken charges:
               1
     1  O   -0.529144
     2  C    0.301219
     3  C    0.031958
     4  C   -0.114367
     5  C   -0.137409
     6  C    0.270153
     7  N   -0.662036
     8  C   -0.139680
     9  C   -0.121126
    10  C    0.032601
    11  C   -0.114726
    12  C   -0.137021
    13  C    0.268302
    14  N   -0.662055
    15  C   -0.139053
    16  C   -0.119220
    17  H    0.106066
    18  H    0.102331
    19  H    0.283407
    20  H    0.283256
    21  H    0.102138
    22  H    0.110070
    23  H    0.105777
    24  H    0.102106
    25  H    0.282781
    26  H    0.282533
    27  H    0.101638
    28  H    0.109501
 Sum of Mulliken charges =  -0.00000
 Mulliken charges with hydrogens summed into heavy atoms:
               1
     1  O   -0.529144
     2  C    0.301219
     3  C    0.031958
     4  C   -0.008301
     5  C   -0.035078
     6  C    0.270153
     7  N   -0.095374
     8  C   -0.037542
     9  C   -0.011056
    10  C    0.032601
    11  C   -0.008950
    12  C   -0.034915
    13  C    0.268302
    14  N   -0.096741
    15  C   -0.037415
    16  C   -0.009718
 APT charges:
               1
     1  O    0.096447
     2  C   -0.497917
     3  C   -0.412891
     4  C   -0.559375
     5  C   -0.401902
     6  C    0.204272
     7  N   -1.319692
     8  C   -0.429134
     9  C   -0.567484
    10  C   -0.381456
    11  C   -0.575717
    12  C   -0.391317
    13  C    0.246157
    14  N   -1.512671
    15  C   -0.414767
    16  C   -0.580061
    17  H    0.479285
    18  H    0.795733
    19  H    0.681603
    20  H    0.966691
    21  H    0.534241
    22  H    0.230805
    23  H    0.465644
    24  H    0.778876
    25  H    0.769386
    26  H    1.034897
    27  H    0.529410
    28  H    0.230936
 Sum of APT charges =  -0.00000
 APT charges with hydrogens summed into heavy atoms:
               1
     1  O    0.096447
     2  C   -0.497917
     3  C   -0.412891
     4  C   -0.080089
     5  C    0.393831
     6  C    0.204272
     7  N    0.328602
     8  C    0.105107
     9  C   -0.336679
    10  C   -0.381456
    11  C   -0.110074
    12  C    0.387559
    13  C    0.246157
    14  N    0.291612
    15  C    0.114643
    16  C   -0.349125
 Electronic spatial extent (au):  <R**2>=           4741.1035
 Charge=             -0.0000 electrons
 Dipole moment (field-independent basis, Debye):
    X=             -0.5003    Y=             -6.0710    Z=             -1.9109  Tot=              6.3843
 Quadrupole moment (field-independent basis, Debye-Ang):
   XX=            -46.1120   YY=            -94.2158   ZZ=            -91.1883
   XY=             -5.6780   XZ=             -3.7130   YZ=              3.3740
 Traceless Quadrupole moment (field-independent basis, Debye-Ang):
   XX=             31.0600   YY=            -17.0438   ZZ=            -14.0162
   XY=             -5.6780   XZ=             -3.7130   YZ=              3.3740
 Octapole moment (field-independent basis, Debye-Ang**2):
  XXX=            -51.1309  YYY=            -50.7524  ZZZ=             -1.7870  XYY=             21.0325
  XXY=            -59.7578  XXZ=            -60.3270  XZZ=             -4.2197  YZZ=             -0.7422
  YYZ=             -4.6419  XYZ=            -27.1070
 Hexadecapole moment (field-independent basis, Debye-Ang**3):
 XXXX=          -3438.6707 YYYY=           -916.2595 ZZZZ=           -268.1782 XXXY=           -117.7507
 XXXZ=           -151.4072 YYYX=            -54.2716 YYYZ=              9.6576 ZZZX=             -2.2293
 ZZZY=              4.7572 XXYY=           -822.5589 XXZZ=           -899.4096 YYZZ=           -171.7574
 XXYZ=             92.7729 YYXZ=             35.2991 ZZXY=              3.6044
 N-N= 9.760494298950D+02 E-N=-3.550298818946D+03  KE= 6.809178855717D+02
  Exact polarizability:   0.000   0.000   0.000   0.000   0.000   0.000
 Approx polarizability: 359.050   0.847 269.886 -32.320   0.030 139.221
 D2PCM: PCM CHGder 2nd derivatives, FixD1E=F FixD2E=F DoIter=F DoCFld=F I1PDM=0
 Calling FoFJK, ICntrl=    100147 FMM=F ISym2X=0 I1Cent= 0 IOpClX= 0 NMat=1 NMatS=1 NMatT=0.
 ***** Axes restored to original set *****
 -------------------------------------------------------------------
 Center     Atomic                   Forces (Hartrees/Bohr)
 Number     Number              X              Y              Z
 -------------------------------------------------------------------
      1        8           0.000891359   -0.014833948    0.002559555
      2        6          -0.000700978   -0.000206866   -0.000819097
      3        6           0.012538581   -0.000295028   -0.002920731
      4        6          -0.016065166    0.003075827    0.001453268
      5        6           0.009992860   -0.015493106   -0.008741494
      6        6          -0.014912573    0.001494683    0.015373557
      7        7           0.005056512   -0.000016289   -0.006422695
      8        6           0.016646960    0.005511821    0.001616106
      9        6          -0.013292078    0.008648829   -0.001205352
     10        6          -0.011842026   -0.000638019    0.002769038
     11        6           0.014570785    0.005535247   -0.002063980
     12        6          -0.005551897   -0.017789422    0.006750935
     13        6           0.007479613    0.017881658    0.008557042
     14        7          -0.001870379   -0.006657890   -0.003877018
     15        6          -0.014273221   -0.003369659   -0.009424006
     16        6           0.011380028    0.010632766   -0.000480196
     17        1           0.001399322    0.002680525    0.000743270
     18        1          -0.000857059    0.001901543   -0.001045205
     19        1          -0.001935920   -0.002536142   -0.000734422
     20        1           0.000552925    0.003057325    0.001732427
     21        1          -0.001305114   -0.000105308   -0.000935577
     22        1           0.000140768   -0.001546275   -0.002200603
     23        1          -0.001531449    0.001940215   -0.001508364
     24        1           0.000984097    0.000931157   -0.001291862
     25        1           0.002014040   -0.001131067    0.002329100
     26        1          -0.001135797    0.002912512   -0.001899848
     27        1           0.001735734   -0.000893515   -0.000820834
     28        1          -0.000109928   -0.000691574    0.002506985
 -------------------------------------------------------------------
 Cartesian Forces:  Max     0.017881658 RMS     0.006998059
 FormGI is forming the generalized inverse of G from B-inverse, IUseBI=4.

 GradGradGradGradGradGradGradGradGradGradGradGradGradGradGradGradGradGrad
 Berny optimization.
 Internal  Forces:  Max     0.015066420 RMS     0.003423530
 Search for a local minimum.
 Step number   1 out of a maximum of  148
 All quantities printed in internal units (Hartrees-Bohrs-Radians)
 Mixed Optimization -- RFO/linear search
 Second derivative matrix not updated -- analytic derivatives used.
 ITU=  0
     Eigenvalues ---    0.00353   0.00652   0.00671   0.01036   0.01514
     Eigenvalues ---    0.01539   0.01622   0.01656   0.01745   0.01763
     Eigenvalues ---    0.01791   0.01909   0.02021   0.02048   0.02186
     Eigenvalues ---    0.02214   0.02311   0.02380   0.02748   0.02757
     Eigenvalues ---    0.02863   0.02885   0.02966   0.02971   0.04756
     Eigenvalues ---    0.11105   0.11111   0.11462   0.11475   0.11809
     Eigenvalues ---    0.11820   0.12628   0.12638   0.13443   0.13530
     Eigenvalues ---    0.15323   0.15440   0.17713   0.17855   0.18531
     Eigenvalues ---    0.19139   0.19206   0.19493   0.19520   0.19559
     Eigenvalues ---    0.21661   0.21789   0.22266   0.24866   0.31798
     Eigenvalues ---    0.32040   0.32535   0.34468   0.35592   0.35601
     Eigenvalues ---    0.35783   0.35802   0.35925   0.35942   0.36347
     Eigenvalues ---    0.36428   0.38548   0.38613   0.41227   0.41318
     Eigenvalues ---    0.44301   0.44810   0.45518   0.45614   0.45962
     Eigenvalues ---    0.46066   0.46946   0.47057   0.47758   0.47862
     Eigenvalues ---    0.51551   0.51574   0.81013
 RFO step:  Lambda=-9.67429639D-03 EMin= 3.52745949D-03
 Linear search not attempted -- first point.
 Iteration  1 RMS(Cart)=  0.12236270 RMS(Int)=  0.00462752
 Iteration  2 RMS(Cart)=  0.00732420 RMS(Int)=  0.00041280
 Iteration  3 RMS(Cart)=  0.00003103 RMS(Int)=  0.00041258
 Iteration  4 RMS(Cart)=  0.00000000 RMS(Int)=  0.00041258
 Variable       Old X    -DE/DX   Delta X   Delta X   Delta X     New X
                                 (Linear)    (Quad)   (Total)
    R1        2.32138   0.01507   0.00000   0.01847   0.01847   2.33985
    R2        2.80683   0.00444   0.00000   0.00412   0.00412   2.81095
    R3        2.80437   0.00593   0.00000   0.00793   0.00793   2.81230
    R4        2.64129   0.00636   0.00000   0.01831   0.01824   2.65953
    R5        2.64210   0.00637   0.00000   0.01575   0.01571   2.65781
    R6        2.64218  -0.00794   0.00000  -0.02543  -0.02546   2.61671
    R7        2.05626  -0.00259   0.00000  -0.00552  -0.00552   2.05074
    R8        2.64023   0.01057   0.00000   0.02727   0.02731   2.66754
    R9        2.05410  -0.00010   0.00000  -0.00055  -0.00055   2.05355
   R10        2.64226  -0.00383   0.00000  -0.02886  -0.02886   2.61340
   R11        2.64125   0.00904   0.00000   0.02142   0.02149   2.66274
   R12        1.91799  -0.00245   0.00000  -0.00682  -0.00682   1.91117
   R13        1.91859  -0.00268   0.00000  -0.00740  -0.00740   1.91119
   R14        2.64397  -0.00665   0.00000  -0.01959  -0.01956   2.62441
   R15        2.05453  -0.00030   0.00000  -0.00127  -0.00127   2.05326
   R16        2.05383  -0.00152   0.00000  -0.00354  -0.00354   2.05029
   R17        2.64094   0.00638   0.00000   0.01798   0.01798   2.65892
   R18        2.64180   0.00606   0.00000   0.01552   0.01549   2.65729
   R19        2.64150  -0.00720   0.00000  -0.02391  -0.02387   2.61763
   R20        2.05613  -0.00247   0.00000  -0.00536  -0.00536   2.05076
   R21        2.64057   0.01017   0.00000   0.02645   0.02648   2.66705
   R22        2.05404  -0.00007   0.00000  -0.00040  -0.00040   2.05364
   R23        2.64338  -0.00329   0.00000  -0.02824  -0.02824   2.61515
   R24        2.64170   0.00849   0.00000   0.02094   0.02093   2.66264
   R25        1.91848  -0.00248   0.00000  -0.00705  -0.00705   1.91143
   R26        1.91924  -0.00276   0.00000  -0.00777  -0.00777   1.91148
   R27        2.64335  -0.00601   0.00000  -0.01873  -0.01876   2.62459
   R28        2.05435  -0.00023   0.00000  -0.00111  -0.00111   2.05324
   R29        2.05334  -0.00133   0.00000  -0.00294  -0.00294   2.05040
    A1        2.08398   0.00409   0.00000   0.01009   0.01009   2.09407
    A2        2.07779   0.00515   0.00000   0.01401   0.01401   2.09180
    A3        2.12142  -0.00923   0.00000  -0.02410  -0.02410   2.09732
    A4        2.06988   0.00190   0.00000   0.00221   0.00230   2.07217
    A5        2.12634   0.00251   0.00000   0.02587   0.02594   2.15228
    A6        2.08567  -0.00440   0.00000  -0.02817  -0.02833   2.05734
    A7        2.09603   0.00402   0.00000   0.02331   0.02313   2.11917
    A8        2.09826  -0.00373   0.00000  -0.02900  -0.02897   2.06928
    A9        2.08879  -0.00029   0.00000   0.00592   0.00595   2.09474
   A10        2.10728  -0.00095   0.00000  -0.00418  -0.00420   2.10308
   A11        2.07603   0.00230   0.00000   0.02032   0.02033   2.09636
   A12        2.09986  -0.00135   0.00000  -0.01613  -0.01612   2.08374
   A13        2.09843   0.00069   0.00000   0.00838   0.00686   2.10529
   A14        2.07090  -0.00132   0.00000  -0.00378  -0.00518   2.06571
   A15        2.09796   0.00126   0.00000   0.01215   0.01065   2.10861
   A16        1.99411   0.00195   0.00000   0.02967   0.02876   2.02287
   A17        1.99151   0.00215   0.00000   0.03064   0.02972   2.02123
   A18        1.96177  -0.00271   0.00000  -0.00183  -0.00310   1.95867
   A19        2.10956  -0.00133   0.00000  -0.00435  -0.00428   2.10528
   A20        2.09613  -0.00083   0.00000  -0.01153  -0.01157   2.08456
   A21        2.07744   0.00216   0.00000   0.01594   0.01590   2.09334
   A22        2.09259   0.00416   0.00000   0.02247   0.02242   2.11500
   A23        2.11528  -0.00383   0.00000  -0.02400  -0.02399   2.09129
   A24        2.07481  -0.00032   0.00000   0.00176   0.00177   2.07658
   A25        2.06844   0.00237   0.00000   0.00417   0.00407   2.07252
   A26        2.12585   0.00265   0.00000   0.02588   0.02576   2.15160
   A27        2.08870  -0.00503   0.00000  -0.03060  -0.03075   2.05795
   A28        2.09486   0.00422   0.00000   0.02395   0.02397   2.11883
   A29        2.09804  -0.00360   0.00000  -0.02728  -0.02730   2.07074
   A30        2.09019  -0.00062   0.00000   0.00342   0.00340   2.09359
   A31        2.10673  -0.00077   0.00000  -0.00375  -0.00368   2.10305
   A32        2.07634   0.00220   0.00000   0.01914   0.01910   2.09545
   A33        2.10009  -0.00143   0.00000  -0.01537  -0.01541   2.08468
   A34        2.09835   0.00111   0.00000   0.00929   0.00792   2.10627
   A35        2.07299  -0.00168   0.00000  -0.00586  -0.00722   2.06577
   A36        2.09779   0.00110   0.00000   0.01167   0.01032   2.10812
   A37        1.98994   0.00197   0.00000   0.03079   0.02977   2.01970
   A38        1.98692   0.00245   0.00000   0.03325   0.03222   2.01914
   A39        1.95727  -0.00273   0.00000  -0.00053  -0.00197   1.95530
   A40        2.10899  -0.00108   0.00000  -0.00327  -0.00333   2.10566
   A41        2.09605  -0.00092   0.00000  -0.01124  -0.01121   2.08484
   A42        2.07811   0.00200   0.00000   0.01454   0.01457   2.09267
   A43        2.09142   0.00447   0.00000   0.02343   0.02331   2.11473
   A44        2.11527  -0.00397   0.00000  -0.02405  -0.02405   2.09123
   A45        2.07648  -0.00050   0.00000   0.00055   0.00055   2.07703
    D1       -0.54764   0.00198   0.00000   0.10231   0.10236  -0.44527
    D2        2.53888   0.00219   0.00000   0.09949   0.09944   2.63832
    D3        2.59237   0.00220   0.00000   0.10526   0.10532   2.69768
    D4       -0.60430   0.00241   0.00000   0.10244   0.10239  -0.50191
    D5       -0.62870   0.00287   0.00000   0.13885   0.13912  -0.48958
    D6        2.49154   0.00218   0.00000   0.10892   0.10866   2.60020
    D7        2.51447   0.00265   0.00000   0.13591   0.13617   2.65065
    D8       -0.64847   0.00196   0.00000   0.10598   0.10572  -0.54275
    D9        3.13004  -0.00030   0.00000  -0.01350  -0.01345   3.11659
   D10        0.00434  -0.00082   0.00000  -0.03068  -0.03044  -0.02610
   D11        0.04221  -0.00073   0.00000  -0.01247  -0.01238   0.02983
   D12       -3.08349  -0.00124   0.00000  -0.02965  -0.02937  -3.11287
   D13       -3.12894   0.00090   0.00000   0.02766   0.02783  -3.10111
   D14       -0.02199   0.00108   0.00000   0.03527   0.03527   0.01328
   D15       -0.04291   0.00131   0.00000   0.02577   0.02586  -0.01706
   D16        3.06404   0.00149   0.00000   0.03337   0.03329   3.09733
   D17        0.02522  -0.00114   0.00000  -0.03395  -0.03380  -0.00857
   D18       -3.11085  -0.00119   0.00000  -0.03532  -0.03529   3.13705
   D19       -3.13217  -0.00066   0.00000  -0.01718  -0.01687   3.13414
   D20        0.01494  -0.00071   0.00000  -0.01855  -0.01836  -0.00342
   D21       -3.04181  -0.00159   0.00000  -0.03545  -0.03529  -3.07710
   D22       -0.09042   0.00229   0.00000   0.06506   0.06495  -0.02547
   D23        0.09419  -0.00153   0.00000  -0.03394  -0.03370   0.06049
   D24        3.04558   0.00235   0.00000   0.06657   0.06654   3.11212
   D25       -2.80722   0.00173   0.00000   0.01884   0.01877  -2.78845
   D26       -0.51626   0.00179   0.00000   0.07591   0.07664  -0.43962
   D27        0.52754  -0.00193   0.00000  -0.08149  -0.08221   0.44533
   D28        2.81851  -0.00187   0.00000  -0.02441  -0.02434   2.79417
   D29        0.08975  -0.00171   0.00000  -0.05163  -0.05168   0.03807
   D30       -3.04122  -0.00216   0.00000  -0.05811  -0.05812  -3.09933
   D31        3.04118   0.00210   0.00000   0.04843   0.04833   3.08952
   D32       -0.08978   0.00166   0.00000   0.04195   0.04189  -0.04789
   D33       -0.02372  -0.00007   0.00000   0.00690   0.00680  -0.01693
   D34       -3.13147  -0.00017   0.00000   0.00000  -0.00007  -3.13154
   D35        3.10735   0.00035   0.00000   0.01315   0.01310   3.12046
   D36       -0.00040   0.00025   0.00000   0.00625   0.00624   0.00584
   D37        3.13733  -0.00073   0.00000  -0.02263  -0.02219   3.11515
   D38       -0.01930  -0.00037   0.00000  -0.01539  -0.01509  -0.03440
   D39        0.01663  -0.00015   0.00000   0.00594   0.00594   0.02257
   D40       -3.14001   0.00021   0.00000   0.01318   0.01303  -3.12697
   D41       -3.13503   0.00134   0.00000   0.03701   0.03710  -3.09794
   D42        0.00205   0.00068   0.00000   0.01973   0.01982   0.02186
   D43       -0.01504   0.00073   0.00000   0.00717   0.00729  -0.00775
   D44        3.12204   0.00007   0.00000  -0.01011  -0.00999   3.11205
   D45       -0.04852   0.00057   0.00000   0.01661   0.01674  -0.03178
   D46        3.10051   0.00068   0.00000   0.01466   0.01464   3.11515
   D47        3.10804   0.00024   0.00000   0.00967   0.00982   3.11786
   D48       -0.02611   0.00035   0.00000   0.00772   0.00772  -0.01839
   D49        3.04003   0.00184   0.00000   0.04422   0.04392   3.08395
   D50        0.07738  -0.00169   0.00000  -0.05223  -0.05216   0.02521
   D51       -0.10911   0.00174   0.00000   0.04634   0.04615  -0.06296
   D52       -3.07176  -0.00179   0.00000  -0.05011  -0.04994  -3.12169
   D53        2.79210  -0.00149   0.00000  -0.01153  -0.01138   2.78072
   D54        0.51630  -0.00177   0.00000  -0.07226  -0.07301   0.44329
   D55       -0.53099   0.00181   0.00000   0.08449   0.08524  -0.44575
   D56       -2.80679   0.00153   0.00000   0.02376   0.02361  -2.78319
   D57       -0.07590   0.00229   0.00000   0.06554   0.06526  -0.01064
   D58        3.07510   0.00202   0.00000   0.06132   0.06115   3.13626
   D59       -3.03861  -0.00125   0.00000  -0.03063  -0.03067  -3.06928
   D60        0.11239  -0.00151   0.00000  -0.03485  -0.03478   0.07762
   D61        0.04539  -0.00172   0.00000  -0.04304  -0.04316   0.00223
   D62       -3.09180  -0.00106   0.00000  -0.02608  -0.02595  -3.11774
   D63       -3.10552  -0.00147   0.00000  -0.03900  -0.03917   3.13849
   D64        0.04048  -0.00081   0.00000  -0.02204  -0.02196   0.01852
         Item               Value     Threshold  Converged?
 Maximum Force            0.015066     0.000450     NO 
 RMS     Force            0.003424     0.000300     NO 
 Maximum Displacement     0.447468     0.001800     NO 
 RMS     Displacement     0.121996     0.001200     NO 
 Predicted change in Energy=-5.854498D-03
 GradGradGradGradGradGradGradGradGradGradGradGradGradGradGradGradGradGrad

                          Input orientation:                          
 ---------------------------------------------------------------------
 Center     Atomic      Atomic             Coordinates (Angstroms)
 Number     Number       Type             X           Y           Z
 ---------------------------------------------------------------------
      1          8           0        0.229306   -2.737510    0.628676
      2          6           0        0.124155   -1.516501    0.452030
      3          6           0       -1.217371   -0.874435    0.478356
      4          6           0       -2.346233   -1.653005    0.161877
      5          6           0       -3.623747   -1.119995    0.197459
      6          6           0       -3.827821    0.227427    0.565469
      7          7           0       -5.106878    0.741659    0.675625
      8          6           0       -2.705654    1.000708    0.923555
      9          6           0       -1.427609    0.459939    0.869954
     10          6           0        1.342091   -0.694664    0.215467
     11          6           0        2.565978   -1.126649    0.758835
     12          6           0        3.738904   -0.420936    0.546797
     13          6           0        3.741723    0.738327   -0.258183
     14          7           0        4.896261    1.484476   -0.417616
     15          6           0        2.520474    1.172330   -0.810895
     16          6           0        1.347254    0.466620   -0.577459
     17          1           0       -2.198883   -2.691779   -0.115437
     18          1           0       -4.480159   -1.739411   -0.055094
     19          1           0       -5.183895    1.748851    0.626045
     20          1           0       -5.817359    0.276210    0.126605
     21          1           0       -2.846596    2.028113    1.247804
     22          1           0       -0.583399    1.076341    1.160667
     23          1           0        2.578023   -2.029217    1.361265
     24          1           0        4.667683   -0.760798    0.997207
     25          1           0        4.922111    2.084761   -1.231308
     26          1           0        5.764505    0.981631   -0.289348
     27          1           0        2.501370    2.065528   -1.429265
     28          1           0        0.425764    0.811980   -1.034471
 ---------------------------------------------------------------------
                    Distance matrix (angstroms):
                    1          2          3          4          5
     1  O    0.000000
     2  C    1.238193   0.000000
     3  C    2.363581   1.487492   0.000000
     4  C    2.833276   2.491112   1.407360   0.000000
     5  C    4.200990   3.777406   2.435128   1.384705   0.000000
     6  C    5.025448   4.321142   2.834809   2.427759   1.411603
     7  N    6.370375   5.702016   4.216508   3.690463   2.427772
     8  C    4.761850   3.816608   2.435026   2.784158   2.422291
     9  C    3.609330   2.547342   1.406450   2.410348   2.787734
    10  C    2.362679   1.488202   2.579200   3.811171   4.984052
    11  C    2.841100   2.491709   3.802106   4.976267   6.215134
    12  C    4.206007   3.778314   4.977450   6.220535   7.404009
    13  C    5.020461   4.321510   5.266507   6.554245   7.609935
    14  N    6.379683   5.703958   6.613903   7.914122   8.930404
    15  C    4.754857   3.816692   4.452292   5.710836   6.634982
    16  C    3.601529   2.547271   3.080661   4.322185   5.275291
    17  H    2.540058   2.664545   2.149115   1.085203   2.144445
    18  H    4.862386   4.637517   3.417388   2.146667   1.086693
    19  H    7.030660   6.234437   4.757810   4.454256   3.293634
    20  H    6.774713   6.214604   4.754745   3.971376   2.601219
    21  H    5.705756   4.692857   3.416315   3.870431   3.408485
    22  H    3.935602   2.779502   2.161711   3.399191   3.872386
    23  H    2.560242   2.666656   4.064242   5.082162   6.375193
    24  H    4.872617   4.638098   5.908974   7.119609   8.337652
    25  H    6.981135   6.230818   7.026594   8.291000   9.238156
    26  H    6.731508   6.213200   7.265049   8.539847   9.632917
    27  H    5.697944   4.692692   5.109935   6.313358   7.093014
    28  H    3.924733   2.778934   2.798666   3.897611   4.652818
                    6          7          8          9         10
     6  C    0.000000
     7  N    1.382952   0.000000
     8  C    1.409059   2.427850   0.000000
     9  C    2.430595   3.695152   1.388778   0.000000
    10  C    5.263149   6.622988   4.445213   3.071270   0.000000
    11  C    6.538469   7.897482   5.687081   4.298645   1.407039
    12  C    7.594475   8.922785   6.610246   5.251022   2.435040
    13  C    7.631344   8.897738   6.560032   5.298319   2.834791
    14  N    8.868835  10.090081   7.734461   6.534435   4.216819
    15  C    6.564151   7.782784   5.509101   4.349726   2.434682
    16  C    5.305177   6.580402   4.354809   3.129683   1.406178
    17  H    3.411573   4.568447   3.869209   3.391044   4.078782
    18  H    2.163122   2.661285   3.408060   3.874392   5.921426
    19  H    2.038955   1.011349   2.605745   3.978752   6.980532
    20  H    2.037950   1.011359   3.292831   4.456032   7.225525
    21  H    2.161216   2.662936   1.086537   2.148363   5.101405
    22  H    3.406052   4.561703   2.136798   1.084968   2.781613
    23  H    6.838170   8.197900   6.106495   4.741558   2.149747
    24  H    8.563678   9.894587   7.581189   6.217635   3.416878
    25  H    9.123563  10.296647   8.000088   6.882898   4.757615
    26  H    9.659827  10.916764   8.556582   7.303605   4.756317
    27  H    6.885945   8.004289   5.812289   4.827132   3.415806
    28  H    4.581975   5.791330   3.698008   2.680627   2.161475
                   11         12         13         14         15
    11  C    0.000000
    12  C    1.385188   0.000000
    13  C    2.427928   1.411344   0.000000
    14  N    3.692184   2.429025   1.383877   0.000000
    15  C    2.784139   2.422065   1.409006   2.428264   0.000000
    16  C    2.410285   2.787776   2.430893   3.695541   1.388872
    17  H    5.090961   6.391603   6.861253   8.238536   6.139001
    18  H    7.119410   8.345876   8.589515   9.921800   7.619602
    19  H    8.267204   9.183169   9.026055  10.137488   7.858401
    20  H    8.523383   9.590867   9.577977  10.795264   8.438092
    21  H    6.283914   7.061024   6.880224   7.938576   5.811717
    22  H    3.864352   4.615299   4.564435   5.717012   3.678356
    23  H    1.085218   2.144195   3.411174   4.569976   3.869302
    24  H    2.146586   1.086741   2.163512   2.663686   3.408332
    25  H    4.452548   3.292439   2.037933   1.011487   2.603293
    26  H    3.971663   2.601805   2.037601   1.011511   3.291218
    27  H    3.870652   3.408639   2.161335   2.663936   1.086530
    28  H    3.399227   3.872646   3.406410   4.562686   2.137206
                   16         17         18         19         20
    16  C    0.000000
    17  H    4.771167   0.000000
    18  H    6.252854   2.472825   0.000000
    19  H    6.763760   5.401785   3.623143   0.000000
    20  H    7.201642   4.686247   2.425664   1.679103   0.000000
    21  H    4.833035   4.955334   4.308168   2.434654   3.626525
    22  H    2.668383   4.293827   4.958958   4.680027   5.394796
    23  H    3.391555   5.043656   7.204720   8.663817   8.793282
    24  H    3.874451   7.219168   9.260023  10.172988  10.572107
    25  H    3.978127   8.646910  10.218143  10.280756  10.975016
    26  H    4.456495   8.771529  10.602456  11.013357  11.610780
    27  H    2.148038   6.815460   8.068931   7.961650   8.650066
    28  H    1.085025   4.473222   5.615768   5.924805   6.372733
                   21         22         23         24         25
    21  H    0.000000
    22  H    2.456730   0.000000
    23  H    6.775049   4.436138   0.000000
    24  H    8.019053   5.565579   2.471458   0.000000
    25  H    8.154876   6.086797   5.398240   3.623288   0.000000
    26  H    8.809598   6.512097   4.684378   2.427818   1.677443
    27  H    5.980706   4.147535   4.955792   4.309153   2.428897
    28  H    4.170863   2.430418   4.294668   4.959357   4.677163
                   26         27         28
    26  H    0.000000
    27  H    3.622471   0.000000
    28  H    5.393157   2.456703   0.000000
 Stoichiometry    C13H12N2O
 Framework group  C1[X(C13H12N2O)]
 Deg. of freedom    78
 Full point group                 C1      NOp   1
 Largest Abelian subgroup         C1      NOp   1
 Largest concise Abelian subgroup C1      NOp   1
                         Standard orientation:                         
[...]
    11    O    1  dxy    Ryd( 3d)     0.00318
    12    O    1  dxz    Ryd( 3d)     0.00001
    13    O    1  dyz    Ryd( 3d)     0.00334
    14    O    1  dx2y2  Ryd( 3d)     0.00348
    15    O    1  dz2    Ryd( 3d)     0.00106

    16    C    2  S      Cor( 1S)     1.99921
    17    C    2  S      Val( 2S)     0.80091
    18    C    2  S      Ryd( 3S)     0.00393
    19    C    2  S      Ryd( 4S)     0.00017
    20    C    2  px     Val( 2p)     0.99525
    21    C    2  px     Ryd( 3p)     0.00468
    22    C    2  py     Val( 2p)     0.80881
    23    C    2  py     Ryd( 3p)     0.01900
    24    C    2  pz     Val( 2p)     1.02150
    25    C    2  pz     Ryd( 3p)     0.00363
    26    C    2  dxy    Ryd( 3d)     0.00251
    27    C    2  dxz    Ryd( 3d)     0.00025
    28    C    2  dyz    Ryd( 3d)     0.00169
    29    C    2  dx2y2  Ryd( 3d)     0.00101
    30    C    2  dz2    Ryd( 3d)     0.00027

    31    C    3  S      Cor( 1S)     1.99899
    32    C    3  S      Val( 2S)     0.90947
    33    C    3  S      Ryd( 3S)     0.00123
    34    C    3  S      Ryd( 4S)     0.00006
    35    C    3  px     Val( 2p)     1.10273
    36    C    3  px     Ryd( 3p)     0.00536
    37    C    3  py     Val( 2p)     1.06050
    38    C    3  py     Ryd( 3p)     0.00501
    39    C    3  pz     Val( 2p)     0.98832
    40    C    3  pz     Ryd( 3p)     0.00172
    41    C    3  dxy    Ryd( 3d)     0.00066
    42    C    3  dxz    Ryd( 3d)     0.00082
    43    C    3  dyz    Ryd( 3d)     0.00050
    44    C    3  dx2y2  Ryd( 3d)     0.00074
    45    C    3  dz2    Ryd( 3d)     0.00040

    46    C    4  S      Cor( 1S)     1.99908
    47    C    4  S      Val( 2S)     0.95466
    48    C    4  S      Ryd( 3S)     0.00072
    49    C    4  S      Ryd( 4S)     0.00005
    50    C    4  px     Val( 2p)     1.05415
    51    C    4  px     Ryd( 3p)     0.00490
    52    C    4  py     Val( 2p)     1.17876
    53    C    4  py     Ryd( 3p)     0.00513
    54    C    4  pz     Val( 2p)     1.02991
    55    C    4  pz     Ryd( 3p)     0.00244
    56    C    4  dxy    Ryd( 3d)     0.00060
    57    C    4  dxz    Ryd( 3d)     0.00057
    58    C    4  dyz    Ryd( 3d)     0.00045
    59    C    4  dx2y2  Ryd( 3d)     0.00064
    60    C    4  dz2    Ryd( 3d)     0.00033

    61    C    5  S      Cor( 1S)     1.99905
    62    C    5  S      Val( 2S)     0.96084
    63    C    5  S      Ryd( 3S)     0.00064
    64    C    5  S      Ryd( 4S)     0.00004
    65    C    5  px     Val( 2p)     1.16424
    66    C    5  px     Ryd( 3p)     0.00441
    67    C    5  py     Val( 2p)     1.07119
    68    C    5  py     Ryd( 3p)     0.00358
    69    C    5  pz     Val( 2p)     1.04750
    70    C    5  pz     Ryd( 3p)     0.00145
    71    C    5  dxy    Ryd( 3d)     0.00055
    72    C    5  dxz    Ryd( 3d)     0.00053
    73    C    5  dyz    Ryd( 3d)     0.00047
    74    C    5  dx2y2  Ryd( 3d)     0.00069
    75    C    5  dz2    Ryd( 3d)     0.00036

    76    C    6  S      Cor( 1S)     1.99901
    77    C    6  S      Val( 2S)     0.84832
    78    C    6  S      Ryd( 3S)     0.00126
    79    C    6  S      Ryd( 4S)     0.00009
    80    C    6  px     Val( 2p)     0.93311
    81    C    6  px     Ryd( 3p)     0.00570
    82    C    6  py     Val( 2p)     1.03930
    83    C    6  py     Ryd( 3p)     0.00410
    84    C    6  pz     Val( 2p)     0.99944
    85    C    6  pz     Ryd( 3p)     0.00218
    86    C    6  dxy    Ryd( 3d)     0.00104
    87    C    6  dxz    Ryd( 3d)     0.00130
    88    C    6  dyz    Ryd( 3d)     0.00063
    89    C    6  dx2y2  Ryd( 3d)     0.00109
    90    C    6  dz2    Ryd( 3d)     0.00057

    91    N    7  S      Cor( 1S)     1.99948
    92    N    7  S      Val( 2S)     1.34864
    93    N    7  S      Ryd( 3S)     0.00013
    94    N    7  S      Ryd( 4S)     0.00001
    95    N    7  px     Val( 2p)     1.36635
    96    N    7  px     Ryd( 3p)     0.00252
    97    N    7  py     Val( 2p)     1.42882
    98    N    7  py     Ryd( 3p)     0.00217
    99    N    7  pz     Val( 2p)     1.61448
   100    N    7  pz     Ryd( 3p)     0.00369
   101    N    7  dxy    Ryd( 3d)     0.00029
   102    N    7  dxz    Ryd( 3d)     0.00098
   103    N    7  dyz    Ryd( 3d)     0.00028
   104    N    7  dx2y2  Ryd( 3d)     0.00070
   105    N    7  dz2    Ryd( 3d)     0.00065

   106    C    8  S      Cor( 1S)     1.99905
   107    C    8  S      Val( 2S)     0.96002
   108    C    8  S      Ryd( 3S)     0.00070
   109    C    8  S      Ryd( 4S)     0.00004
   110    C    8  px     Val( 2p)     1.06117
   111    C    8  px     Ryd( 3p)     0.00411
   112    C    8  py     Val( 2p)     1.16857
   113    C    8  py     Ryd( 3p)     0.00406
   114    C    8  pz     Val( 2p)     1.05272
   115    C    8  pz     Ryd( 3p)     0.00167
   116    C    8  dxy    Ryd( 3d)     0.00061
   117    C    8  dxz    Ryd( 3d)     0.00059
   118    C    8  dyz    Ryd( 3d)     0.00044
   119    C    8  dx2y2  Ryd( 3d)     0.00060
   120    C    8  dz2    Ryd( 3d)     0.00035

   121    C    9  S      Cor( 1S)     1.99908
   122    C    9  S      Val( 2S)     0.95402
   123    C    9  S      Ryd( 3S)     0.00074
   124    C    9  S      Ryd( 4S)     0.00005
   125    C    9  px     Val( 2p)     1.15110
   126    C    9  px     Ryd( 3p)     0.00408
   127    C    9  py     Val( 2p)     1.08688
   128    C    9  py     Ryd( 3p)     0.00397
   129    C    9  pz     Val( 2p)     1.03783
   130    C    9  pz     Ryd( 3p)     0.00187
   131    C    9  dxy    Ryd( 3d)     0.00063
   132    C    9  dxz    Ryd( 3d)     0.00056
   133    C    9  dyz    Ryd( 3d)     0.00050
   134    C    9  dx2y2  Ryd( 3d)     0.00061
   135    C    9  dz2    Ryd( 3d)     0.00034

   136    C   10  S      Cor( 1S)     1.99899
   137    C   10  S      Val( 2S)     0.91001
   138    C   10  S      Ryd( 3S)     0.00123
   139    C   10  S      Ryd( 4S)     0.00006
   140    C   10  px     Val( 2p)     1.10405
   141    C   10  px     Ryd( 3p)     0.00535
   142    C   10  py     Val( 2p)     1.05901
   143    C   10  py     Ryd( 3p)     0.00504
   144    C   10  pz     Val( 2p)     0.98476
   145    C   10  pz     Ryd( 3p)     0.00169
   146    C   10  dxy    Ryd( 3d)     0.00067
   147    C   10  dxz    Ryd( 3d)     0.00083
   148    C   10  dyz    Ryd( 3d)     0.00050
   149    C   10  dx2y2  Ryd( 3d)     0.00075
   150    C   10  dz2    Ryd( 3d)     0.00040

   151    C   11  S      Cor( 1S)     1.99908
   152    C   11  S      Val( 2S)     0.95493
   153    C   11  S      Ryd( 3S)     0.00073
   154    C   11  S      Ryd( 4S)     0.00005
   155    C   11  px     Val( 2p)     1.05343
   156    C   11  px     Ryd( 3p)     0.00492
   157    C   11  py     Val( 2p)     1.18115
   158    C   11  py     Ryd( 3p)     0.00518
   159    C   11  pz     Val( 2p)     1.02777
   160    C   11  pz     Ryd( 3p)     0.00240
   161    C   11  dxy    Ryd( 3d)     0.00060
   162    C   11  dxz    Ryd( 3d)     0.00057
   163    C   11  dyz    Ryd( 3d)     0.00044
   164    C   11  dx2y2  Ryd( 3d)     0.00065
   165    C   11  dz2    Ryd( 3d)     0.00033

   166    C   12  S      Cor( 1S)     1.99905
   167    C   12  S      Val( 2S)     0.96110
   168    C   12  S      Ryd( 3S)     0.00065
   169    C   12  S      Ryd( 4S)     0.00004
   170    C   12  px     Val( 2p)     1.16449
   171    C   12  px     Ryd( 3p)     0.00447
   172    C   12  py     Val( 2p)     1.07162
   173    C   12  py     Ryd( 3p)     0.00357
   174    C   12  pz     Val( 2p)     1.04557
   175    C   12  pz     Ryd( 3p)     0.00140
   176    C   12  dxy    Ryd( 3d)     0.00054
   177    C   12  dxz    Ryd( 3d)     0.00053
   178    C   12  dyz    Ryd( 3d)     0.00048
   179    C   12  dx2y2  Ryd( 3d)     0.00069
   180    C   12  dz2    Ryd( 3d)     0.00036

   181    C   13  S      Cor( 1S)     1.99901
   182    C   13  S      Val( 2S)     0.84855
   183    C   13  S      Ryd( 3S)     0.00128
   184    C   13  S      Ryd( 4S)     0.00009
   185    C   13  px     Val( 2p)     0.93912
   186    C   13  px     Ryd( 3p)     0.00543
   187    C   13  py     Val( 2p)     1.03338
   188    C   13  py     Ryd( 3p)     0.00442
   189    C   13  pz     Val( 2p)     0.99771
   190    C   13  pz     Ryd( 3p)     0.00214
   191    C   13  dxy    Ryd( 3d)     0.00114
   192    C   13  dxz    Ryd( 3d)     0.00124
   193    C   13  dyz    Ryd( 3d)     0.00070
   194    C   13  dx2y2  Ryd( 3d)     0.00100
   195    C   13  dz2    Ryd( 3d)     0.00057

   196    N   14  S      Cor( 1S)     1.99948
   197    N   14  S      Val( 2S)     1.34862
   198    N   14  S      Ryd( 3S)     0.00012
   199    N   14  S      Ryd( 4S)     0.00001
   200    N   14  px     Val( 2p)     1.33318
   201    N   14  px     Ryd( 3p)     0.00218
   202    N   14  py     Val( 2p)     1.46361
   203    N   14  py     Ryd( 3p)     0.00253
   204    N   14  pz     Val( 2p)     1.61101
   205    N   14  pz     Ryd( 3p)     0.00364
   206    N   14  dxy    Ryd( 3d)     0.00071
   207    N   14  dxz    Ryd( 3d)     0.00038
   208    N   14  dyz    Ryd( 3d)     0.00088
   209    N   14  dx2y2  Ryd( 3d)     0.00029
   210    N   14  dz2    Ryd( 3d)     0.00064

   211    C   15  S      Cor( 1S)     1.99905
   212    C   15  S      Val( 2S)     0.96031
   213    C   15  S      Ryd( 3S)     0.00070
   214    C   15  S      Ryd( 4S)     0.00004
   215    C   15  px     Val( 2p)     1.06059
   216    C   15  px     Ryd( 3p)     0.00414
   217    C   15  py     Val( 2p)     1.16946
   218    C   15  py     Ryd( 3p)     0.00401
   219    C   15  pz     Val( 2p)     1.05108
   220    C   15  pz     Ryd( 3p)     0.00169
   221    C   15  dxy    Ryd( 3d)     0.00062
   222    C   15  dxz    Ryd( 3d)     0.00058
   223    C   15  dyz    Ryd( 3d)     0.00044
   224    C   15  dx2y2  Ryd( 3d)     0.00061
   225    C   15  dz2    Ryd( 3d)     0.00035

   226    C   16  S      Cor( 1S)     1.99908
   227    C   16  S      Val( 2S)     0.95436
   228    C   16  S      Ryd( 3S)     0.00074
   229    C   16  S      Ryd( 4S)     0.00005
   230    C   16  px     Val( 2p)     1.15092
   231    C   16  px     Ryd( 3p)     0.00408
   232    C   16  py     Val( 2p)     1.08718
   233    C   16  py     Ryd( 3p)     0.00397
   234    C   16  pz     Val( 2p)     1.03688
   235    C   16  pz     Ryd( 3p)     0.00189
   236    C   16  dxy    Ryd( 3d)     0.00063
   237    C   16  dxz    Ryd( 3d)     0.00056
   238    C   16  dyz    Ryd( 3d)     0.00050
   239    C   16  dx2y2  Ryd( 3d)     0.00061
   240    C   16  dz2    Ryd( 3d)     0.00034

   241    H   17  S      Val( 1S)     0.74558
   242    H   17  S      Ryd( 2S)     0.00241
   243    H   17  px     Ryd( 2p)     0.00008
   244    H   17  py     Ryd( 2p)     0.00037
   245    H   17  pz     Ryd( 2p)     0.00015

   246    H   18  S      Val( 1S)     0.75031
   247    H   18  S      Ryd( 2S)     0.00096
   248    H   18  px     Ryd( 2p)     0.00028
   249    H   18  py     Ryd( 2p)     0.00016
   250    H   18  pz     Ryd( 2p)     0.00016

   251    H   19  S      Val( 1S)     0.56836
   252    H   19  S      Ryd( 2S)     0.00125
   253    H   19  px     Ryd( 2p)     0.00020
   254    H   19  py     Ryd( 2p)     0.00062
   255    H   19  pz     Ryd( 2p)     0.00039

   256    H   20  S      Val( 1S)     0.56859
   257    H   20  S      Ryd( 2S)     0.00128
   258    H   20  px     Ryd( 2p)     0.00042
   259    H   20  py     Ryd( 2p)     0.00024
   260    H   20  pz     Ryd( 2p)     0.00054

   261    H   21  S      Val( 1S)     0.74936
   262    H   21  S      Ryd( 2S)     0.00096
   263    H   21  px     Ryd( 2p)     0.00006
   264    H   21  py     Ryd( 2p)     0.00036
   265    H   21  pz     Ryd( 2p)     0.00017

   266    H   22  S      Val( 1S)     0.74874
   267    H   22  S      Ryd( 2S)     0.00111
   268    H   22  px     Ryd( 2p)     0.00028
   269    H   22  py     Ryd( 2p)     0.00015
   270    H   22  pz     Ryd( 2p)     0.00017

   271    H   23  S      Val( 1S)     0.74501
   272    H   23  S      Ryd( 2S)     0.00242
   273    H   23  px     Ryd( 2p)     0.00008
   274    H   23  py     Ryd( 2p)     0.00037
   275    H   23  pz     Ryd( 2p)     0.00015

   276    H   24  S      Val( 1S)     0.74979
   277    H   24  S      Ryd( 2S)     0.00096
   278    H   24  px     Ryd( 2p)     0.00027
   279    H   24  py     Ryd( 2p)     0.00015
   280    H   24  pz     Ryd( 2p)     0.00016

   281    H   25  S      Val( 1S)     0.56840
   282    H   25  S      Ryd( 2S)     0.00131
   283    H   25  px     Ryd( 2p)     0.00018
   284    H   25  py     Ryd( 2p)     0.00048
   285    H   25  pz     Ryd( 2p)     0.00055

   286    H   26  S      Val( 1S)     0.56778
   287    H   26  S      Ryd( 2S)     0.00123
   288    H   26  px     Ryd( 2p)     0.00046
   289    H   26  py     Ryd( 2p)     0.00036
   290    H   26  pz     Ryd( 2p)     0.00038

   291    H   27  S      Val( 1S)     0.74903
   292    H   27  S      Ryd( 2S)     0.00094
   293    H   27  px     Ryd( 2p)     0.00006
   294    H   27  py     Ryd( 2p)     0.00036
   295    H   27  pz     Ryd( 2p)     0.00017

   296    H   28  S      Val( 1S)     0.74826
   297    H   28  S      Ryd( 2S)     0.00109
   298    H   28  px     Ryd( 2p)     0.00028
   299    H   28  py     Ryd( 2p)     0.00015
   300    H   28  pz     Ryd( 2p)     0.00016

 WARNING:  1 low occupancy (<1.9990e) core orbital  found on  C    3
           1 low occupancy (<1.9990e) core orbital  found on  C   10


 Summary of Natural Population Analysis:                  
                                                          
                                       Natural Population 
                Natural  -----------------------------------------------
    Atom  No    Charge         Core      Valence    Rydberg      Total
 -----------------------------------------------------------------------
      O    1   -0.72606      1.99982     6.71032    0.01593     8.72606
      C    2    0.33719      1.99921     3.62647    0.03714     5.66281
      C    3   -0.07651      1.99899     4.06101    0.01651     6.07651
      C    4   -0.23239      1.99908     4.21748    0.01583     6.23239
      C    5   -0.25554      1.99905     4.24377    0.01273     6.25554
      C    6    0.16284      1.99901     3.82016    0.01798     5.83716
      N    7   -0.76919      1.99948     5.75830    0.01141     7.76919
      C    8   -0.25470      1.99905     4.24248    0.01317     6.25470
      C    9   -0.24227      1.99908     4.22983    0.01336     6.24227
      C   10   -0.07333      1.99899     4.05783    0.01651     6.07333
      C   11   -0.23223      1.99908     4.21729    0.01586     6.23223
      C   12   -0.25457      1.99905     4.24278    0.01274     6.25457
      C   13    0.16423      1.99901     3.81876    0.01800     5.83577
      N   14   -0.76728      1.99948     5.75643    0.01137     7.76728
      C   15   -0.25366      1.99905     4.24144    0.01317     6.25366
      C   16   -0.24181      1.99908     4.22935    0.01337     6.24181
      H   17    0.25142      0.00000     0.74558    0.00301     0.74858
      H   18    0.24813      0.00000     0.75031    0.00155     0.75187
      H   19    0.42919      0.00000     0.56836    0.00245     0.57081
      H   20    0.42893      0.00000     0.56859    0.00248     0.57107
      H   21    0.24909      0.00000     0.74936    0.00155     0.75091
      H   22    0.24956      0.00000     0.74874    0.00170     0.75044
      H   23    0.25196      0.00000     0.74501    0.00302     0.74804
      H   24    0.24865      0.00000     0.74979    0.00155     0.75135
      H   25    0.42909      0.00000     0.56840    0.00251     0.57091
      H   26    0.42978      0.00000     0.56778    0.00244     0.57022
      H   27    0.24944      0.00000     0.74903    0.00154     0.75056
      H   28    0.25006      0.00000     0.74826    0.00169     0.74994
 =======================================================================
   * Total *   -0.00000     31.98651    79.73290    0.28059   112.00000

                                 Natural Population      
 --------------------------------------------------------
   Core                      31.98651 ( 99.9578% of  32)
   Valence                   79.73290 ( 99.6661% of  80)
   Natural Minimal Basis    111.71941 ( 99.7495% of 112)
   Natural Rydberg Basis      0.28059 (  0.2505% of 112)
 --------------------------------------------------------

    Atom  No          Natural Electron Configuration
 ----------------------------------------------------------------------------
      O    1      [core]2S( 1.69)2p( 5.02)3d( 0.01)
      C    2      [core]2S( 0.80)2p( 2.83)3p( 0.03)3d( 0.01)
      C    3      [core]2S( 0.91)2p( 3.15)3p( 0.01)
      C    4      [core]2S( 0.95)2p( 3.26)3p( 0.01)
      C    5      [core]2S( 0.96)2p( 3.28)3p( 0.01)
      C    6      [core]2S( 0.85)2p( 2.97)3p( 0.01)
      N    7      [core]2S( 1.35)2p( 4.41)3p( 0.01)
      C    8      [core]2S( 0.96)2p( 3.28)3p( 0.01)
      C    9      [core]2S( 0.95)2p( 3.28)3p( 0.01)
      C   10      [core]2S( 0.91)2p( 3.15)3p( 0.01)
      C   11      [core]2S( 0.95)2p( 3.26)3p( 0.01)
      C   12      [core]2S( 0.96)2p( 3.28)3p( 0.01)
      C   13      [core]2S( 0.85)2p( 2.97)3p( 0.01)
      N   14      [core]2S( 1.35)2p( 4.41)3p( 0.01)
      C   15      [core]2S( 0.96)2p( 3.28)3p( 0.01)
      C   16      [core]2S( 0.95)2p( 3.27)3p( 0.01)
      H   17            1S( 0.75)
      H   18            1S( 0.75)
      H   19            1S( 0.57)
      H   20            1S( 0.57)
      H   21            1S( 0.75)
      H   22            1S( 0.75)
      H   23            1S( 0.75)
      H   24            1S( 0.75)
      H   25            1S( 0.57)
      H   26            1S( 0.57)
      H   27            1S( 0.75)
      H   28            1S( 0.75)


 NBO analysis skipped by request.
 1\1\GINC-DRG2-W012\SP\RB3LYP TD-FC\6-31G(d,p)\C13H12N2O1\QDUEZ\21-Jul-
 2024\0\\# TD(NStates=10, Root=1) B3LYP/6-31G** SCRF=(Solvent=water) vo
 lume pop=NPA density=current Geom=AllCheck Guess=Read\\ZLSMCQSGRWNEGX-
 UHFFFAOYSA-N_conf_3\\0,1\O,0,0.226928536,-2.6948922066,0.6691625247\C,
 0,0.1228166,-1.4754205626,0.4740059538\C,0,-1.2242537285,-0.8426907438
 ,0.4789554993\C,0,-2.3427695823,-1.6465511868,0.184710809\C,0,-3.63002
 31065,-1.1375252996,0.2129069536\C,0,-3.8598547904,0.2100001797,0.5703
 793235\N,0,-5.1440669158,0.706919683,0.6598581318\C,0,-2.7476306046,1.
 0141775555,0.8944444903\C,0,-1.4603342418,0.4964538409,0.8423745698\C,
 0,1.3462279763,-0.6614858141,0.2376125246\C,0,2.5748343057,-1.13940570
 44,0.7335288766\C,0,3.7608309211,-0.4604392775,0.5114653927\C,0,3.7735
 083919,0.7288245994,-0.2515441202\N,0,4.9430504257,1.4379101337,-0.433
 8176239\C,0,2.5521008931,1.1973273164,-0.7783780364\C,0,1.366933589,0.
 5177070083,-0.5305814348\H,0,-2.1761688467,-2.6858711511,-0.0790211704
 \H,0,-4.4751221677,-1.7733927988,-0.0368184816\H,0,-5.2480691,1.711142
 3931,0.6156251958\H,0,-5.8600864064,0.2107217727,0.147726942\H,0,-2.90
 56143744,2.0465719931,1.1938173982\H,0,-0.6293762508,1.1370947888,1.11
 68961533\H,0,2.5766021383,-2.0612610168,1.3059504659\H,0,4.6928286197,
 -0.8404009501,0.9212796445\H,0,4.965543018,2.0885441361,-1.2067171446\
 H,0,5.8076576474,0.9274598949,-0.3191979023\H,0,2.5440566344,2.0961803
 597,-1.3887188418\H,0,0.4494504191,0.8923010566,-0.971288045\\Version=
 ES64L-G16RevA.03\State=1-A\HF=-687.3880674\RMSD=2.820e-09\Dipole=-0.16
 01622,3.6332031,-1.3482797\Quadrupole=38.719684,-20.7077099,-18.011974
 1,1.2635763,-3.1323082,-1.7365855\PG=C01 [X(C13H12N2O1)]\\@


 THE PROMISED LAND ALWAYS LIES ON THE OTHER SIDE OF A WILDERNESS.

                         -- HAVELOCK ELLIS
 Job cpu time:       0 days  0 hours 41 minutes 48.8 seconds.
 Elapsed time:       0 days  0 hours 14 minutes 23.8 seconds.
 File lengths (MBytes):  RWF=    766 Int=      0 D2E=      0 Chk=     47 Scr=      1
 Normal termination of Gaussian 16 at Sun Jul 21 13:43:21 2024.
