 Entering Gaussian System, Link 0=g16
 Initial command:
 /opt/sw/arch/manual/gaussian/G16_A03/g16/l1.exe "/scratch/1381531/Gau-185409.inp" -scrdir="/scratch/1381531/"
 Entering Link 1 = /opt/sw/arch/manual/gaussian/G16_A03/g16/l1.exe PID=    185410.
  
 Copyright (c) 1988,1990,1992,1993,1995,1998,2003,2009,2016,
            Gaussian, Inc.  All Rights Reserved.
  
 This is part of the Gaussian(R) 16 program.  It is based on
 the Gaussian(R) 09 system (copyright 2009, Gaussian, Inc.),
 the Gaussian(R) 03 system (copyright 2003, Gaussian, Inc.),
 the Gaussian(R) 98 system (copyright 1998, Gaussian, Inc.),
 the Gaussian(R) 94 system (copyright 1995, Gaussian, Inc.),
 the Gaussian 92(TM) system (copyright 1992, Gaussian, Inc.),
 the Gaussian 90(TM) system (copyright 1990, Gaussian, Inc.),
 the Gaussian 88(TM) system (copyright 1988, Gaussian, Inc.),
 the Gaussian 86(TM) system (copyright 1986, Carnegie Mellon
 University), and the Gaussian 82(TM) system (copyright 1983,
 Carnegie Mellon University). Gaussian is a federally registered
 trademark of Gaussian, Inc.
  
 This software contains proprietary and confidential information,
 including trade secrets, belonging to Gaussian, Inc.
  
 This software is provided under written license and may be
 used, copied, transmitted, or stored only in accord with that
 written license.
  
 The following legend is applicable only to US Government
 contracts under FAR:
  
                    RESTRICTED RIGHTS LEGEND
  
 Use, reproduction and disclosure by the US Government is
 subject to restrictions as set forth in subparagraphs (a)
 and (c) of the Commercial Computer Software - Restricted
 Rights clause in FAR 52.227-19.
  
 Gaussian, Inc.
 340 Quinnipiac St., Bldg. 40, Wallingford CT 06492
  
  
 ---------------------------------------------------------------
 Warning -- This program may not be used in any manner that
 competes with the business of Gaussian, Inc. or will provide
 assistance to any competitor of Gaussian, Inc.  The licensee
 of this program is prohibited from giving any competitor of
 Gaussian, Inc. access to this program.  By using this program,
 the user acknowledges that Gaussian, Inc. is engaged in the
 business of creating and licensing software in the field of
 computational chemistry and represents and warrants to the
 licensee that it is not a competitor of Gaussian, Inc. and that
 it will not use this program in any manner prohibited above.
 ---------------------------------------------------------------
  

 Cite this work as:
 Gaussian 16, Revision A.03,
 M. J. Frisch, G. W. Trucks, H. B. Schlegel, G. E. Scuseria, 
 M. A. Robb, J. R. Cheeseman, G. Scalmani, V. Barone, 
 G. A. Petersson, H. Nakatsuji, X. Li, M. Caricato, A. V. Marenich, 
 J. Bloino, B. G. Janesko, R. Gomperts, B. Mennucci, H. P. Hratchian, 
 J. V. Ortiz, A. F. Izmaylov, J. L. Sonnenberg, D. Williams-Young, 
 F. Ding, F. Lipparini, F. Egidi, J. Goings, B. Peng, A. Petrone, 
 T. Henderson, D. Ranasinghe, V. G. Zakrzewski, J. Gao, N. Rega, 
 G. Zheng, W. Liang, M. Hada, M. Ehara, K. Toyota, R. Fukuda, 
 J. Hasegawa, M. Ishida, T. Nakajima, Y. Honda, O. Kitao, H. Nakai, 
 T. Vreven, K. Throssell, J. A. Montgomery, Jr., J. E. Peralta, 
 F. Ogliaro, M. J. Bearpark, J. J. Heyd, E. N. Brothers, K. N. Kudin, 
 V. N. Staroverov, T. A. Keith, R. Kobayashi, J. Normand, 
 K. Raghavachari, A. P. Rendell, J. C. Burant, S. S. Iyengar, 
 J. Tomasi, M. Cossi, J. M. Millam, M. Klene, C. Adamo, R. Cammi, 
 J. W. Ochterski, R. L. Martin, K. Morokuma, O. Farkas, 
 J. B. Foresman, and D. J. Fox, Gaussian, Inc., Wallingford CT, 2016.
 
 ******************************************
 Gaussian 16:  ES64L-G16RevA.03 25-Dec-2016
                21-Jul-2024 
 ******************************************
 %nprocshared=4
 Will use up to    4 processors via shared memory.
 %mem=8GB
 %Chk=ZLSMCQSGRWNEGX-UHFFFAOYSA-N_conf_4_0.chk
 -------------------------------------------------------
 # opt=CalcFc B3LYP/6-31G** SCRF=(Solvent=water) scf=xqc
 -------------------------------------------------------
 1/10=4,18=20,19=15,26=3,38=1/1,3;
 2/9=110,12=2,17=6,18=5,40=1/2;
 3/5=1,6=6,7=101,11=2,25=1,30=1,70=2201,71=2,72=1,74=-5,140=1/1,2,3;
 4//1;
 5/5=2,8=3,13=1,38=5,53=1/2,8;
 8/6=4,10=90,11=11/1;
 11/6=1,8=1,9=11,15=111,16=1/1,2,10;
 10/6=1,13=1/2;
 6/7=2,8=2,9=2,10=2,28=1/1;
 7/10=1,18=20,25=1/1,2,3,16;
 1/10=4,18=20,19=15,26=3/3(2);
 2/9=110/2;
 99//99;
 2/9=110/2;
 3/5=1,6=6,7=101,11=2,25=1,30=1,70=2205,71=1,72=1,74=-5/1,2,3;
 4/5=5,16=3,69=1/1;
 5/5=2,8=3,13=1,38=5,53=1/2,8;
 7//1,2,3,16;
 1/18=20,19=15,26=3/3(-5);
 2/9=110/2;
 6/7=2,8=2,9=2,10=2,19=2,28=1/1;
 99/9=1/99;
 ----------------------------------
 ZLSMCQSGRWNEGX-UHFFFAOYSA-N_conf_4
 ----------------------------------
 Symbolic Z-matrix:
 Charge =  0 Multiplicity = 1
 O                    -0.30326   2.55363   0.97165 
 C                    -0.17095   1.41407   0.53242 
 C                     1.18321   0.94139   0.15148 
 C                     1.39045   0.11607  -0.9577 
 C                     2.68587  -0.29884  -1.28389 
 C                     3.7874    0.14462  -0.54621 
 N                     5.06119  -0.37274  -0.80407 
 C                     3.56575   0.93843   0.58219 
 C                     2.27558   1.36041   0.91581 
 C                    -1.36593   0.54306   0.3928 
 C                    -1.29985  -0.83815   0.59937 
 C                    -2.45421  -1.61837   0.47183 
 C                    -3.67453  -1.03995   0.11158 
 N                    -4.84251  -1.80859   0.10472 
 C                    -3.74623   0.34974  -0.01351 
 C                    -2.59855   1.1386    0.11072 
 H                     0.56116  -0.20962  -1.57967 
 H                     2.82916  -0.96786  -2.1287 
 H                     5.81827   0.20727  -0.45491 
 H                     5.2064   -0.65114  -1.76951 
 H                     4.39834   1.24317   1.21098 
 H                     2.12443   2.00402   1.77998 
 H                    -0.37015  -1.32      0.89041 
 H                    -2.39349  -2.68619   0.66704 
 H                    -4.69435  -2.79027  -0.10621 
 H                    -5.60043  -1.40634  -0.43799 
 H                    -4.7       0.83492  -0.20444 
 H                    -2.67275   2.21868   0.00142 
 

 GradGradGradGradGradGradGradGradGradGradGradGradGradGradGradGradGradGrad
 Berny optimization.
 Initialization pass.
                           ----------------------------
                           !    Initial Parameters    !
                           ! (Angstroms and Degrees)  !
 --------------------------                            --------------------------
 ! Name  Definition              Value          Derivative Info.                !
 --------------------------------------------------------------------------------
 ! R1    R(1,2)                  1.2284         calculate D2E/DX2 analytically  !
 ! R2    R(2,3)                  1.484          calculate D2E/DX2 analytically  !
 ! R3    R(2,10)                 1.4853         calculate D2E/DX2 analytically  !
 ! R4    R(3,4)                  1.398          calculate D2E/DX2 analytically  !
 ! R5    R(3,9)                  1.3975         calculate D2E/DX2 analytically  !
 ! R6    R(4,5)                  1.3988         calculate D2E/DX2 analytically  !
 ! R7    R(4,17)                 1.0866         calculate D2E/DX2 analytically  !
 ! R8    R(5,6)                  1.3979         calculate D2E/DX2 analytically  !
 ! R9    R(5,18)                 1.0871         calculate D2E/DX2 analytically  !
 ! R10   R(6,7)                  1.3988         calculate D2E/DX2 analytically  !
 ! R11   R(6,8)                  1.3973         calculate D2E/DX2 analytically  !
 ! R12   R(7,19)                 1.0156         calculate D2E/DX2 analytically  !
 ! R13   R(7,20)                 1.0152         calculate D2E/DX2 analytically  !
 ! R14   R(8,9)                  1.3978         calculate D2E/DX2 analytically  !
 ! R15   R(8,21)                 1.087          calculate D2E/DX2 analytically  !
 ! R16   R(9,22)                 1.0881         calculate D2E/DX2 analytically  !
 ! R17   R(10,11)                1.3981         calculate D2E/DX2 analytically  !
 ! R18   R(10,16)                1.3977         calculate D2E/DX2 analytically  !
 ! R19   R(11,12)                1.3991         calculate D2E/DX2 analytically  !
 ! R20   R(11,23)                1.0868         calculate D2E/DX2 analytically  !
 ! R21   R(12,13)                1.3977         calculate D2E/DX2 analytically  !
 ! R22   R(12,24)                1.0872         calculate D2E/DX2 analytically  !
 ! R23   R(13,14)                1.3982         calculate D2E/DX2 analytically  !
 ! R24   R(13,15)                1.3972         calculate D2E/DX2 analytically  !
 ! R25   R(14,25)                1.015          calculate D2E/DX2 analytically  !
 ! R26   R(14,26)                1.0153         calculate D2E/DX2 analytically  !
 ! R27   R(15,16)                1.3982         calculate D2E/DX2 analytically  !
 ! R28   R(15,27)                1.087          calculate D2E/DX2 analytically  !
 ! R29   R(16,28)                1.0881         calculate D2E/DX2 analytically  !
 ! A1    A(1,2,3)              119.0483         calculate D2E/DX2 analytically  !
 ! A2    A(1,2,10)             119.4031         calculate D2E/DX2 analytically  !
 ! A3    A(3,2,10)             121.5485         calculate D2E/DX2 analytically  !
 ! A4    A(2,3,4)              121.8019         calculate D2E/DX2 analytically  !
 ! A5    A(2,3,9)              118.5131         calculate D2E/DX2 analytically  !
 ! A6    A(4,3,9)              119.6738         calculate D2E/DX2 analytically  !
 ! A7    A(3,4,5)              119.8295         calculate D2E/DX2 analytically  !
 ! A8    A(3,4,17)             121.1961         calculate D2E/DX2 analytically  !
 ! A9    A(5,4,17)             118.9739         calculate D2E/DX2 analytically  !
 ! A10   A(4,5,6)              120.836          calculate D2E/DX2 analytically  !
 ! A11   A(4,5,18)             119.0667         calculate D2E/DX2 analytically  !
 ! A12   A(6,5,18)             120.0951         calculate D2E/DX2 analytically  !
 ! A13   A(5,6,7)              120.1948         calculate D2E/DX2 analytically  !
 ! A14   A(5,6,8)              118.7738         calculate D2E/DX2 analytically  !
 ! A15   A(7,6,8)              120.2265         calculate D2E/DX2 analytically  !
 ! A16   A(6,7,19)             113.8417         calculate D2E/DX2 analytically  !
 ! A17   A(6,7,20)             114.0148         calculate D2E/DX2 analytically  !
 ! A18   A(19,7,20)            112.1428         calculate D2E/DX2 analytically  !
 ! A19   A(6,8,9)              120.7067         calculate D2E/DX2 analytically  !
 ! A20   A(6,8,21)             120.3263         calculate D2E/DX2 analytically  !
 ! A21   A(9,8,21)             118.9656         calculate D2E/DX2 analytically  !
 ! A22   A(3,9,8)              120.0266         calculate D2E/DX2 analytically  !
 ! A23   A(3,9,22)             120.2088         calculate D2E/DX2 analytically  !
 ! A24   A(8,9,22)             119.759          calculate D2E/DX2 analytically  !
 ! A25   A(2,10,11)            121.8303         calculate D2E/DX2 analytically  !
 ! A26   A(2,10,16)            118.5951         calculate D2E/DX2 analytically  !
 ! A27   A(11,10,16)           119.5001         calculate D2E/DX2 analytically  !
 ! A28   A(10,11,12)           119.8965         calculate D2E/DX2 analytically  !
 ! A29   A(10,11,23)           121.1965         calculate D2E/DX2 analytically  !
 ! A30   A(12,11,23)           118.8779         calculate D2E/DX2 analytically  !
 ! A31   A(11,12,13)           120.8687         calculate D2E/DX2 analytically  !
 ! A32   A(11,12,24)           119.0288         calculate D2E/DX2 analytically  !
 ! A33   A(13,12,24)           120.0997         calculate D2E/DX2 analytically  !
 ! A34   A(12,13,14)           120.2045         calculate D2E/DX2 analytically  !
 ! A35   A(12,13,15)           118.6539         calculate D2E/DX2 analytically  !
 ! A36   A(14,13,15)           120.2308         calculate D2E/DX2 analytically  !
 ! A37   A(13,14,25)           114.2544         calculate D2E/DX2 analytically  !
 ! A38   A(13,14,26)           114.1051         calculate D2E/DX2 analytically  !
 ! A39   A(25,14,26)           112.4013         calculate D2E/DX2 analytically  !
 ! A40   A(13,15,16)           120.7381         calculate D2E/DX2 analytically  !
 ! A41   A(13,15,27)           120.3132         calculate D2E/DX2 analytically  !
 ! A42   A(16,15,27)           118.948          calculate D2E/DX2 analytically  !
 ! A43   A(10,16,15)           120.0939         calculate D2E/DX2 analytically  !
 ! A44   A(10,16,28)           120.2212         calculate D2E/DX2 analytically  !
 ! A45   A(15,16,28)           119.6787         calculate D2E/DX2 analytically  !
 ! D1    D(1,2,3,4)           -142.7533         calculate D2E/DX2 analytically  !
 ! D2    D(1,2,3,9)             36.0231         calculate D2E/DX2 analytically  !
 ! D3    D(10,2,3,4)            37.1555         calculate D2E/DX2 analytically  !
 ! D4    D(10,2,3,9)          -144.0681         calculate D2E/DX2 analytically  !
 ! D5    D(1,2,10,11)         -145.4684         calculate D2E/DX2 analytically  !
 ! D6    D(1,2,10,16)           31.3761         calculate D2E/DX2 analytically  !
 ! D7    D(3,2,10,11)           34.6231         calculate D2E/DX2 analytically  !
 ! D8    D(3,2,10,16)         -148.5324         calculate D2E/DX2 analytically  !
 ! D9    D(2,3,4,5)            179.6236         calculate D2E/DX2 analytically  !
 ! D10   D(2,3,4,17)            -0.1171         calculate D2E/DX2 analytically  !
 ! D11   D(9,3,4,5)              0.8611         calculate D2E/DX2 analytically  !
 ! D12   D(9,3,4,17)          -178.8796         calculate D2E/DX2 analytically  !
 ! D13   D(2,3,9,8)           -179.7559         calculate D2E/DX2 analytically  !
 ! D14   D(2,3,9,22)             1.1056         calculate D2E/DX2 analytically  !
 ! D15   D(4,3,9,8)             -0.9527         calculate D2E/DX2 analytically  !
 ! D16   D(4,3,9,22)           179.9087         calculate D2E/DX2 analytically  !
 ! D17   D(3,4,5,6)             -2.5999         calculate D2E/DX2 analytically  !
 ! D18   D(3,4,5,18)           177.9338         calculate D2E/DX2 analytically  !
 ! D19   D(17,4,5,6)           177.1465         calculate D2E/DX2 analytically  !
 ! D20   D(17,4,5,18)           -2.3198         calculate D2E/DX2 analytically  !
 ! D21   D(4,5,6,7)            174.0997         calculate D2E/DX2 analytically  !
 ! D22   D(4,5,6,8)              4.3489         calculate D2E/DX2 analytically  !
 ! D23   D(18,5,6,7)            -6.4395         calculate D2E/DX2 analytically  !
 ! D24   D(18,5,6,8)          -176.1903         calculate D2E/DX2 analytically  !
 ! D25   D(5,6,7,19)           160.8167         calculate D2E/DX2 analytically  !
 ! D26   D(5,6,7,20)            30.4239         calculate D2E/DX2 analytically  !
 ! D27   D(8,6,7,19)           -29.5822         calculate D2E/DX2 analytically  !
 ! D28   D(8,6,7,20)          -159.975          calculate D2E/DX2 analytically  !
 ! D29   D(5,6,8,9)             -4.4341         calculate D2E/DX2 analytically  !
 ! D30   D(5,6,8,21)           175.9986         calculate D2E/DX2 analytically  !
 ! D31   D(7,6,8,9)           -174.1815         calculate D2E/DX2 analytically  !
 ! D32   D(7,6,8,21)             6.2511         calculate D2E/DX2 analytically  !
 ! D33   D(6,8,9,3)              2.7808         calculate D2E/DX2 analytically  !
 ! D34   D(6,8,9,22)          -178.0767         calculate D2E/DX2 analytically  !
 ! D35   D(21,8,9,3)          -177.646          calculate D2E/DX2 analytically  !
 ! D36   D(21,8,9,22)            1.4965         calculate D2E/DX2 analytically  !
 ! D37   D(2,10,11,12)         179.2753         calculate D2E/DX2 analytically  !
 ! D38   D(2,10,11,23)           1.2601         calculate D2E/DX2 analytically  !
 ! D39   D(16,10,11,12)          2.4586         calculate D2E/DX2 analytically  !
 ! D40   D(16,10,11,23)       -175.5566         calculate D2E/DX2 analytically  !
 ! D41   D(2,10,16,15)        -179.3385         calculate D2E/DX2 analytically  !
 ! D42   D(2,10,16,28)          -0.2488         calculate D2E/DX2 analytically  !
 ! D43   D(11,10,16,15)         -2.4187         calculate D2E/DX2 analytically  !
 ! D44   D(11,10,16,28)        176.671          calculate D2E/DX2 analytically  !
 ! D45   D(10,11,12,13)          1.3595         calculate D2E/DX2 analytically  !
 ! D46   D(10,11,12,24)       -178.0381         calculate D2E/DX2 analytically  !
 ! D47   D(23,11,12,13)        179.4206         calculate D2E/DX2 analytically  !
 ! D48   D(23,11,12,24)          0.023          calculate D2E/DX2 analytically  !
 ! D49   D(11,12,13,14)       -174.247          calculate D2E/DX2 analytically  !
 ! D50   D(11,12,13,15)         -5.1421         calculate D2E/DX2 analytically  !
 ! D51   D(24,12,13,14)          5.1442         calculate D2E/DX2 analytically  !
 ! D52   D(24,12,13,15)        174.249          calculate D2E/DX2 analytically  !
 ! D53   D(12,13,14,25)        -30.2269         calculate D2E/DX2 analytically  !
 ! D54   D(12,13,14,26)       -161.4895         calculate D2E/DX2 analytically  !
 ! D55   D(15,13,14,25)        160.8409         calculate D2E/DX2 analytically  !
 ! D56   D(15,13,14,26)         29.5784         calculate D2E/DX2 analytically  !
 ! D57   D(12,13,15,16)          5.1805         calculate D2E/DX2 analytically  !
 ! D58   D(12,13,15,27)       -174.4991         calculate D2E/DX2 analytically  !
 ! D59   D(14,13,15,16)        174.2824         calculate D2E/DX2 analytically  !
 ! D60   D(14,13,15,27)         -5.3972         calculate D2E/DX2 analytically  !
 ! D61   D(13,15,16,10)         -1.4448         calculate D2E/DX2 analytically  !
 ! D62   D(13,15,16,28)        179.4605         calculate D2E/DX2 analytically  !
 ! D63   D(27,15,16,10)        178.2392         calculate D2E/DX2 analytically  !
 ! D64   D(27,15,16,28)         -0.8555         calculate D2E/DX2 analytically  !
 --------------------------------------------------------------------------------
 Trust Radius=3.00D-01 FncErr=1.00D-07 GrdErr=1.00D-06 EigMax=2.50D+02 EigMin=1.00D-04
 Number of steps in this run=    148 maximum allowed number of steps=    168.
 GradGradGradGradGradGradGradGradGradGradGradGradGradGradGradGradGradGrad

                          Input orientation:                          
 ---------------------------------------------------------------------
 Center     Atomic      Atomic             Coordinates (Angstroms)
 Number     Number       Type             X           Y           Z
 ---------------------------------------------------------------------
      1          8           0       -0.303257    2.553628    0.971646
      2          6           0       -0.170945    1.414073    0.532420
      3          6           0        1.183207    0.941385    0.151478
      4          6           0        1.390454    0.116074   -0.957696
      5          6           0        2.685866   -0.298842   -1.283885
      6          6           0        3.787399    0.144617   -0.546206
      7          7           0        5.061189   -0.372745   -0.804067
      8          6           0        3.565749    0.938426    0.582185
      9          6           0        2.275584    1.360408    0.915809
     10          6           0       -1.365932    0.543061    0.392800
     11          6           0       -1.299851   -0.838152    0.599368
     12          6           0       -2.454213   -1.618372    0.471830
     13          6           0       -3.674531   -1.039949    0.111578
     14          7           0       -4.842508   -1.808591    0.104718
     15          6           0       -3.746232    0.349742   -0.013513
     16          6           0       -2.598554    1.138604    0.110725
     17          1           0        0.561159   -0.209617   -1.579673
     18          1           0        2.829160   -0.967863   -2.128696
     19          1           0        5.818267    0.207265   -0.454913
     20          1           0        5.206396   -0.651144   -1.769507
     21          1           0        4.398342    1.243170    1.210981
     22          1           0        2.124435    2.004020    1.779976
     23          1           0       -0.370153   -1.320000    0.890414
     24          1           0       -2.393487   -2.686188    0.667035
     25          1           0       -4.694353   -2.790270   -0.106214
     26          1           0       -5.600433   -1.406338   -0.437988
     27          1           0       -4.700004    0.834919   -0.204441
     28          1           0       -2.672752    2.218678    0.001419
 ---------------------------------------------------------------------
                    Distance matrix (angstroms):
                    1          2          3          4          5
     1  O    0.000000
     2  C    1.228418   0.000000
     3  C    2.341277   1.484008   0.000000
     4  C    3.540154   2.518574   1.397983   0.000000
     5  C    4.707320   3.793997   2.420003   1.398802   0.000000
     6  C    4.984042   4.294583   2.811301   2.432176   1.397927
     7  N    6.363497   5.688070   4.204610   3.706324   2.424427
     8  C    4.210672   3.767174   2.421161   2.789158   2.405670
     9  C    2.842061   2.476968   1.397522   2.416990   2.785695
    10  C    2.346640   1.485311   2.591333   3.099003   4.465102
    11  C    3.554710   2.520204   3.087546   3.251575   4.441108
    12  C    4.720383   3.796407   4.459351   4.453461   5.589643
    13  C    5.001900   4.298191   5.246417   5.304131   6.553717
    14  N    6.354945   5.691396   6.623730   6.609303   7.802819
    15  C    4.204966   3.770082   4.967559   5.227966   6.588353
    16  C    2.830524   2.479313   3.787120   4.254325   5.651220
    17  H    3.859011   2.762839   2.169938   1.086582   2.147052
    18  H    5.641370   4.664310   3.399055   2.148495   1.087119
    19  H    6.709213   6.188851   4.731851   4.457199   3.279523
    20  H    6.938353   6.203207   4.734171   3.976062   2.590948
    21  H    4.886677   4.622558   3.398634   3.875680   3.396283
    22  H    2.617088   2.678284   2.160349   3.405571   3.873709
    23  H    3.875057   2.764598   2.841270   2.928746   3.887106
    24  H    5.649560   4.665829   5.120335   4.981028   5.941829
    25  H    7.000054   6.208508   6.966877   6.796818   7.877928
    26  H    6.762283   6.194816   7.202572   7.173586   8.402669
    27  H    4.865032   4.625014   5.894929   6.178820   7.549947
    28  H    2.582255   2.681116   4.064777   4.674451   6.058440
                    6          7          8          9         10
     6  C    0.000000
     7  N    1.398820   0.000000
     8  C    1.397330   2.424295   0.000000
     9  C    2.429243   3.704239   1.397820   0.000000
    10  C    5.253314   6.601445   4.951127   3.768585   0.000000
    11  C    5.306438   6.530625   5.179825   4.209220   1.398137
    12  C    6.565230   7.724039   6.541356   5.607248   2.421239
    13  C    7.583948   8.808880   7.520445   6.466248   2.813296
    14  N    8.872092  10.048421   8.858491   7.833751   4.207118
    15  C    7.555225   8.872296   7.359788   6.176354   2.422456
    16  C    6.496150   7.860832   6.185546   4.945157   1.397711
    17  H    3.406194   4.569294   3.875461   3.410522   2.858470
    18  H    2.158728   2.662849   3.394905   3.872506   5.122463
    19  H    2.033884   1.015621   2.585344   3.969788   7.241829
    20  H    2.035498   1.015217   3.278553   4.454988   7.021195
    21  H    2.160505   2.666640   1.086952   2.146386   5.863994
    22  H    3.410858   4.577206   2.155824   1.088056   4.030052
    23  H    4.636185   5.767844   4.548276   3.766318   2.170298
    24  H    6.905705   7.942818   6.975494   6.183611   3.399872
    25  H    8.985948  10.074822   9.088804   8.176349   4.736929
    26  H    9.515700  10.717859   9.516174   8.456908   4.735120
    27  H    8.522284   9.853877   8.303744   7.084485   3.399694
    28  H    6.806994   8.196226   6.394937   5.104778   2.160706
                   11         12         13         14         15
    11  C    0.000000
    12  C    1.399129   0.000000
    13  C    2.432645   1.397687   0.000000
    14  N    3.706325   2.423821   1.398223   0.000000
    15  C    2.787740   2.403818   1.397150   2.423675   0.000000
    16  C    2.415154   2.784268   2.429778   3.704231   1.398179
    17  H    2.933707   3.909697   4.635823   5.881625   4.617289
    18  H    4.950545   5.924520   6.879100   8.034267   7.031775
    19  H    7.271314   8.522073   9.591124  10.864114   9.575739
    20  H    6.926600   8.040153   9.086281  10.287510   9.177953
    21  H    6.097162   7.462726   8.461241   9.794405   8.284425
    22  H    4.604076   5.983058   6.758498   8.116698   6.357513
    23  H    1.086841   2.146520   3.406454   4.567056   3.873375
    24  H    2.148454   1.087209   2.158636   2.661594   3.392630
    25  H    3.978851   2.593397   2.037423   1.014956   3.281341
    26  H    4.460263   3.281985   2.036017   1.015277   2.588832
    27  H    3.873799   3.394047   2.160230   2.665339   1.086983
    28  H    3.403911   3.871950   3.410916   4.575742   2.155344
                   16         17         18         19         20
    16  C    0.000000
    17  H    3.828699   0.000000
    18  H    6.237972   2.453608   0.000000
    19  H    8.487061   5.392222   3.621773   0.000000
    20  H    8.225309   4.670033   2.424991   1.685055   0.000000
    21  H    7.083647   4.962088   4.301679   2.421670   3.622801
    22  H    5.083500   4.316394   4.960488   4.676264   5.398815
    23  H    3.408581   2.863848   4.413006   6.514520   6.214534
    24  H    3.870474   4.462179   6.168046   8.778595   8.236283
    25  H    4.458193   6.037488   8.000928  10.937183  10.264854
    26  H    3.973549   6.379718   8.608646  11.532159  10.914706
    27  H    2.146543   5.537342   7.977536  10.539958  10.138766
    28  H    1.088123   4.342193   6.705405   8.737929   8.570473
                   21         22         23         24         25
    21  H    0.000000
    22  H    2.464407   0.000000
    23  H    5.423205   4.250105   0.000000
    24  H    7.865410   6.606686   2.451581   0.000000
    25  H   10.033980   8.546274   4.674791   2.429554   0.000000
    26  H   10.474469   8.730606   5.397030   3.625410   1.687104
    27  H    9.216832   7.202616   4.958830   4.298568   3.626523
    28  H    7.239822   5.120775   4.314454   4.957696   5.402593
                   26         27         28
    26  H    0.000000
    27  H    2.426633   0.000000
    28  H    4.680292   2.463112   0.000000
 Stoichiometry    C13H12N2O
 Framework group  C1[X(C13H12N2O)]
 Deg. of freedom    78
 Full point group                 C1      NOp   1
 Largest Abelian subgroup         C1      NOp   1
 Largest concise Abelian subgroup C1      NOp   1
                         Standard orientation:                         
 ---------------------------------------------------------------------
 Center     Atomic      Atomic             Coordinates (Angstroms)
 Number     Number       Type             X           Y           Z
 ---------------------------------------------------------------------
      1          8           0        0.001006    2.553063   -0.027327
      2          6           0       -0.000226    1.324690   -0.016859
      3          6           0        1.295902    0.602558   -0.046175
      4          6           0        1.459807   -0.588253   -0.759940
      5          6           0        2.702371   -1.230630   -0.765673
      6          6           0        3.802074   -0.669629   -0.109830
      7          7           0        5.003968   -1.379415   -0.018438
      8          6           0        3.618131    0.500634    0.631236
      9          6           0        2.381239    1.151696    0.641982
     10          6           0       -1.294510    0.597084    0.022705
     11          6           0       -1.440275   -0.611509    0.710340
     12          6           0       -2.682355   -1.255134    0.733742
     13          6           0       -3.779949   -0.720603    0.053233
     14          7           0       -5.042180   -1.307943    0.182976
     15          6           0       -3.644169    0.526218   -0.562423
     16          6           0       -2.407230    1.177347   -0.592719
     17          1           0        0.637665   -1.027402   -1.318412
     18          1           0        2.807081   -2.173419   -1.296722
     19          1           0        5.809916   -0.797089    0.188518
     20          1           0        5.174551   -2.005360   -0.799309
     21          1           0        4.440073    0.922555    1.203824
     22          1           0        2.263814    2.078915    1.199066
     23          1           0       -0.611086   -1.050747    1.258737
     24          1           0       -2.787986   -2.177556    1.299429
     25          1           0       -5.021094   -2.308607    0.351383
     26          1           0       -5.695671   -1.052789   -0.550940
     27          1           0       -4.503587    1.007725   -1.021861
     28          1           0       -2.319102    2.143953   -1.084571
 ---------------------------------------------------------------------
 Rotational constants (GHZ):           1.3576581           0.2508365           0.2225146
 Standard basis: 6-31G(d,p) (6D, 7F)
 There are   300 symmetry adapted cartesian basis functions of A   symmetry.
 There are   300 symmetry adapted basis functions of A   symmetry.
   300 basis functions,   532 primitive gaussians,   300 cartesian basis functions
    56 alpha electrons       56 beta electrons
       nuclear repulsion energy       976.0494375797 Hartrees.
 NAtoms=   28 NActive=   28 NUniq=   28 SFac= 1.00D+00 NAtFMM=   60 NAOKFM=F Big=F
 Integral buffers will be    131072 words long.
 Raffenetti 2 integral format.
 Two-electron integral symmetry is turned on.
 Force inversion solution in PCM.
 ------------------------------------------------------------------------------
 Polarizable Continuum Model (PCM)
 =================================
 Model                : PCM.
 Atomic radii         : UFF (Universal Force Field).
 Polarization charges : Total charges.
 Charge compensation  : None.
 Solution method      : Matrix inversion.
 Cavity type          : Scaled VdW (van der Waals Surface) (Alpha=1.100).
 Cavity algorithm     : GePol (No added spheres)
                        Default sphere list used, NSphG=   28.
                        Lebedev-Laikov grids with approx.  5.0 points / Ang**2.
                        Smoothing algorithm: York/Karplus (Gamma=1.0000).
                        Polarization charges: spherical gaussians, with
                                              point-specific exponents (IZeta= 3).
                        Self-potential: point-specific (ISelfS= 7).
                        Self-field    : sphere-specific E.n sum rule (ISelfD= 2).
 1st derivatives      : Analytical E(r).r(x)/FMM algorithm (CHGder, D1EAlg=3).
                        Cavity 1st derivative terms included.
 2nd derivatives      : Analytical E(r).r(xy)/FMM algorithm (CHGder, D2EAlg=3).
                        Cavity 2nd derivative terms included.
 Solvent              : Water, Eps=  78.355300 Eps(inf)=   1.777849
 ------------------------------------------------------------------------------
 One-electron integrals computed using PRISM.
 NBasis=   300 RedAO= T EigKep=  4.30D-04  NBF=   300
 NBsUse=   300 1.00D-06 EigRej= -1.00D+00 NBFU=   300
 ExpMin= 1.61D-01 ExpMax= 5.48D+03 ExpMxC= 8.25D+02 IAcc=3 IRadAn=         5 AccDes= 0.00D+00
 Harris functional with IExCor=  402 and IRadAn=       5 diagonalized for initial guess.
 HarFok:  IExCor=  402 AccDes= 0.00D+00 IRadAn=         5 IDoV= 1 UseB2=F ITyADJ=14
 ICtDFT=  3500011 ScaDFX=  1.000000  1.000000  1.000000  1.000000
 FoFCou: FMM=F IPFlag=           0 FMFlag=      100000 FMFlg1=           0
         NFxFlg=           0 DoJE=T BraDBF=F KetDBF=T FulRan=T
         wScrn=  0.000000 ICntrl=       500 IOpCl=  0 I1Cent=   200000004 NGrid=           0
         NMat0=    1 NMatS0=      1 NMatT0=    0 NMatD0=    1 NMtDS0=    0 NMtDT0=    0
 Petite list used in FoFCou.
 Keep R1 ints in memory in canonical form, NReq=1032920980.
 Requested convergence on RMS density matrix=1.00D-08 within  32 cycles.
 Requested convergence on MAX density matrix=1.00D-06.
 Requested convergence on             energy=1.00D-06.
 No special actions if energy rises.
 Inv3:  Mode=1 IEnd=    14113683.
 Iteration    1 A*A^-1 deviation from unit magnitude is 3.22D-15 for    490.
 Iteration    1 A*A^-1 deviation from orthogonality  is 2.00D-15 for   1981   1830.
 Iteration    1 A^-1*A deviation from unit magnitude is 3.11D-15 for   1910.
 Iteration    1 A^-1*A deviation from orthogonality  is 3.45D-14 for   1221   1144.
 Error on total polarization charges =  0.00873
 SCF Done:  E(RB3LYP) =  -687.382039595     A.U. after   12 cycles
            NFock= 12  Conv=0.97D-08     -V/T= 2.0095
 QCSCF skips out because SCF is already converged.
 DoSCS=F DFT=T ScalE2(SS,OS)=  1.000000  1.000000
 Range of M.O.s used for correlation:     1   300
 NBasis=   300 NAE=    56 NBE=    56 NFC=     0 NFV=     0
 NROrb=    300 NOA=    56 NOB=    56 NVA=   244 NVB=   244
 Symmetrizing basis deriv contribution to polar:
 IMax=3 JMax=2 DiffMx= 0.00D+00
 G2DrvN: will do    29 centers at a time, making    1 passes.
 Calling FoFCou, ICntrl=  3107 FMM=F I1Cent=   0 AccDes= 0.00D+00.
 NEqPCM:  Using equilibrium solvation (IEInf=0, Eps=  78.3553, EpsInf=   1.7778)
 G2PCM: DoFxE=T DoFxN=T DoGrad=T DoDP/DQ/DG/TGxP=FFFF NFrqRd=   0 IEInf=0 SqF1=F DoCFld=F IF1Alg=4.
 End of G2Drv F.D. properties file   721 does not exist.
 End of G2Drv F.D. properties file   722 does not exist.
 End of G2Drv F.D. properties file   788 does not exist.
          IDoAtm=1111111111111111111111111111
 NEqPCM:  Using equilibrium solvation (IEInf=0, Eps=  78.3553, EpsInf=   1.7778)
          Differentiating once with respect to nuclear coordinates.
 Keep R1 ints in memory in canonical form, NReq=1032932641.
          There are    87 degrees of freedom in the 1st order CPHF.  IDoFFX=6 NUNeed=     0.
     81 vectors produced by pass  0 Test12= 1.57D-14 1.15D-09 XBig12= 1.11D-01 1.17D-01.
 AX will form    81 AO Fock derivatives at one time.
     81 vectors produced by pass  1 Test12= 1.57D-14 1.15D-09 XBig12= 4.73D-02 6.13D-02.
     81 vectors produced by pass  2 Test12= 1.57D-14 1.15D-09 XBig12= 2.82D-04 2.55D-03.
     81 vectors produced by pass  3 Test12= 1.57D-14 1.15D-09 XBig12= 1.14D-06 1.87D-04.
     81 vectors produced by pass  4 Test12= 1.57D-14 1.15D-09 XBig12= 3.46D-09 6.59D-06.
     61 vectors produced by pass  5 Test12= 1.57D-14 1.15D-09 XBig12= 3.80D-12 2.21D-07.
     17 vectors produced by pass  6 Test12= 1.57D-14 1.15D-09 XBig12= 3.39D-15 5.85D-09.
 InvSVY:  IOpt=1 It=  1 EMax= 6.17D-16
 Solved reduced A of dimension   483 with    87 vectors.
 End of Minotr F.D. properties file   721 does not exist.
 End of Minotr F.D. properties file   722 does not exist.
 End of Minotr F.D. properties file   788 does not exist.

 **********************************************************************

            Population analysis using the SCF density.

 **********************************************************************

 Orbital symmetries:
       Occupied  (A) (A) (A) (A) (A) (A) (A) (A) (A) (A) (A) (A)
                 (A) (A) (A) (A) (A) (A) (A) (A) (A) (A) (A) (A)
                 (A) (A) (A) (A) (A) (A) (A) (A) (A) (A) (A) (A)
                 (A) (A) (A) (A) (A) (A) (A) (A) (A) (A) (A) (A)
                 (A) (A) (A) (A) (A) (A) (A) (A)
       Virtual   (A) (A) (A) (A) (A) (A) (A) (A) (A) (A) (A) (A)
                 (A) (A) (A) (A) (A) (A) (A) (A) (A) (A) (A) (A)
                 (A) (A) (A) (A) (A) (A) (A) (A) (A) (A) (A) (A)
                 (A) (A) (A) (A) (A) (A) (A) (A) (A) (A) (A) (A)
                 (A) (A) (A) (A) (A) (A) (A) (A) (A) (A) (A) (A)
                 (A) (A) (A) (A) (A) (A) (A) (A) (A) (A) (A) (A)
                 (A) (A) (A) (A) (A) (A) (A) (A) (A) (A) (A) (A)
                 (A) (A) (A) (A) (A) (A) (A) (A) (A) (A) (A) (A)
                 (A) (A) (A) (A) (A) (A) (A) (A) (A) (A) (A) (A)
                 (A) (A) (A) (A) (A) (A) (A) (A) (A) (A) (A) (A)
                 (A) (A) (A) (A) (A) (A) (A) (A) (A) (A) (A) (A)
                 (A) (A) (A) (A) (A) (A) (A) (A) (A) (A) (A) (A)
                 (A) (A) (A) (A) (A) (A) (A) (A) (A) (A) (A) (A)
                 (A) (A) (A) (A) (A) (A) (A) (A) (A) (A) (A) (A)
                 (A) (A) (A) (A) (A) (A) (A) (A) (A) (A) (A) (A)
                 (A) (A) (A) (A) (A) (A) (A) (A) (A) (A) (A) (A)
                 (A) (A) (A) (A) (A) (A) (A) (A) (A) (A) (A) (A)
                 (A) (A) (A) (A) (A) (A) (A) (A) (A) (A) (A) (A)
                 (A) (A) (A) (A) (A) (A) (A) (A) (A) (A) (A) (A)
                 (A) (A) (A) (A) (A) (A) (A) (A) (A) (A) (A) (A)
                 (A) (A) (A) (A)
 The electronic state is 1-A.
 Alpha  occ. eigenvalues --  -19.12531 -14.34381 -14.34326 -10.26606 -10.23594
 Alpha  occ. eigenvalues --  -10.23538 -10.19801 -10.19788 -10.19627 -10.19625
 Alpha  occ. eigenvalues --  -10.18856 -10.18849 -10.18845 -10.18838 -10.18830
 Alpha  occ. eigenvalues --  -10.18825  -1.02757  -0.92077  -0.92039  -0.84795
 Alpha  occ. eigenvalues --   -0.84091  -0.75715  -0.74822  -0.74681  -0.73092
 Alpha  occ. eigenvalues --   -0.63992  -0.61887  -0.61815  -0.60025  -0.55431
 Alpha  occ. eigenvalues --   -0.52807  -0.51276  -0.50890  -0.50852  -0.48428
 Alpha  occ. eigenvalues --   -0.44633  -0.44238  -0.44060  -0.43371  -0.42409
 Alpha  occ. eigenvalues --   -0.42165  -0.41774  -0.39620  -0.38950  -0.37980
 Alpha  occ. eigenvalues --   -0.37335  -0.36528  -0.34572  -0.34419  -0.31720
 Alpha  occ. eigenvalues --   -0.30694  -0.25736  -0.25488  -0.24468  -0.21278
 Alpha  occ. eigenvalues --   -0.21228
 Alpha virt. eigenvalues --   -0.04750  -0.01314  -0.00175   0.00539   0.06478
 Alpha virt. eigenvalues --    0.09219   0.09245   0.10800   0.11316   0.12966
 Alpha virt. eigenvalues --    0.13060   0.15238   0.17041   0.17061   0.17349
 Alpha virt. eigenvalues --    0.17826   0.18268   0.19628   0.20299   0.24561
 Alpha virt. eigenvalues --    0.25249   0.26310   0.28993   0.30303   0.32593
 Alpha virt. eigenvalues --    0.33174   0.33337   0.34402   0.34679   0.35420
 Alpha virt. eigenvalues --    0.38343   0.41173   0.47599   0.49878   0.50486
 Alpha virt. eigenvalues --    0.52017   0.52243   0.52737   0.53528   0.54128
 Alpha virt. eigenvalues --    0.55688   0.56859   0.57621   0.58478   0.58605
 Alpha virt. eigenvalues --    0.58859   0.58911   0.59422   0.60209   0.60450
 Alpha virt. eigenvalues --    0.60933   0.62203   0.62517   0.63381   0.65120
 Alpha virt. eigenvalues --    0.65783   0.67540   0.68888   0.69248   0.70069
 Alpha virt. eigenvalues --    0.70380   0.73589   0.74374   0.75311   0.77672
 Alpha virt. eigenvalues --    0.78942   0.80845   0.81162   0.81716   0.82088
 Alpha virt. eigenvalues --    0.82429   0.83835   0.84079   0.85384   0.85476
 Alpha virt. eigenvalues --    0.86523   0.86797   0.87481   0.88826   0.89311
 Alpha virt. eigenvalues --    0.91312   0.92051   0.92974   0.96729   0.98781
 Alpha virt. eigenvalues --    0.99616   0.99763   1.00430   1.01980   1.02181
 Alpha virt. eigenvalues --    1.04316   1.07563   1.07782   1.11148   1.12546
 Alpha virt. eigenvalues --    1.13136   1.15132   1.16649   1.17354   1.18644
 Alpha virt. eigenvalues --    1.19677   1.23257   1.26396   1.26956   1.27710
 Alpha virt. eigenvalues --    1.30097   1.31165   1.34160   1.38242   1.38884
 Alpha virt. eigenvalues --    1.39652   1.40034   1.40560   1.41333   1.43799
 Alpha virt. eigenvalues --    1.45581   1.47905   1.48714   1.50233   1.51047
 Alpha virt. eigenvalues --    1.56122   1.66309   1.73062   1.74200   1.75190
 Alpha virt. eigenvalues --    1.75377   1.76948   1.77472   1.78184   1.79594
 Alpha virt. eigenvalues --    1.80852   1.81780   1.82071   1.84900   1.86435
 Alpha virt. eigenvalues --    1.86819   1.89057   1.89671   1.91274   1.92946
 Alpha virt. eigenvalues --    1.94869   1.96206   1.96503   1.96670   1.97499
 Alpha virt. eigenvalues --    1.98954   1.99223   1.99877   2.02446   2.04145
 Alpha virt. eigenvalues --    2.07952   2.08652   2.09932   2.10379   2.12416
 Alpha virt. eigenvalues --    2.16283   2.16524   2.23180   2.24143   2.24231
 Alpha virt. eigenvalues --    2.25669   2.26475   2.29198   2.29837   2.31978
 Alpha virt. eigenvalues --    2.33110   2.33339   2.34701   2.35200   2.36426
 Alpha virt. eigenvalues --    2.38832   2.40883   2.41143   2.42011   2.43970
 Alpha virt. eigenvalues --    2.44318   2.45892   2.46461   2.46902   2.47985
 Alpha virt. eigenvalues --    2.49451   2.49984   2.51211   2.54498   2.54849
 Alpha virt. eigenvalues --    2.56206   2.56549   2.59231   2.59427   2.60152
 Alpha virt. eigenvalues --    2.61799   2.65549   2.66112   2.67595   2.69370
 Alpha virt. eigenvalues --    2.72402   2.73027   2.77747   2.79033   2.79382
 Alpha virt. eigenvalues --    2.81681   2.84607   2.84887   2.87800   2.93838
 Alpha virt. eigenvalues --    2.96606   2.98198   2.98520   3.05179   3.05547
 Alpha virt. eigenvalues --    3.09672   3.11666   3.18916   3.19190   3.24872
 Alpha virt. eigenvalues --    3.24956   3.27855   3.28063   3.30566   3.33700
 Alpha virt. eigenvalues --    3.37654   3.38512   3.48250   3.48335   3.53308
 Alpha virt. eigenvalues --    3.54485   3.82228   3.84120   4.00065   4.03576
 Alpha virt. eigenvalues --    4.03846   4.13030   4.13342   4.15422   4.15640
 Alpha virt. eigenvalues --    4.19362   4.19961   4.36501   4.42684   4.44450
 Alpha virt. eigenvalues --    4.44906   4.55399   4.80410   4.86659
          Condensed to atoms (all electrons):
               1          2          3          4          5          6
     1  O    8.154026   0.541993  -0.101657   0.001721  -0.000068  -0.000021
     2  C    0.541993   4.707488   0.300989  -0.043120   0.005046   0.000368
     3  C   -0.101657   0.300989   5.040845   0.515399  -0.031267  -0.031437
     4  C    0.001721  -0.043120   0.515399   4.912129   0.510556  -0.025341
     5  C   -0.000068   0.005046  -0.031267   0.510556   4.950418   0.533148
     6  C   -0.000021   0.000368  -0.031437  -0.025341   0.533148   4.572734
     7  N   -0.000000   0.000000   0.000402   0.004619  -0.070549   0.305310
     8  C    0.000799   0.005580  -0.033996  -0.042871  -0.047585   0.525012
     9  C    0.004081  -0.028318   0.484277  -0.048347  -0.042959  -0.021331
    10  C   -0.099794   0.299948  -0.102598  -0.005783   0.000239  -0.000007
    11  C    0.002289  -0.042418  -0.005674  -0.003212  -0.000170  -0.000001
    12  C   -0.000094   0.004751   0.000286  -0.000104  -0.000022  -0.000000
    13  C   -0.000002   0.000511  -0.000023  -0.000004  -0.000000  -0.000000
    14  N    0.000000   0.000001  -0.000000   0.000000   0.000000  -0.000000
    15  C    0.000765   0.005360  -0.000105  -0.000015  -0.000000   0.000000
    16  C    0.003238  -0.027785   0.008216   0.000208   0.000014   0.000000
    17  H    0.000032  -0.007888  -0.042335   0.366671  -0.035050   0.003707
    18  H    0.000001  -0.000149   0.003720  -0.032528   0.365121  -0.042945
    19  H    0.000000  -0.000000   0.000001  -0.000194   0.005485  -0.024299
    20  H   -0.000000  -0.000000   0.000006  -0.000093  -0.009003  -0.024012
    21  H    0.000002  -0.000153   0.004024   0.000688   0.005095  -0.043070
    22  H    0.010146  -0.007517  -0.049230   0.005592   0.000480   0.003904
    23  H    0.000047  -0.007763   0.006876   0.003283   0.000123  -0.000018
    24  H    0.000001  -0.000155   0.000007  -0.000006   0.000000   0.000000
    25  H    0.000000  -0.000000  -0.000000   0.000000   0.000000  -0.000000
    26  H    0.000000  -0.000000  -0.000000   0.000000   0.000000  -0.000000
    27  H    0.000002  -0.000146   0.000002  -0.000000   0.000000   0.000000
    28  H    0.011637  -0.007843   0.000674  -0.000028   0.000001   0.000000
               7          8          9         10         11         12
     1  O   -0.000000   0.000799   0.004081  -0.099794   0.002289  -0.000094
     2  C    0.000000   0.005580  -0.028318   0.299948  -0.042418   0.004751
     3  C    0.000402  -0.033996   0.484277  -0.102598  -0.005674   0.000286
     4  C    0.004619  -0.042871  -0.048347  -0.005783  -0.003212  -0.000104
     5  C   -0.070549  -0.047585  -0.042959   0.000239  -0.000170  -0.000022
     6  C    0.305310   0.525012  -0.021331  -0.000007  -0.000001  -0.000000
     7  N    6.816507  -0.070366   0.004447   0.000000   0.000000   0.000000
     8  C   -0.070366   4.967869   0.500935  -0.000103  -0.000025  -0.000000
     9  C    0.004447   0.500935   4.912757   0.007797   0.000279   0.000012
    10  C    0.000000  -0.000103   0.007797   5.043939   0.512894  -0.032560
    11  C    0.000000  -0.000025   0.000279   0.512894   4.918295   0.510009
    12  C    0.000000  -0.000000   0.000012  -0.032560   0.510009   4.952972
    13  C   -0.000000   0.000000   0.000001  -0.029013  -0.025155   0.532281
    14  N    0.000000  -0.000000   0.000000   0.000458   0.004661  -0.070764
    15  C   -0.000000  -0.000000   0.000000  -0.036034  -0.041711  -0.048566
    16  C   -0.000000   0.000000  -0.000249   0.485097  -0.053070  -0.041315
    17  H   -0.000107   0.000485   0.005465   0.006667   0.003527   0.000062
    18  H   -0.007364   0.005155   0.000692   0.000004  -0.000006   0.000000
    19  H    0.343117  -0.009048  -0.000043   0.000000  -0.000000  -0.000000
    20  H    0.343436   0.005368  -0.000168   0.000000  -0.000000  -0.000000
    21  H   -0.007293   0.365870  -0.033158   0.000002  -0.000000   0.000000
    22  H   -0.000105  -0.036042   0.368754   0.000645  -0.000031   0.000001
    23  H   -0.000000  -0.000018  -0.000180  -0.042196   0.366808  -0.034978
    24  H    0.000000  -0.000000  -0.000000   0.003696  -0.032202   0.365579
    25  H    0.000000   0.000000   0.000000   0.000004  -0.000015  -0.008872
    26  H   -0.000000   0.000000  -0.000000   0.000009  -0.000167   0.005425
    27  H   -0.000000   0.000000  -0.000000   0.003825   0.000669   0.005089
    28  H   -0.000000  -0.000000  -0.000016  -0.049094   0.005554   0.000490
              13         14         15         16         17         18
     1  O   -0.000002   0.000000   0.000765   0.003238   0.000032   0.000001
     2  C    0.000511   0.000001   0.005360  -0.027785  -0.007888  -0.000149
     3  C   -0.000023  -0.000000  -0.000105   0.008216  -0.042335   0.003720
     4  C   -0.000004   0.000000  -0.000015   0.000208   0.366671  -0.032528
     5  C   -0.000000   0.000000  -0.000000   0.000014  -0.035050   0.365121
     6  C   -0.000000  -0.000000   0.000000   0.000000   0.003707  -0.042945
     7  N   -0.000000   0.000000  -0.000000  -0.000000  -0.000107  -0.007364
     8  C    0.000000  -0.000000  -0.000000   0.000000   0.000485   0.005155
     9  C    0.000001   0.000000   0.000000  -0.000249   0.005465   0.000692
    10  C   -0.029013   0.000458  -0.036034   0.485097   0.006667   0.000004
    11  C   -0.025155   0.004661  -0.041711  -0.053070   0.003527  -0.000006
    12  C    0.532281  -0.070764  -0.048566  -0.041315   0.000062   0.000000
    13  C    4.570472   0.306724   0.525627  -0.024272   0.000005   0.000000
    14  N    0.306724   6.813748  -0.069928   0.004270   0.000000   0.000000
    15  C    0.525627  -0.069928   4.965648   0.503902  -0.000032  -0.000000
    16  C   -0.024272   0.004270   0.503902   4.915407  -0.000206  -0.000000
    17  H    0.000005   0.000000  -0.000032  -0.000206   0.595697  -0.005647
    18  H    0.000000   0.000000  -0.000000  -0.000000  -0.005647   0.608016
    19  H    0.000000  -0.000000  -0.000000  -0.000000   0.000003  -0.000047
    20  H    0.000000  -0.000000   0.000000  -0.000000  -0.000005   0.004498
    21  H    0.000000   0.000000   0.000000  -0.000000   0.000015  -0.000172
    22  H    0.000000  -0.000000  -0.000000  -0.000018  -0.000148   0.000017
    23  H    0.003665  -0.000107   0.000505   0.005392  -0.000405  -0.000004
    24  H   -0.043121  -0.007240   0.005033   0.000752  -0.000004  -0.000000
    25  H   -0.024148   0.343829   0.005438  -0.000179   0.000000  -0.000000
    26  H   -0.024294   0.343727  -0.008857  -0.000076  -0.000000  -0.000000
    27  H   -0.043268  -0.007236   0.366336  -0.033032  -0.000000  -0.000000
    28  H    0.003865  -0.000106  -0.035959   0.368073  -0.000011  -0.000000
              19         20         21         22         23         24
     1  O    0.000000  -0.000000   0.000002   0.010146   0.000047   0.000001
     2  C   -0.000000  -0.000000  -0.000153  -0.007517  -0.007763  -0.000155
     3  C    0.000001   0.000006   0.004024  -0.049230   0.006876   0.000007
     4  C   -0.000194  -0.000093   0.000688   0.005592   0.003283  -0.000006
     5  C    0.005485  -0.009003   0.005095   0.000480   0.000123   0.000000
     6  C   -0.024299  -0.024012  -0.043070   0.003904  -0.000018   0.000000
     7  N    0.343117   0.343436  -0.007293  -0.000105  -0.000000   0.000000
     8  C   -0.009048   0.005368   0.365870  -0.036042  -0.000018  -0.000000
     9  C   -0.000043  -0.000168  -0.033158   0.368754  -0.000180  -0.000000
    10  C    0.000000   0.000000   0.000002   0.000645  -0.042196   0.003696
    11  C   -0.000000  -0.000000  -0.000000  -0.000031   0.366808  -0.032202
    12  C   -0.000000  -0.000000   0.000000   0.000001  -0.034978   0.365579
    13  C    0.000000   0.000000   0.000000   0.000000   0.003665  -0.043121
    14  N   -0.000000  -0.000000   0.000000  -0.000000  -0.000107  -0.007240
    15  C   -0.000000   0.000000   0.000000  -0.000000   0.000505   0.005033
    16  C   -0.000000  -0.000000  -0.000000  -0.000018   0.005392   0.000752
    17  H    0.000003  -0.000005   0.000015  -0.000148  -0.000405  -0.000004
    18  H   -0.000047   0.004498  -0.000172   0.000017  -0.000004  -0.000000
    19  H    0.425878  -0.027958   0.004577  -0.000005  -0.000000  -0.000000
    20  H   -0.027958   0.425195  -0.000048   0.000003  -0.000000  -0.000000
    21  H    0.004577  -0.000048   0.607253  -0.005739  -0.000000  -0.000000
    22  H   -0.000005   0.000003  -0.005739   0.603537  -0.000015  -0.000000
    23  H   -0.000000  -0.000000  -0.000000  -0.000015   0.594728  -0.005677
    24  H   -0.000000  -0.000000  -0.000000  -0.000000  -0.005677   0.606916
    25  H   -0.000000  -0.000000   0.000000   0.000000  -0.000006   0.004477
    26  H   -0.000000  -0.000000   0.000000  -0.000000   0.000003  -0.000036
    27  H   -0.000000  -0.000000  -0.000000  -0.000000   0.000016  -0.000174
    28  H   -0.000000  -0.000000  -0.000000  -0.000004  -0.000150   0.000017
              25         26         27         28
     1  O    0.000000   0.000000   0.000002   0.011637
     2  C   -0.000000  -0.000000  -0.000146  -0.007843
     3  C   -0.000000  -0.000000   0.000002   0.000674
     4  C    0.000000   0.000000  -0.000000  -0.000028
     5  C    0.000000   0.000000   0.000000   0.000001
     6  C   -0.000000  -0.000000   0.000000   0.000000
     7  N    0.000000  -0.000000  -0.000000  -0.000000
     8  C    0.000000   0.000000   0.000000  -0.000000
     9  C    0.000000  -0.000000  -0.000000  -0.000016
    10  C    0.000004   0.000009   0.003825  -0.049094
    11  C   -0.000015  -0.000167   0.000669   0.005554
    12  C   -0.008872   0.005425   0.005089   0.000490
    13  C   -0.024148  -0.024294  -0.043268   0.003865
    14  N    0.343829   0.343727  -0.007236  -0.000106
    15  C    0.005438  -0.008857   0.366336  -0.035959
    16  C   -0.000179  -0.000076  -0.033032   0.368073
    17  H    0.000000  -0.000000  -0.000000  -0.000011
    18  H   -0.000000  -0.000000  -0.000000  -0.000000
    19  H   -0.000000  -0.000000  -0.000000  -0.000000
    20  H   -0.000000  -0.000000  -0.000000  -0.000000
    21  H    0.000000   0.000000  -0.000000  -0.000000
    22  H    0.000000  -0.000000  -0.000000  -0.000004
    23  H   -0.000006   0.000003   0.000016  -0.000150
    24  H    0.004477  -0.000036  -0.000174   0.000017
    25  H    0.423952  -0.027847  -0.000042   0.000003
    26  H   -0.027847   0.424322   0.004540  -0.000005
    27  H   -0.000042   0.004540   0.606772  -0.005682
    28  H    0.000003  -0.000005  -0.005682   0.602516
 Mulliken charges:
               1
     1  O   -0.529143
     2  C    0.301220
     3  C    0.032600
     4  C   -0.119219
     5  C   -0.139053
     6  C    0.268300
     7  N   -0.662055
     8  C   -0.137021
     9  C   -0.114727
    10  C    0.031958
    11  C   -0.121126
    12  C   -0.139680
    13  C    0.270152
    14  N   -0.662036
    15  C   -0.137409
    16  C   -0.114367
    17  H    0.109501
    18  H    0.101639
    19  H    0.282532
    20  H    0.282781
    21  H    0.102106
    22  H    0.105777
    23  H    0.110070
    24  H    0.102138
    25  H    0.283407
    26  H    0.283255
    27  H    0.102331
    28  H    0.106066
 Sum of Mulliken charges =  -0.00000
 Mulliken charges with hydrogens summed into heavy atoms:
               1
     1  O   -0.529143
     2  C    0.301220
     3  C    0.032600
     4  C   -0.009718
     5  C   -0.037414
     6  C    0.268300
     7  N   -0.096742
     8  C   -0.034914
     9  C   -0.008950
    10  C    0.031958
    11  C   -0.011056
    12  C   -0.037542
    13  C    0.270152
    14  N   -0.095373
    15  C   -0.035077
    16  C   -0.008301
 APT charges:
               1
     1  O    0.096449
     2  C   -0.497916
     3  C   -0.381453
     4  C   -0.580065
     5  C   -0.414766
     6  C    0.246163
     7  N   -1.512670
     8  C   -0.391320
     9  C   -0.575717
    10  C   -0.412894
    11  C   -0.567481
    12  C   -0.429134
    13  C    0.204270
    14  N   -1.319693
    15  C   -0.401896
    16  C   -0.559375
    17  H    0.230937
    18  H    0.529412
    19  H    1.034888
    20  H    0.769387
    21  H    0.778874
    22  H    0.465645
    23  H    0.230803
    24  H    0.534242
    25  H    0.681604
    26  H    0.966687
    27  H    0.795733
    28  H    0.479286
 Sum of APT charges =  -0.00000
 APT charges with hydrogens summed into heavy atoms:
               1
     1  O    0.096449
     2  C   -0.497916
     3  C   -0.381453
     4  C   -0.349128
     5  C    0.114645
     6  C    0.246163
     7  N    0.291605
     8  C    0.387554
     9  C   -0.110072
    10  C   -0.412894
    11  C   -0.336679
    12  C    0.105108
    13  C    0.204270
    14  N    0.328598
    15  C    0.393838
    16  C   -0.080089
 Electronic spatial extent (au):  <R**2>=           4741.1039
 Charge=              0.0000 electrons
 Dipole moment (field-independent basis, Debye):
    X=              0.5002    Y=             -6.0709    Z=             -1.9109  Tot=              6.3842
 Quadrupole moment (field-independent basis, Debye-Ang):
   XX=            -46.1123   YY=            -94.2160   ZZ=            -91.1882
   XY=              5.6782   XZ=              3.7129   YZ=              3.3742
 Traceless Quadrupole moment (field-independent basis, Debye-Ang):
   XX=             31.0599   YY=            -17.0438   ZZ=            -14.0161
   XY=              5.6782   XZ=              3.7129   YZ=              3.3742
 Octapole moment (field-independent basis, Debye-Ang**2):
  XXX=             51.1281  YYY=            -50.7516  ZZZ=             -1.7873  XYY=            -21.0336
  XXY=            -59.7552  XXZ=            -60.3282  XZZ=              4.2206  YZZ=             -0.7422
  YYZ=             -4.6417  XYZ=             27.1070
 Hexadecapole moment (field-independent basis, Debye-Ang**3):
 XXXX=          -3438.6786 YYYY=           -916.2581 ZZZZ=           -268.1794 XXXY=            117.7557
 XXXZ=            151.4037 YYYX=             54.2748 YYYZ=              9.6582 ZZZX=              2.2290
 ZZZY=              4.7576 XXYY=           -822.5653 XXZZ=           -899.4094 YYZZ=           -171.7573
 XXYZ=             92.7747 YYXZ=            -35.2987 ZZXY=             -3.6053
 N-N= 9.760494375797D+02 E-N=-3.550298818810D+03  KE= 6.809178860597D+02
  Exact polarizability:   0.000   0.000   0.000   0.000   0.000   0.000
 Approx polarizability: 359.050  -0.846 269.885  32.320   0.030 139.221
 D2PCM: PCM CHGder 2nd derivatives, FixD1E=F FixD2E=F DoIter=F DoCFld=F I1PDM=0
 Calling FoFJK, ICntrl=    100147 FMM=F ISym2X=0 I1Cent= 0 IOpClX= 0 NMat=1 NMatS=1 NMatT=0.
 ***** Axes restored to original set *****
 -------------------------------------------------------------------
 Center     Atomic                   Forces (Hartrees/Bohr)
 Number     Number              X              Y              Z
 -------------------------------------------------------------------
      1        8          -0.002005582    0.013759973    0.005836838
      2        6          -0.000733387    0.000247830   -0.000779784
      3        6          -0.011721261   -0.002286239    0.002385955
      4        6           0.013233971   -0.007865273   -0.002403781
      5        6          -0.014715970    0.002615722   -0.008974638
      6        6           0.010879836   -0.017581541    0.004632872
      7        7          -0.003157493    0.006878623   -0.002361927
      8        6          -0.008875510    0.014399847    0.010331009
      9        6           0.015357557   -0.002028717   -0.002687444
     10        6           0.012221383    0.003345159   -0.002299401
     11        6          -0.011355492   -0.010533444   -0.003611443
     12        6           0.017411858   -0.002441782    0.000980710
     13        6          -0.014239426   -0.007762308    0.014071254
     14        7           0.004916424    0.002437454   -0.006059491
     15        6           0.006723094    0.018688744   -0.004676611
     16        6          -0.015146045   -0.006343244    0.000115148
     17        1          -0.000227377    0.000071802    0.002591968
     18        1           0.001522786    0.001371964   -0.000533262
     19        1          -0.000557612   -0.002569876   -0.002543687
     20        1           0.001768782    0.000938589    0.002597361
     21        1           0.001139360   -0.000408326   -0.001428141
     22        1          -0.001132541   -0.001805933   -0.001960859
     23        1          -0.000177017    0.002001192   -0.001792891
     24        1          -0.001306330    0.000062456   -0.000937660
     25        1          -0.002398335    0.002217823   -0.000223566
     26        1           0.001150126   -0.003206653    0.001026800
     27        1          -0.000475934   -0.001743767   -0.001474666
     28        1           0.001900133   -0.002460074    0.000179338
 -------------------------------------------------------------------
 Cartesian Forces:  Max     0.018688744 RMS     0.006998213
 FormGI is forming the generalized inverse of G from B-inverse, IUseBI=4.

 GradGradGradGradGradGradGradGradGradGradGradGradGradGradGradGradGradGrad
 Berny optimization.
 Internal  Forces:  Max     0.015067593 RMS     0.003423593
 Search for a local minimum.
 Step number   1 out of a maximum of  148
 All quantities printed in internal units (Hartrees-Bohrs-Radians)
 Mixed Optimization -- RFO/linear search
 Second derivative matrix not updated -- analytic derivatives used.
 ITU=  0
     Eigenvalues ---    0.00353   0.00652   0.00671   0.01036   0.01514
     Eigenvalues ---    0.01539   0.01622   0.01656   0.01745   0.01763
     Eigenvalues ---    0.01791   0.01909   0.02021   0.02048   0.02186
     Eigenvalues ---    0.02214   0.02311   0.02380   0.02748   0.02757
     Eigenvalues ---    0.02863   0.02885   0.02966   0.02971   0.04756
     Eigenvalues ---    0.11105   0.11111   0.11462   0.11475   0.11809
     Eigenvalues ---    0.11820   0.12628   0.12638   0.13443   0.13530
     Eigenvalues ---    0.15323   0.15440   0.17713   0.17855   0.18531
     Eigenvalues ---    0.19139   0.19206   0.19493   0.19520   0.19559
     Eigenvalues ---    0.21661   0.21789   0.22266   0.24866   0.31798
     Eigenvalues ---    0.32040   0.32535   0.34467   0.35592   0.35601
     Eigenvalues ---    0.35783   0.35802   0.35925   0.35942   0.36347
     Eigenvalues ---    0.36428   0.38548   0.38613   0.41227   0.41318
     Eigenvalues ---    0.44301   0.44810   0.45517   0.45614   0.45962
     Eigenvalues ---    0.46066   0.46946   0.47057   0.47758   0.47862
     Eigenvalues ---    0.51551   0.51574   0.81014
 RFO step:  Lambda=-9.67436531D-03 EMin= 3.52750170D-03
 Linear search not attempted -- first point.
 Iteration  1 RMS(Cart)=  0.12236326 RMS(Int)=  0.00462757
 Iteration  2 RMS(Cart)=  0.00732406 RMS(Int)=  0.00041282
 Iteration  3 RMS(Cart)=  0.00003102 RMS(Int)=  0.00041260
 Iteration  4 RMS(Cart)=  0.00000000 RMS(Int)=  0.00041260
 Variable       Old X    -DE/DX   Delta X   Delta X   Delta X     New X
                                 (Linear)    (Quad)   (Total)
    R1        2.32137   0.01507   0.00000   0.01847   0.01847   2.33985
    R2        2.80437   0.00593   0.00000   0.00793   0.00793   2.81230
    R3        2.80683   0.00444   0.00000   0.00412   0.00412   2.81095
    R4        2.64180   0.00606   0.00000   0.01552   0.01549   2.65729
    R5        2.64093   0.00638   0.00000   0.01798   0.01798   2.65892
    R6        2.64335  -0.00601   0.00000  -0.01873  -0.01876   2.62459
    R7        2.05334  -0.00133   0.00000  -0.00294  -0.00294   2.05040
    R8        2.64170   0.00849   0.00000   0.02094   0.02094   2.66263
    R9        2.05436  -0.00023   0.00000  -0.00111  -0.00111   2.05325
   R10        2.64339  -0.00329   0.00000  -0.02824  -0.02824   2.61515
   R11        2.64057   0.01017   0.00000   0.02645   0.02648   2.66705
   R12        1.91925  -0.00276   0.00000  -0.00777  -0.00777   1.91148
   R13        1.91848  -0.00248   0.00000  -0.00705  -0.00705   1.91143
   R14        2.64150  -0.00720   0.00000  -0.02391  -0.02387   2.61763
   R15        2.05404  -0.00007   0.00000  -0.00040  -0.00040   2.05364
   R16        2.05613  -0.00247   0.00000  -0.00536  -0.00536   2.05076
   R17        2.64210   0.00637   0.00000   0.01575   0.01571   2.65781
   R18        2.64129   0.00636   0.00000   0.01831   0.01823   2.65953
   R19        2.64397  -0.00665   0.00000  -0.01959  -0.01956   2.62441
   R20        2.05383  -0.00152   0.00000  -0.00354  -0.00354   2.05029
   R21        2.64125   0.00904   0.00000   0.02142   0.02149   2.66274
   R22        2.05453  -0.00030   0.00000  -0.00127  -0.00127   2.05326
   R23        2.64226  -0.00383   0.00000  -0.02886  -0.02886   2.61340
   R24        2.64023   0.01057   0.00000   0.02727   0.02731   2.66754
   R25        1.91799  -0.00245   0.00000  -0.00682  -0.00682   1.91117
   R26        1.91860  -0.00268   0.00000  -0.00740  -0.00740   1.91119
   R27        2.64218  -0.00794   0.00000  -0.02543  -0.02546   2.61671
   R28        2.05410  -0.00010   0.00000  -0.00055  -0.00055   2.05355
   R29        2.05625  -0.00259   0.00000  -0.00552  -0.00552   2.05074
    A1        2.07778   0.00515   0.00000   0.01401   0.01401   2.09180
    A2        2.08398   0.00409   0.00000   0.01009   0.01009   2.09407
    A3        2.12142  -0.00923   0.00000  -0.02410  -0.02410   2.09732
    A4        2.12584   0.00265   0.00000   0.02589   0.02576   2.15160
    A5        2.06844   0.00237   0.00000   0.00417   0.00407   2.07251
    A6        2.08870  -0.00503   0.00000  -0.03060  -0.03075   2.05795
    A7        2.09142   0.00447   0.00000   0.02343   0.02331   2.11473
    A8        2.11527  -0.00397   0.00000  -0.02405  -0.02404   2.09123
    A9        2.07649  -0.00050   0.00000   0.00055   0.00054   2.07703
   A10        2.10899  -0.00108   0.00000  -0.00327  -0.00333   2.10566
   A11        2.07811   0.00200   0.00000   0.01454   0.01457   2.09267
   A12        2.09605  -0.00092   0.00000  -0.01124  -0.01121   2.08484
   A13        2.09779   0.00110   0.00000   0.01167   0.01032   2.10812
   A14        2.07299  -0.00168   0.00000  -0.00586  -0.00722   2.06577
   A15        2.09835   0.00111   0.00000   0.00929   0.00792   2.10627
   A16        1.98691   0.00245   0.00000   0.03325   0.03222   2.01913
   A17        1.98993   0.00197   0.00000   0.03080   0.02977   2.01970
   A18        1.95726  -0.00273   0.00000  -0.00052  -0.00196   1.95530
   A19        2.10673  -0.00077   0.00000  -0.00375  -0.00368   2.10305
   A20        2.10009  -0.00143   0.00000  -0.01537  -0.01541   2.08468
   A21        2.07634   0.00220   0.00000   0.01914   0.01910   2.09545
   A22        2.09486   0.00422   0.00000   0.02395   0.02397   2.11883
   A23        2.09804  -0.00360   0.00000  -0.02728  -0.02730   2.07074
   A24        2.09019  -0.00062   0.00000   0.00342   0.00340   2.09359
   A25        2.12634   0.00251   0.00000   0.02587   0.02594   2.15228
   A26        2.06987   0.00190   0.00000   0.00221   0.00230   2.07217
   A27        2.08567  -0.00440   0.00000  -0.02817  -0.02833   2.05734
   A28        2.09259   0.00416   0.00000   0.02247   0.02241   2.11500
   A29        2.11528  -0.00383   0.00000  -0.02400  -0.02399   2.09129
   A30        2.07481  -0.00032   0.00000   0.00176   0.00177   2.07658
   A31        2.10956  -0.00133   0.00000  -0.00435  -0.00428   2.10528
   A32        2.07744   0.00216   0.00000   0.01594   0.01589   2.09334
   A33        2.09614  -0.00083   0.00000  -0.01153  -0.01157   2.08456
   A34        2.09796   0.00126   0.00000   0.01215   0.01065   2.10861
   A35        2.07090  -0.00132   0.00000  -0.00378  -0.00519   2.06571
   A36        2.09842   0.00069   0.00000   0.00839   0.00687   2.10529
   A37        1.99412   0.00195   0.00000   0.02967   0.02876   2.02287
   A38        1.99151   0.00215   0.00000   0.03064   0.02972   2.02123
   A39        1.96177  -0.00271   0.00000  -0.00183  -0.00310   1.95867
   A40        2.10728  -0.00095   0.00000  -0.00418  -0.00420   2.10308
   A41        2.09986  -0.00135   0.00000  -0.01613  -0.01612   2.08374
   A42        2.07603   0.00230   0.00000   0.02032   0.02033   2.09636
   A43        2.09603   0.00402   0.00000   0.02331   0.02313   2.11917
   A44        2.09826  -0.00373   0.00000  -0.02900  -0.02897   2.06928
   A45        2.08879  -0.00029   0.00000   0.00592   0.00595   2.09474
    D1       -2.49152  -0.00218   0.00000  -0.10893  -0.10867  -2.60019
    D2        0.62872  -0.00287   0.00000  -0.13886  -0.13913   0.48960
    D3        0.64849  -0.00196   0.00000  -0.10598  -0.10572   0.54277
    D4       -2.51446  -0.00265   0.00000  -0.13591  -0.13618  -2.65064
    D5       -2.53890  -0.00219   0.00000  -0.09948  -0.09943  -2.63833
    D6        0.54762  -0.00197   0.00000  -0.10230  -0.10235   0.44526
    D7        0.60429  -0.00241   0.00000  -0.10244  -0.10239   0.50190
    D8       -2.59238  -0.00220   0.00000  -0.10526  -0.10531  -2.69769
    D9        3.13502  -0.00134   0.00000  -0.03700  -0.03709   3.09793
   D10       -0.00204  -0.00068   0.00000  -0.01973  -0.01982  -0.02186
   D11        0.01503  -0.00073   0.00000  -0.00716  -0.00728   0.00775
   D12       -3.12204  -0.00007   0.00000   0.01011   0.00999  -3.11205
   D13       -3.13733   0.00073   0.00000   0.02263   0.02219  -3.11515
   D14        0.01930   0.00037   0.00000   0.01540   0.01510   0.03439
   D15       -0.01663   0.00015   0.00000  -0.00594  -0.00594  -0.02257
   D16        3.14000  -0.00021   0.00000  -0.01318  -0.01303   3.12697
   D17       -0.04538   0.00172   0.00000   0.04303   0.04315  -0.00223
   D18        3.10553   0.00147   0.00000   0.03900   0.03917  -3.13849
   D19        3.09179   0.00106   0.00000   0.02608   0.02595   3.11774
   D20       -0.04049   0.00081   0.00000   0.02204   0.02197  -0.01852
   D21        3.03861   0.00125   0.00000   0.03063   0.03067   3.06928
   D22        0.07590  -0.00229   0.00000  -0.06554  -0.06526   0.01064
   D23       -0.11239   0.00151   0.00000   0.03485   0.03478  -0.07761
   D24       -3.07510  -0.00202   0.00000  -0.06132  -0.06116  -3.13626
   D25        2.80678  -0.00153   0.00000  -0.02376  -0.02360   2.78318
   D26        0.53100  -0.00181   0.00000  -0.08449  -0.08524   0.44575
   D27       -0.51631   0.00177   0.00000   0.07226   0.07302  -0.44329
   D28       -2.79209   0.00149   0.00000   0.01153   0.01137  -2.78072
   D29       -0.07739   0.00169   0.00000   0.05224   0.05217  -0.02522
   D30        3.07175   0.00179   0.00000   0.05011   0.04994   3.12169
   D31       -3.04004  -0.00184   0.00000  -0.04421  -0.04391  -3.08395
   D32        0.10910  -0.00174   0.00000  -0.04634  -0.04615   0.06296
   D33        0.04853  -0.00057   0.00000  -0.01662  -0.01675   0.03179
   D34       -3.10802  -0.00024   0.00000  -0.00968  -0.00983  -3.11785
   D35       -3.10051  -0.00068   0.00000  -0.01466  -0.01465  -3.11515
   D36        0.02612  -0.00035   0.00000  -0.00773  -0.00773   0.01839
   D37        3.12894  -0.00090   0.00000  -0.02766  -0.02783   3.10111
   D38        0.02199  -0.00108   0.00000  -0.03526  -0.03527  -0.01328
   D39        0.04291  -0.00131   0.00000  -0.02577  -0.02586   0.01706
   D40       -3.06404  -0.00149   0.00000  -0.03337  -0.03329  -3.09733
   D41       -3.13005   0.00030   0.00000   0.01351   0.01345  -3.11660
   D42       -0.00434   0.00082   0.00000   0.03068   0.03044   0.02610
   D43       -0.04222   0.00073   0.00000   0.01247   0.01238  -0.02983
   D44        3.08349   0.00124   0.00000   0.02965   0.02938   3.11287
   D45        0.02373   0.00007   0.00000  -0.00691  -0.00680   0.01693
   D46       -3.10735  -0.00035   0.00000  -0.01315  -0.01310  -3.12045
   D47        3.13148   0.00017   0.00000  -0.00000   0.00006   3.13154
   D48        0.00040  -0.00025   0.00000  -0.00625  -0.00624  -0.00584
   D49       -3.04118  -0.00210   0.00000  -0.04843  -0.04833  -3.08952
   D50       -0.08975   0.00171   0.00000   0.05163   0.05168  -0.03807
   D51        0.08978  -0.00166   0.00000  -0.04195  -0.04190   0.04789
   D52        3.04122   0.00216   0.00000   0.05811   0.05811   3.09933
   D53       -0.52756   0.00193   0.00000   0.08150   0.08222  -0.44534
   D54       -2.81852   0.00187   0.00000   0.02442   0.02435  -2.79417
   D55        2.80720  -0.00173   0.00000  -0.01883  -0.01876   2.78845
   D56        0.51624  -0.00179   0.00000  -0.07591  -0.07663   0.43961
   D57        0.09042  -0.00229   0.00000  -0.06506  -0.06494   0.02547
   D58       -3.04558  -0.00235   0.00000  -0.06656  -0.06654  -3.11212
   D59        3.04180   0.00159   0.00000   0.03545   0.03530   3.07710
   D60       -0.09420   0.00153   0.00000   0.03395   0.03370  -0.06050
   D61       -0.02522   0.00114   0.00000   0.03394   0.03379   0.00858
   D62        3.13218   0.00066   0.00000   0.01718   0.01687  -3.13414
   D63        3.11086   0.00119   0.00000   0.03531   0.03528  -3.13704
   D64       -0.01493   0.00071   0.00000   0.01855   0.01836   0.00343
         Item               Value     Threshold  Converged?
 Maximum Force            0.015068     0.000450     NO 
 RMS     Force            0.003424     0.000300     NO 
 Maximum Displacement     0.475188     0.001800     NO 
 RMS     Displacement     0.121996     0.001200     NO 
 Predicted change in Energy=-5.854536D-03
 GradGradGradGradGradGradGradGradGradGradGradGradGradGradGradGradGradGrad

                          Input orientation:                          
 ---------------------------------------------------------------------
 Center     Atomic      Atomic             Coordinates (Angstroms)
 Number     Number       Type             X           Y           Z
 ---------------------------------------------------------------------
      1          8           0       -0.306809    2.562843    1.002569
      2          6           0       -0.172709    1.416526    0.554131
      3          6           0        1.180721    0.918374    0.186956
      4          6           0        1.407535   -0.010347   -0.844243
      5          6           0        2.694463   -0.406858   -1.184182
      6          6           0        3.810914    0.116468   -0.502298
      7          7           0        5.087872   -0.338985   -0.779888
      8          6           0        3.586869    1.040979    0.540283
      9          6           0        2.300096    1.442393    0.859387
     10          6           0       -1.362922    0.540449    0.385265
     11          6           0       -1.306233   -0.862816    0.461010
     12          6           0       -2.453790   -1.636162    0.343732
     13          6           0       -3.707506   -1.031518    0.124528
     14          7           0       -4.860884   -1.792508    0.068219
     15          6           0       -3.772640    0.377691    0.074433
     16          6           0       -2.623979    1.139449    0.207513
     17          1           0        0.568362   -0.413259   -1.401674
     18          1           0        2.846233   -1.123678   -1.986481
     19          1           0        5.842046    0.278518   -0.509581
     20          1           0        5.225347   -0.723250   -1.705386
     21          1           0        4.434222    1.441530    1.090335
     22          1           0        2.139476    2.170419    1.647979
     23          1           0       -0.356161   -1.355618    0.638955
     24          1           0       -2.389473   -2.717744    0.425000
     25          1           0       -4.740138   -2.757969   -0.207698
     26          1           0       -5.651942   -1.359825   -0.389885
     27          1           0       -4.735031    0.862402   -0.066141
     28          1           0       -2.683938    2.222498    0.174744
 ---------------------------------------------------------------------
                    Distance matrix (angstroms):
                    1          2          3          4          5
     1  O    0.000000
     2  C    1.238193   0.000000
     3  C    2.362679   1.488203   0.000000
     4  C    3.601527   2.547271   1.406178   0.000000
     5  C    4.754855   3.816693   2.434682   1.388872   0.000000
     6  C    5.020460   4.321510   2.834791   2.430893   1.409006
     7  N    6.379682   5.703959   4.216820   3.695542   2.428264
     8  C    4.206008   3.778314   2.435040   2.787776   2.422065
     9  C    2.841102   2.491709   1.407039   2.410285   2.784139
    10  C    2.363582   1.487492   2.579200   3.080664   4.452294
    11  C    3.609332   2.547342   3.071268   3.129684   4.349727
    12  C    4.761852   3.816608   4.445211   4.354812   5.509103
    13  C    5.025448   4.321142   5.263149   5.305181   6.564155
    14  N    6.370376   5.702016   6.622988   6.580407   7.782789
    15  C    4.200990   3.777405   4.984053   5.275296   6.634988
    16  C    2.833275   2.491112   3.811173   4.322190   5.710841
    17  H    3.924729   2.778934   2.161475   1.085025   2.137206
    18  H    5.697941   4.692692   3.415806   2.148038   1.086530
    19  H    6.731505   6.213198   4.756315   4.456493   3.291216
    20  H    6.981131   6.230817   4.757614   3.978127   2.603292
    21  H    4.872619   4.638098   3.416878   3.874451   3.408332
    22  H    2.560246   2.666656   2.149747   3.391555   3.869302
    23  H    3.935605   2.779502   2.781609   2.668380   3.678353
    24  H    5.705759   4.692857   5.101402   4.833037   5.811718
    25  H    7.030661   6.234436   6.980531   6.763763   7.858405
    26  H    6.774711   6.214603   7.225526   7.201649   8.438101
    27  H    4.862385   4.637517   5.921428   6.252859   7.619608
    28  H    2.540054   2.664544   4.078784   4.771172   6.139006
                    6          7          8          9         10
     6  C    0.000000
     7  N    1.383877   0.000000
     8  C    1.411344   2.429025   0.000000
     9  C    2.427928   3.692185   1.385188   0.000000
    10  C    5.266508   6.613904   4.977448   3.802103   0.000000
    11  C    5.298316   6.534433   5.251016   4.298639   1.406450
    12  C    6.560030   7.734459   6.610240   5.687075   2.435026
    13  C    7.631344   8.868836   7.594471   6.538465   2.834808
    14  N    8.897738  10.090082   8.922780   7.897477   4.216508
    15  C    7.609938   8.930407   7.404008   6.215132   2.435128
    16  C    6.554248   7.914125   6.220536   4.976266   1.407360
    17  H    3.406410   4.562686   3.872646   3.399227   2.798672
    18  H    2.161335   2.663937   3.408638   3.870652   5.109939
    19  H    2.037600   1.011511   2.601804   3.971661   7.265048
    20  H    2.037933   1.011487   3.292438   4.452546   7.026595
    21  H    2.163512   2.663687   1.086741   2.146586   5.908971
    22  H    3.411174   4.569977   2.144195   1.085218   4.064239
    23  H    4.564429   5.717006   4.615289   3.864344   2.161711
    24  H    6.880221   7.938573   7.061016   6.283907   3.416315
    25  H    9.026054  10.137488   9.183165   8.267200   4.757810
    26  H    9.577981  10.795269   9.590866   8.523380   4.754745
    27  H    8.589518   9.921804   8.345876   7.119409   3.417388
    28  H    6.861257   8.238541   6.391606   5.090962   2.149115
                   11         12         13         14         15
    11  C    0.000000
    12  C    1.388778   0.000000
    13  C    2.430595   1.409060   0.000000
    14  N    3.695152   2.427849   1.382952   0.000000
    15  C    2.787734   2.422291   1.411603   2.427772   0.000000
    16  C    2.410348   2.784158   2.427759   3.690462   1.384705
    17  H    2.680634   3.698018   4.581985   5.791340   4.652827
    18  H    4.827135   5.812295   6.885952   8.004297   7.093022
    19  H    7.303601   8.556579   9.659826  10.916763   9.632918
    20  H    6.882899   8.000090   9.123567  10.296652   9.238160
    21  H    6.217627   7.581181   8.563672   9.894579   8.337649
    22  H    4.741552   6.106488   6.838165   8.197893   6.375189
    23  H    1.084968   2.136798   3.406052   4.561703   3.872386
    24  H    2.148363   1.086537   2.161216   2.662936   3.408485
    25  H    3.978753   2.605746   2.038955   1.011349   3.293633
    26  H    4.456033   3.292831   2.037950   1.011359   2.601217
    27  H    3.874392   3.408061   2.163122   2.661285   1.086693
    28  H    3.391044   3.869209   3.411573   4.568447   2.144446
                   16         17         18         19         20
    16  C    0.000000
    17  H    3.897618   0.000000
    18  H    6.313364   2.456703   0.000000
    19  H    8.539848   5.393156   3.622470   0.000000
    20  H    8.291004   4.677162   2.428897   1.677441   0.000000
    21  H    7.119609   4.959357   4.309153   2.427817   3.623287
    22  H    5.082159   4.294668   4.955792   4.684376   5.398239
    23  H    3.399191   2.430422   4.147534   6.512090   6.086794
    24  H    3.870431   4.170872   5.980711   8.809593   8.154878
    25  H    4.454256   5.924813   7.961658  11.013356  10.280761
    26  H    3.971375   6.372746   8.650079  11.610782  10.975026
    27  H    2.146667   5.615775   8.068939  10.602458  10.218148
    28  H    1.085203   4.473228   6.815466   8.771532   8.646914
                   21         22         23         24         25
    21  H    0.000000
    22  H    2.471458   0.000000
    23  H    5.565568   4.436132   0.000000
    24  H    8.019042   6.775042   2.456730   0.000000
    25  H   10.172981   8.663811   4.680028   2.434656   0.000000
    26  H   10.572102   8.793276   5.394796   3.626526   1.679103
    27  H    9.260023   7.204717   4.958958   4.308168   3.623142
    28  H    7.219171   5.043655   4.293827   4.955334   5.401784
                   26         27         28
    26  H    0.000000
    27  H    2.425661   0.000000
    28  H    4.686245   2.472825   0.000000
 Stoichiometry    C13H12N2O
 Framework group  C1[X(C13H12N2O)]
 Deg. of freedom    78
 Full point group                 C1      NOp   1
 Largest Abelian subgroup         C1      NOp   1
 Largest concise Abelian subgroup C1      NOp   1
                         Standard orientation:                         
[...]
    13    O    1  dyz    Ryd( 3d)     0.00334
    14    O    1  dx2y2  Ryd( 3d)     0.00348
    15    O    1  dz2    Ryd( 3d)     0.00106

    16    C    2  S      Cor( 1S)     1.99921
    17    C    2  S      Val( 2S)     0.80091
    18    C    2  S      Ryd( 3S)     0.00393
    19    C    2  S      Ryd( 4S)     0.00017
    20    C    2  px     Val( 2p)     0.99525
    21    C    2  px     Ryd( 3p)     0.00468
    22    C    2  py     Val( 2p)     0.80881
    23    C    2  py     Ryd( 3p)     0.01900
    24    C    2  pz     Val( 2p)     1.02150
    25    C    2  pz     Ryd( 3p)     0.00363
    26    C    2  dxy    Ryd( 3d)     0.00251
    27    C    2  dxz    Ryd( 3d)     0.00025
    28    C    2  dyz    Ryd( 3d)     0.00169
    29    C    2  dx2y2  Ryd( 3d)     0.00101
    30    C    2  dz2    Ryd( 3d)     0.00027

    31    C    3  S      Cor( 1S)     1.99899
    32    C    3  S      Val( 2S)     0.91001
    33    C    3  S      Ryd( 3S)     0.00123
    34    C    3  S      Ryd( 4S)     0.00006
    35    C    3  px     Val( 2p)     1.10405
    36    C    3  px     Ryd( 3p)     0.00535
    37    C    3  py     Val( 2p)     1.05901
    38    C    3  py     Ryd( 3p)     0.00504
    39    C    3  pz     Val( 2p)     0.98476
    40    C    3  pz     Ryd( 3p)     0.00169
    41    C    3  dxy    Ryd( 3d)     0.00067
    42    C    3  dxz    Ryd( 3d)     0.00083
    43    C    3  dyz    Ryd( 3d)     0.00050
    44    C    3  dx2y2  Ryd( 3d)     0.00075
    45    C    3  dz2    Ryd( 3d)     0.00040

    46    C    4  S      Cor( 1S)     1.99908
    47    C    4  S      Val( 2S)     0.95436
    48    C    4  S      Ryd( 3S)     0.00074
    49    C    4  S      Ryd( 4S)     0.00005
    50    C    4  px     Val( 2p)     1.15092
    51    C    4  px     Ryd( 3p)     0.00408
    52    C    4  py     Val( 2p)     1.08718
    53    C    4  py     Ryd( 3p)     0.00397
    54    C    4  pz     Val( 2p)     1.03688
    55    C    4  pz     Ryd( 3p)     0.00189
    56    C    4  dxy    Ryd( 3d)     0.00063
    57    C    4  dxz    Ryd( 3d)     0.00056
    58    C    4  dyz    Ryd( 3d)     0.00050
    59    C    4  dx2y2  Ryd( 3d)     0.00061
    60    C    4  dz2    Ryd( 3d)     0.00034

    61    C    5  S      Cor( 1S)     1.99905
    62    C    5  S      Val( 2S)     0.96031
    63    C    5  S      Ryd( 3S)     0.00070
    64    C    5  S      Ryd( 4S)     0.00004
    65    C    5  px     Val( 2p)     1.06059
    66    C    5  px     Ryd( 3p)     0.00414
    67    C    5  py     Val( 2p)     1.16946
    68    C    5  py     Ryd( 3p)     0.00401
    69    C    5  pz     Val( 2p)     1.05108
    70    C    5  pz     Ryd( 3p)     0.00169
    71    C    5  dxy    Ryd( 3d)     0.00062
    72    C    5  dxz    Ryd( 3d)     0.00058
    73    C    5  dyz    Ryd( 3d)     0.00044
    74    C    5  dx2y2  Ryd( 3d)     0.00061
    75    C    5  dz2    Ryd( 3d)     0.00035

    76    C    6  S      Cor( 1S)     1.99901
    77    C    6  S      Val( 2S)     0.84855
    78    C    6  S      Ryd( 3S)     0.00128
    79    C    6  S      Ryd( 4S)     0.00009
    80    C    6  px     Val( 2p)     0.93912
    81    C    6  px     Ryd( 3p)     0.00543
    82    C    6  py     Val( 2p)     1.03338
    83    C    6  py     Ryd( 3p)     0.00442
    84    C    6  pz     Val( 2p)     0.99771
    85    C    6  pz     Ryd( 3p)     0.00214
    86    C    6  dxy    Ryd( 3d)     0.00114
    87    C    6  dxz    Ryd( 3d)     0.00124
    88    C    6  dyz    Ryd( 3d)     0.00070
    89    C    6  dx2y2  Ryd( 3d)     0.00100
    90    C    6  dz2    Ryd( 3d)     0.00057

    91    N    7  S      Cor( 1S)     1.99948
    92    N    7  S      Val( 2S)     1.34862
    93    N    7  S      Ryd( 3S)     0.00012
    94    N    7  S      Ryd( 4S)     0.00001
    95    N    7  px     Val( 2p)     1.33318
    96    N    7  px     Ryd( 3p)     0.00218
    97    N    7  py     Val( 2p)     1.46361
    98    N    7  py     Ryd( 3p)     0.00253
    99    N    7  pz     Val( 2p)     1.61101
   100    N    7  pz     Ryd( 3p)     0.00364
   101    N    7  dxy    Ryd( 3d)     0.00071
   102    N    7  dxz    Ryd( 3d)     0.00038
   103    N    7  dyz    Ryd( 3d)     0.00088
   104    N    7  dx2y2  Ryd( 3d)     0.00029
   105    N    7  dz2    Ryd( 3d)     0.00064

   106    C    8  S      Cor( 1S)     1.99905
   107    C    8  S      Val( 2S)     0.96110
   108    C    8  S      Ryd( 3S)     0.00065
   109    C    8  S      Ryd( 4S)     0.00004
   110    C    8  px     Val( 2p)     1.16449
   111    C    8  px     Ryd( 3p)     0.00447
   112    C    8  py     Val( 2p)     1.07162
   113    C    8  py     Ryd( 3p)     0.00357
   114    C    8  pz     Val( 2p)     1.04557
   115    C    8  pz     Ryd( 3p)     0.00140
   116    C    8  dxy    Ryd( 3d)     0.00054
   117    C    8  dxz    Ryd( 3d)     0.00053
   118    C    8  dyz    Ryd( 3d)     0.00048
   119    C    8  dx2y2  Ryd( 3d)     0.00069
   120    C    8  dz2    Ryd( 3d)     0.00036

   121    C    9  S      Cor( 1S)     1.99908
   122    C    9  S      Val( 2S)     0.95493
   123    C    9  S      Ryd( 3S)     0.00073
   124    C    9  S      Ryd( 4S)     0.00005
   125    C    9  px     Val( 2p)     1.05343
   126    C    9  px     Ryd( 3p)     0.00492
   127    C    9  py     Val( 2p)     1.18115
   128    C    9  py     Ryd( 3p)     0.00518
   129    C    9  pz     Val( 2p)     1.02777
   130    C    9  pz     Ryd( 3p)     0.00240
   131    C    9  dxy    Ryd( 3d)     0.00060
   132    C    9  dxz    Ryd( 3d)     0.00057
   133    C    9  dyz    Ryd( 3d)     0.00044
   134    C    9  dx2y2  Ryd( 3d)     0.00065
   135    C    9  dz2    Ryd( 3d)     0.00033

   136    C   10  S      Cor( 1S)     1.99899
   137    C   10  S      Val( 2S)     0.90947
   138    C   10  S      Ryd( 3S)     0.00123
   139    C   10  S      Ryd( 4S)     0.00006
   140    C   10  px     Val( 2p)     1.10273
   141    C   10  px     Ryd( 3p)     0.00536
   142    C   10  py     Val( 2p)     1.06050
   143    C   10  py     Ryd( 3p)     0.00501
   144    C   10  pz     Val( 2p)     0.98832
   145    C   10  pz     Ryd( 3p)     0.00172
   146    C   10  dxy    Ryd( 3d)     0.00066
   147    C   10  dxz    Ryd( 3d)     0.00082
   148    C   10  dyz    Ryd( 3d)     0.00050
   149    C   10  dx2y2  Ryd( 3d)     0.00074
   150    C   10  dz2    Ryd( 3d)     0.00040

   151    C   11  S      Cor( 1S)     1.99908
   152    C   11  S      Val( 2S)     0.95402
   153    C   11  S      Ryd( 3S)     0.00074
   154    C   11  S      Ryd( 4S)     0.00005
   155    C   11  px     Val( 2p)     1.15110
   156    C   11  px     Ryd( 3p)     0.00408
   157    C   11  py     Val( 2p)     1.08688
   158    C   11  py     Ryd( 3p)     0.00397
   159    C   11  pz     Val( 2p)     1.03783
   160    C   11  pz     Ryd( 3p)     0.00187
   161    C   11  dxy    Ryd( 3d)     0.00063
   162    C   11  dxz    Ryd( 3d)     0.00056
   163    C   11  dyz    Ryd( 3d)     0.00050
   164    C   11  dx2y2  Ryd( 3d)     0.00061
   165    C   11  dz2    Ryd( 3d)     0.00034

   166    C   12  S      Cor( 1S)     1.99905
   167    C   12  S      Val( 2S)     0.96002
   168    C   12  S      Ryd( 3S)     0.00070
   169    C   12  S      Ryd( 4S)     0.00004
   170    C   12  px     Val( 2p)     1.06117
   171    C   12  px     Ryd( 3p)     0.00411
   172    C   12  py     Val( 2p)     1.16857
   173    C   12  py     Ryd( 3p)     0.00406
   174    C   12  pz     Val( 2p)     1.05272
   175    C   12  pz     Ryd( 3p)     0.00167
   176    C   12  dxy    Ryd( 3d)     0.00061
   177    C   12  dxz    Ryd( 3d)     0.00059
   178    C   12  dyz    Ryd( 3d)     0.00044
   179    C   12  dx2y2  Ryd( 3d)     0.00060
   180    C   12  dz2    Ryd( 3d)     0.00035

   181    C   13  S      Cor( 1S)     1.99901
   182    C   13  S      Val( 2S)     0.84832
   183    C   13  S      Ryd( 3S)     0.00126
   184    C   13  S      Ryd( 4S)     0.00009
   185    C   13  px     Val( 2p)     0.93311
   186    C   13  px     Ryd( 3p)     0.00570
   187    C   13  py     Val( 2p)     1.03930
   188    C   13  py     Ryd( 3p)     0.00410
   189    C   13  pz     Val( 2p)     0.99944
   190    C   13  pz     Ryd( 3p)     0.00218
   191    C   13  dxy    Ryd( 3d)     0.00104
   192    C   13  dxz    Ryd( 3d)     0.00130
   193    C   13  dyz    Ryd( 3d)     0.00063
   194    C   13  dx2y2  Ryd( 3d)     0.00109
   195    C   13  dz2    Ryd( 3d)     0.00057

   196    N   14  S      Cor( 1S)     1.99948
   197    N   14  S      Val( 2S)     1.34864
   198    N   14  S      Ryd( 3S)     0.00013
   199    N   14  S      Ryd( 4S)     0.00001
   200    N   14  px     Val( 2p)     1.36635
   201    N   14  px     Ryd( 3p)     0.00252
   202    N   14  py     Val( 2p)     1.42882
   203    N   14  py     Ryd( 3p)     0.00217
   204    N   14  pz     Val( 2p)     1.61448
   205    N   14  pz     Ryd( 3p)     0.00369
   206    N   14  dxy    Ryd( 3d)     0.00029
   207    N   14  dxz    Ryd( 3d)     0.00098
   208    N   14  dyz    Ryd( 3d)     0.00028
   209    N   14  dx2y2  Ryd( 3d)     0.00070
   210    N   14  dz2    Ryd( 3d)     0.00065

   211    C   15  S      Cor( 1S)     1.99905
   212    C   15  S      Val( 2S)     0.96084
   213    C   15  S      Ryd( 3S)     0.00064
   214    C   15  S      Ryd( 4S)     0.00004
   215    C   15  px     Val( 2p)     1.16424
   216    C   15  px     Ryd( 3p)     0.00441
   217    C   15  py     Val( 2p)     1.07119
   218    C   15  py     Ryd( 3p)     0.00358
   219    C   15  pz     Val( 2p)     1.04750
   220    C   15  pz     Ryd( 3p)     0.00145
   221    C   15  dxy    Ryd( 3d)     0.00055
   222    C   15  dxz    Ryd( 3d)     0.00053
   223    C   15  dyz    Ryd( 3d)     0.00047
   224    C   15  dx2y2  Ryd( 3d)     0.00069
   225    C   15  dz2    Ryd( 3d)     0.00036

   226    C   16  S      Cor( 1S)     1.99908
   227    C   16  S      Val( 2S)     0.95466
   228    C   16  S      Ryd( 3S)     0.00072
   229    C   16  S      Ryd( 4S)     0.00005
   230    C   16  px     Val( 2p)     1.05415
   231    C   16  px     Ryd( 3p)     0.00490
   232    C   16  py     Val( 2p)     1.17876
   233    C   16  py     Ryd( 3p)     0.00513
   234    C   16  pz     Val( 2p)     1.02991
   235    C   16  pz     Ryd( 3p)     0.00244
   236    C   16  dxy    Ryd( 3d)     0.00060
   237    C   16  dxz    Ryd( 3d)     0.00057
   238    C   16  dyz    Ryd( 3d)     0.00045
   239    C   16  dx2y2  Ryd( 3d)     0.00064
   240    C   16  dz2    Ryd( 3d)     0.00033

   241    H   17  S      Val( 1S)     0.74826
   242    H   17  S      Ryd( 2S)     0.00109
   243    H   17  px     Ryd( 2p)     0.00028
   244    H   17  py     Ryd( 2p)     0.00015
   245    H   17  pz     Ryd( 2p)     0.00016

   246    H   18  S      Val( 1S)     0.74903
   247    H   18  S      Ryd( 2S)     0.00094
   248    H   18  px     Ryd( 2p)     0.00006
   249    H   18  py     Ryd( 2p)     0.00036
   250    H   18  pz     Ryd( 2p)     0.00017

   251    H   19  S      Val( 1S)     0.56778
   252    H   19  S      Ryd( 2S)     0.00123
   253    H   19  px     Ryd( 2p)     0.00046
   254    H   19  py     Ryd( 2p)     0.00036
   255    H   19  pz     Ryd( 2p)     0.00038

   256    H   20  S      Val( 1S)     0.56840
   257    H   20  S      Ryd( 2S)     0.00131
   258    H   20  px     Ryd( 2p)     0.00018
   259    H   20  py     Ryd( 2p)     0.00048
   260    H   20  pz     Ryd( 2p)     0.00055

   261    H   21  S      Val( 1S)     0.74979
   262    H   21  S      Ryd( 2S)     0.00096
   263    H   21  px     Ryd( 2p)     0.00027
   264    H   21  py     Ryd( 2p)     0.00015
   265    H   21  pz     Ryd( 2p)     0.00016

   266    H   22  S      Val( 1S)     0.74501
   267    H   22  S      Ryd( 2S)     0.00242
   268    H   22  px     Ryd( 2p)     0.00008
   269    H   22  py     Ryd( 2p)     0.00037
   270    H   22  pz     Ryd( 2p)     0.00015

   271    H   23  S      Val( 1S)     0.74874
   272    H   23  S      Ryd( 2S)     0.00111
   273    H   23  px     Ryd( 2p)     0.00028
   274    H   23  py     Ryd( 2p)     0.00015
   275    H   23  pz     Ryd( 2p)     0.00017

   276    H   24  S      Val( 1S)     0.74936
   277    H   24  S      Ryd( 2S)     0.00096
   278    H   24  px     Ryd( 2p)     0.00006
   279    H   24  py     Ryd( 2p)     0.00036
   280    H   24  pz     Ryd( 2p)     0.00017

   281    H   25  S      Val( 1S)     0.56836
   282    H   25  S      Ryd( 2S)     0.00125
   283    H   25  px     Ryd( 2p)     0.00020
   284    H   25  py     Ryd( 2p)     0.00062
   285    H   25  pz     Ryd( 2p)     0.00039

   286    H   26  S      Val( 1S)     0.56859
   287    H   26  S      Ryd( 2S)     0.00128
   288    H   26  px     Ryd( 2p)     0.00042
   289    H   26  py     Ryd( 2p)     0.00024
   290    H   26  pz     Ryd( 2p)     0.00054

   291    H   27  S      Val( 1S)     0.75032
   292    H   27  S      Ryd( 2S)     0.00096
   293    H   27  px     Ryd( 2p)     0.00028
   294    H   27  py     Ryd( 2p)     0.00016
   295    H   27  pz     Ryd( 2p)     0.00016

   296    H   28  S      Val( 1S)     0.74558
   297    H   28  S      Ryd( 2S)     0.00241
   298    H   28  px     Ryd( 2p)     0.00008
   299    H   28  py     Ryd( 2p)     0.00037
   300    H   28  pz     Ryd( 2p)     0.00015

 WARNING:  1 low occupancy (<1.9990e) core orbital  found on  C    3
           1 low occupancy (<1.9990e) core orbital  found on  C   10


 Summary of Natural Population Analysis:                  
                                                          
                                       Natural Population 
                Natural  -----------------------------------------------
    Atom  No    Charge         Core      Valence    Rydberg      Total
 -----------------------------------------------------------------------
      O    1   -0.72606      1.99982     6.71032    0.01593     8.72606
      C    2    0.33719      1.99921     3.62647    0.03714     5.66281
      C    3   -0.07333      1.99899     4.05783    0.01651     6.07333
      C    4   -0.24181      1.99908     4.22935    0.01337     6.24181
      C    5   -0.25366      1.99905     4.24144    0.01317     6.25366
      C    6    0.16423      1.99901     3.81876    0.01800     5.83577
      N    7   -0.76728      1.99948     5.75643    0.01137     7.76728
      C    8   -0.25457      1.99905     4.24278    0.01274     6.25457
      C    9   -0.23223      1.99908     4.21729    0.01586     6.23223
      C   10   -0.07651      1.99899     4.06101    0.01651     6.07651
      C   11   -0.24227      1.99908     4.22983    0.01336     6.24227
      C   12   -0.25470      1.99905     4.24248    0.01317     6.25470
      C   13    0.16284      1.99901     3.82016    0.01798     5.83716
      N   14   -0.76919      1.99948     5.75830    0.01141     7.76919
      C   15   -0.25554      1.99905     4.24377    0.01273     6.25554
      C   16   -0.23239      1.99908     4.21748    0.01583     6.23239
      H   17    0.25006      0.00000     0.74826    0.00169     0.74994
      H   18    0.24944      0.00000     0.74903    0.00154     0.75056
      H   19    0.42978      0.00000     0.56778    0.00244     0.57022
      H   20    0.42909      0.00000     0.56840    0.00251     0.57091
      H   21    0.24865      0.00000     0.74979    0.00155     0.75135
      H   22    0.25196      0.00000     0.74501    0.00302     0.74804
      H   23    0.24956      0.00000     0.74874    0.00170     0.75044
      H   24    0.24909      0.00000     0.74936    0.00155     0.75091
      H   25    0.42919      0.00000     0.56836    0.00245     0.57081
      H   26    0.42893      0.00000     0.56859    0.00248     0.57107
      H   27    0.24813      0.00000     0.75032    0.00155     0.75187
      H   28    0.25142      0.00000     0.74558    0.00301     0.74858
 =======================================================================
   * Total *    0.00000     31.98651    79.73290    0.28059   112.00000

                                 Natural Population      
 --------------------------------------------------------
   Core                      31.98651 ( 99.9578% of  32)
   Valence                   79.73290 ( 99.6661% of  80)
   Natural Minimal Basis    111.71941 ( 99.7495% of 112)
   Natural Rydberg Basis      0.28059 (  0.2505% of 112)
 --------------------------------------------------------

    Atom  No          Natural Electron Configuration
 ----------------------------------------------------------------------------
      O    1      [core]2S( 1.69)2p( 5.02)3d( 0.01)
      C    2      [core]2S( 0.80)2p( 2.83)3p( 0.03)3d( 0.01)
      C    3      [core]2S( 0.91)2p( 3.15)3p( 0.01)
      C    4      [core]2S( 0.95)2p( 3.27)3p( 0.01)
      C    5      [core]2S( 0.96)2p( 3.28)3p( 0.01)
      C    6      [core]2S( 0.85)2p( 2.97)3p( 0.01)
      N    7      [core]2S( 1.35)2p( 4.41)3p( 0.01)
      C    8      [core]2S( 0.96)2p( 3.28)3p( 0.01)
      C    9      [core]2S( 0.95)2p( 3.26)3p( 0.01)
      C   10      [core]2S( 0.91)2p( 3.15)3p( 0.01)
      C   11      [core]2S( 0.95)2p( 3.28)3p( 0.01)
      C   12      [core]2S( 0.96)2p( 3.28)3p( 0.01)
      C   13      [core]2S( 0.85)2p( 2.97)3p( 0.01)
      N   14      [core]2S( 1.35)2p( 4.41)3p( 0.01)
      C   15      [core]2S( 0.96)2p( 3.28)3p( 0.01)
      C   16      [core]2S( 0.95)2p( 3.26)3p( 0.01)
      H   17            1S( 0.75)
      H   18            1S( 0.75)
      H   19            1S( 0.57)
      H   20            1S( 0.57)
      H   21            1S( 0.75)
      H   22            1S( 0.75)
      H   23            1S( 0.75)
      H   24            1S( 0.75)
      H   25            1S( 0.57)
      H   26            1S( 0.57)
      H   27            1S( 0.75)
      H   28            1S( 0.75)


 NBO analysis skipped by request.
 1\1\GINC-DRG2-W012\SP\RB3LYP TD-FC\6-31G(d,p)\C13H12N2O1\QDUEZ\21-Jul-
 2024\0\\# TD(NStates=10, Root=1) B3LYP/6-31G** SCRF=(Solvent=water) vo
 lume pop=NPA density=current Geom=AllCheck Guess=Read\\ZLSMCQSGRWNEGX-
 UHFFFAOYSA-N_conf_4\\0,1\O,0,-0.3005704745,2.5125194099,1.0324270046\C
 ,0,-0.165866475,1.3720604235,0.5663319253\C,0,1.1913919823,0.882468854
 8,0.2012883758\C,0,1.4370954728,-0.0659764507,-0.8092202449\C,0,2.7305
 593861,-0.4320331353,-1.1568724268\C,0,3.8402735237,0.1301309034,-0.49
 24996614\N,0,5.1245704469,-0.2818828761,-0.7834990497\C,0,3.6004457831
 ,1.0909050406,0.5155124991\C,0,2.3061365757,1.4620001825,0.8379216398\
 C,0,-1.3634720395,0.5086756971,0.3785083457\C,0,-1.331373883,-0.897719
 1967,0.4247553221\C,0,-2.492511525,-1.6504790851,0.3107688429\C,0,-3.7
 422943398,-1.022119213,0.1319702262\N,0,-4.9042357892,-1.7628822478,0.
 0591804763\C,0,-3.7821199863,0.3897379644,0.0931461539\C,0,-2.61917863
 51,1.1287816026,0.2284452339\H,0,0.6076588107,-0.4997345057,-1.3571318
 617\H,0,2.8943274187,-1.1539539579,-1.9521885635\H,0,5.8736101453,0.34
 5273079,-0.5249304547\H,0,5.2688308606,-0.7241140906,-1.6806192681\H,0
 ,4.4428783415,1.5395580799,1.0350855347\H,0,2.1314882008,2.2132664087,
 1.6011934281\H,0,-0.3896690334,-1.4125464367,0.5810210541\H,0,-2.44409
 01369,-2.7344631524,0.3660426228\H,0,-4.810501395,-2.7318878139,-0.211
 8883823\H,0,-5.7064953512,-1.3102409586,-0.3563554181\H,0,-4.736608202
 4,0.8916884748,-0.0405722774\H,0,-2.6602796818,2.2129669994,0.20976193
 28\\Version=ES64L-G16RevA.03\State=1-A\HF=-687.3880674\RMSD=2.815e-09\
 Dipole=0.5437259,-3.1955779,-2.1298629\Quadrupole=36.894961,-19.331587
 5,-17.5633735,10.7995361,-1.3430751,0.711662\PG=C01 [X(C13H12N2O1)]\\@


 THE REAL VOYAGE OF DISCOVERY CONSISTS NOT IN SEEKING NEW LANDSCAPES 
 BUT IN HAVING NEW EYES.
                                                    -- MARCEL PROUST
 Job cpu time:       0 days  0 hours 43 minutes 44.4 seconds.
 Elapsed time:       0 days  0 hours 15 minutes 14.3 seconds.
 File lengths (MBytes):  RWF=    766 Int=      0 D2E=      0 Chk=     47 Scr=      1
 Normal termination of Gaussian 16 at Sun Jul 21 13:53:16 2024.
