 Entering Gaussian System, Link 0=g16
 Initial command:
 /opt/sw/arch/manual/gaussian/G16_A03/g16/l1.exe "/scratch/1381527/Gau-184477.inp" -scrdir="/scratch/1381527/"
 Entering Link 1 = /opt/sw/arch/manual/gaussian/G16_A03/g16/l1.exe PID=    184478.
  
 Copyright (c) 1988,1990,1992,1993,1995,1998,2003,2009,2016,
            Gaussian, Inc.  All Rights Reserved.
  
 This is part of the Gaussian(R) 16 program.  It is based on
 the Gaussian(R) 09 system (copyright 2009, Gaussian, Inc.),
 the Gaussian(R) 03 system (copyright 2003, Gaussian, Inc.),
 the Gaussian(R) 98 system (copyright 1998, Gaussian, Inc.),
 the Gaussian(R) 94 system (copyright 1995, Gaussian, Inc.),
 the Gaussian 92(TM) system (copyright 1992, Gaussian, Inc.),
 the Gaussian 90(TM) system (copyright 1990, Gaussian, Inc.),
 the Gaussian 88(TM) system (copyright 1988, Gaussian, Inc.),
 the Gaussian 86(TM) system (copyright 1986, Carnegie Mellon
 University), and the Gaussian 82(TM) system (copyright 1983,
 Carnegie Mellon University). Gaussian is a federally registered
 trademark of Gaussian, Inc.
  
 This software contains proprietary and confidential information,
 including trade secrets, belonging to Gaussian, Inc.
  
 This software is provided under written license and may be
 used, copied, transmitted, or stored only in accord with that
 written license.
  
 The following legend is applicable only to US Government
 contracts under FAR:
  
                    RESTRICTED RIGHTS LEGEND
  
 Use, reproduction and disclosure by the US Government is
 subject to restrictions as set forth in subparagraphs (a)
 and (c) of the Commercial Computer Software - Restricted
 Rights clause in FAR 52.227-19.
  
 Gaussian, Inc.
 340 Quinnipiac St., Bldg. 40, Wallingford CT 06492
  
  
 ---------------------------------------------------------------
 Warning -- This program may not be used in any manner that
 competes with the business of Gaussian, Inc. or will provide
 assistance to any competitor of Gaussian, Inc.  The licensee
 of this program is prohibited from giving any competitor of
 Gaussian, Inc. access to this program.  By using this program,
 the user acknowledges that Gaussian, Inc. is engaged in the
 business of creating and licensing software in the field of
 computational chemistry and represents and warrants to the
 licensee that it is not a competitor of Gaussian, Inc. and that
 it will not use this program in any manner prohibited above.
 ---------------------------------------------------------------
  

 Cite this work as:
 Gaussian 16, Revision A.03,
 M. J. Frisch, G. W. Trucks, H. B. Schlegel, G. E. Scuseria, 
 M. A. Robb, J. R. Cheeseman, G. Scalmani, V. Barone, 
 G. A. Petersson, H. Nakatsuji, X. Li, M. Caricato, A. V. Marenich, 
 J. Bloino, B. G. Janesko, R. Gomperts, B. Mennucci, H. P. Hratchian, 
 J. V. Ortiz, A. F. Izmaylov, J. L. Sonnenberg, D. Williams-Young, 
 F. Ding, F. Lipparini, F. Egidi, J. Goings, B. Peng, A. Petrone, 
 T. Henderson, D. Ranasinghe, V. G. Zakrzewski, J. Gao, N. Rega, 
 G. Zheng, W. Liang, M. Hada, M. Ehara, K. Toyota, R. Fukuda, 
 J. Hasegawa, M. Ishida, T. Nakajima, Y. Honda, O. Kitao, H. Nakai, 
 T. Vreven, K. Throssell, J. A. Montgomery, Jr., J. E. Peralta, 
 F. Ogliaro, M. J. Bearpark, J. J. Heyd, E. N. Brothers, K. N. Kudin, 
 V. N. Staroverov, T. A. Keith, R. Kobayashi, J. Normand, 
 K. Raghavachari, A. P. Rendell, J. C. Burant, S. S. Iyengar, 
 J. Tomasi, M. Cossi, J. M. Millam, M. Klene, C. Adamo, R. Cammi, 
 J. W. Ochterski, R. L. Martin, K. Morokuma, O. Farkas, 
 J. B. Foresman, and D. J. Fox, Gaussian, Inc., Wallingford CT, 2016.
 
 ******************************************
 Gaussian 16:  ES64L-G16RevA.03 25-Dec-2016
                21-Jul-2024 
 ******************************************
 %nprocshared=4
 Will use up to    4 processors via shared memory.
 %mem=8GB
 %Chk=ZLSMCQSGRWNEGX-UHFFFAOYSA-N_conf_0_0.chk
 -------------------------------------------------------
 # opt=CalcFc B3LYP/6-31G** SCRF=(Solvent=water) scf=xqc
 -------------------------------------------------------
 1/10=4,18=20,19=15,26=3,38=1/1,3;
 2/9=110,12=2,17=6,18=5,40=1/2;
 3/5=1,6=6,7=101,11=2,25=1,30=1,70=2201,71=2,72=1,74=-5,140=1/1,2,3;
 4//1;
 5/5=2,8=3,13=1,38=5,53=1/2,8;
 8/6=4,10=90,11=11/1;
 11/6=1,8=1,9=11,15=111,16=1/1,2,10;
 10/6=1,13=1/2;
 6/7=2,8=2,9=2,10=2,28=1/1;
 7/10=1,18=20,25=1/1,2,3,16;
 1/10=4,18=20,19=15,26=3/3(2);
 2/9=110/2;
 99//99;
 2/9=110/2;
 3/5=1,6=6,7=101,11=2,25=1,30=1,70=2205,71=1,72=1,74=-5/1,2,3;
 4/5=5,16=3,69=1/1;
 5/5=2,8=3,13=1,38=5,53=1/2,8;
 7//1,2,3,16;
 1/18=20,19=15,26=3/3(-5);
 2/9=110/2;
 6/7=2,8=2,9=2,10=2,19=2,28=1/1;
 99/9=1/99;
 ----------------------------------
 ZLSMCQSGRWNEGX-UHFFFAOYSA-N_conf_0
 ----------------------------------
 Symbolic Z-matrix:
 Charge =  0 Multiplicity = 1
 O                    -0.10134  -2.61832  -0.8615 
 C                    -0.05907  -1.45049  -0.48283 
 C                    -1.31745  -0.66631  -0.39519 
 C                    -2.50408  -1.33779  -0.08759 
 C                    -3.70896  -0.63264  -0.01073 
 C                    -3.74111   0.74999  -0.2091 
 N                    -4.9637    1.4273   -0.24845 
 C                    -2.56479   1.39938  -0.59391 
 C                    -1.35386   0.70316  -0.6745 
 C                     1.25228  -0.85726  -0.12129 
 C                     1.38719   0.03858   0.94343 
 C                     2.6448    0.56696   1.2531 
 C                     3.78293   0.16996   0.54511 
 N                     5.01184   0.79512   0.781 
 C                     3.63145  -0.69661  -0.54054 
 C                     2.37967  -1.23201  -0.85724 
 H                    -2.49762  -2.41313   0.07858 
 H                    -4.62508  -1.17791   0.20127 
 H                    -4.89175   2.42711  -0.08926 
 H                    -5.69381   0.99793   0.31134 
 H                    -2.58301   2.45698  -0.84526 
 H                    -0.46064   1.23803  -0.98643 
 H                     0.53039   0.33282   1.5434 
 H                     2.72999   1.28842   2.06184 
 H                     5.81345   0.25653   0.46663 
 H                     5.12733   1.1341    1.73096 
 H                     4.49003  -0.97011  -1.14842 
 H                     2.2849   -1.92978  -1.6867 
 

 GradGradGradGradGradGradGradGradGradGradGradGradGradGradGradGradGradGrad
 Berny optimization.
 Initialization pass.
                           ----------------------------
                           !    Initial Parameters    !
                           ! (Angstroms and Degrees)  !
 --------------------------                            --------------------------
 ! Name  Definition              Value          Derivative Info.                !
 --------------------------------------------------------------------------------
 ! R1    R(1,2)                  1.2284         calculate D2E/DX2 analytically  !
 ! R2    R(2,3)                  1.4853         calculate D2E/DX2 analytically  !
 ! R3    R(2,10)                 1.484          calculate D2E/DX2 analytically  !
 ! R4    R(3,4)                  1.3977         calculate D2E/DX2 analytically  !
 ! R5    R(3,9)                  1.3981         calculate D2E/DX2 analytically  !
 ! R6    R(4,5)                  1.3982         calculate D2E/DX2 analytically  !
 ! R7    R(4,17)                 1.0881         calculate D2E/DX2 analytically  !
 ! R8    R(5,6)                  1.3972         calculate D2E/DX2 analytically  !
 ! R9    R(5,18)                 1.087          calculate D2E/DX2 analytically  !
 ! R10   R(6,7)                  1.3982         calculate D2E/DX2 analytically  !
 ! R11   R(6,8)                  1.3977         calculate D2E/DX2 analytically  !
 ! R12   R(7,19)                 1.015          calculate D2E/DX2 analytically  !
 ! R13   R(7,20)                 1.0153         calculate D2E/DX2 analytically  !
 ! R14   R(8,9)                  1.3991         calculate D2E/DX2 analytically  !
 ! R15   R(8,21)                 1.0872         calculate D2E/DX2 analytically  !
 ! R16   R(9,22)                 1.0868         calculate D2E/DX2 analytically  !
 ! R17   R(10,11)                1.398          calculate D2E/DX2 analytically  !
 ! R18   R(10,16)                1.3975         calculate D2E/DX2 analytically  !
 ! R19   R(11,12)                1.3988         calculate D2E/DX2 analytically  !
 ! R20   R(11,23)                1.0866         calculate D2E/DX2 analytically  !
 ! R21   R(12,13)                1.3979         calculate D2E/DX2 analytically  !
 ! R22   R(12,24)                1.0871         calculate D2E/DX2 analytically  !
 ! R23   R(13,14)                1.3988         calculate D2E/DX2 analytically  !
 ! R24   R(13,15)                1.3973         calculate D2E/DX2 analytically  !
 ! R25   R(14,25)                1.0156         calculate D2E/DX2 analytically  !
 ! R26   R(14,26)                1.0152         calculate D2E/DX2 analytically  !
 ! R27   R(15,16)                1.3978         calculate D2E/DX2 analytically  !
 ! R28   R(15,27)                1.087          calculate D2E/DX2 analytically  !
 ! R29   R(16,28)                1.0881         calculate D2E/DX2 analytically  !
 ! A1    A(1,2,3)              119.4032         calculate D2E/DX2 analytically  !
 ! A2    A(1,2,10)             119.0482         calculate D2E/DX2 analytically  !
 ! A3    A(3,2,10)             121.5486         calculate D2E/DX2 analytically  !
 ! A4    A(2,3,4)              118.595          calculate D2E/DX2 analytically  !
 ! A5    A(2,3,9)              121.8305         calculate D2E/DX2 analytically  !
 ! A6    A(4,3,9)              119.5            calculate D2E/DX2 analytically  !
 ! A7    A(3,4,5)              120.0939         calculate D2E/DX2 analytically  !
 ! A8    A(3,4,17)             120.2213         calculate D2E/DX2 analytically  !
 ! A9    A(5,4,17)             119.6786         calculate D2E/DX2 analytically  !
 ! A10   A(4,5,6)              120.7381         calculate D2E/DX2 analytically  !
 ! A11   A(4,5,18)             118.948          calculate D2E/DX2 analytically  !
 ! A12   A(6,5,18)             120.3131         calculate D2E/DX2 analytically  !
 ! A13   A(5,6,7)              120.231          calculate D2E/DX2 analytically  !
 ! A14   A(5,6,8)              118.6537         calculate D2E/DX2 analytically  !
 ! A15   A(7,6,8)              120.2045         calculate D2E/DX2 analytically  !
 ! A16   A(6,7,19)             114.2543         calculate D2E/DX2 analytically  !
 ! A17   A(6,7,20)             114.1053         calculate D2E/DX2 analytically  !
 ! A18   A(19,7,20)            112.4011         calculate D2E/DX2 analytically  !
 ! A19   A(6,8,9)              120.8689         calculate D2E/DX2 analytically  !
 ! A20   A(6,8,21)             120.0997         calculate D2E/DX2 analytically  !
 ! A21   A(9,8,21)             119.0287         calculate D2E/DX2 analytically  !
 ! A22   A(3,9,8)              119.8964         calculate D2E/DX2 analytically  !
 ! A23   A(3,9,22)             121.1967         calculate D2E/DX2 analytically  !
 ! A24   A(8,9,22)             118.8778         calculate D2E/DX2 analytically  !
 ! A25   A(2,10,11)            121.8018         calculate D2E/DX2 analytically  !
 ! A26   A(2,10,16)            118.5131         calculate D2E/DX2 analytically  !
 ! A27   A(11,10,16)           119.6738         calculate D2E/DX2 analytically  !
 ! A28   A(10,11,12)           119.8296         calculate D2E/DX2 analytically  !
 ! A29   A(10,11,23)           121.1962         calculate D2E/DX2 analytically  !
 ! A30   A(12,11,23)           118.9738         calculate D2E/DX2 analytically  !
 ! A31   A(11,12,13)           120.836          calculate D2E/DX2 analytically  !
 ! A32   A(11,12,24)           119.0668         calculate D2E/DX2 analytically  !
 ! A33   A(13,12,24)           120.0951         calculate D2E/DX2 analytically  !
 ! A34   A(12,13,14)           120.1947         calculate D2E/DX2 analytically  !
 ! A35   A(12,13,15)           118.7738         calculate D2E/DX2 analytically  !
 ! A36   A(14,13,15)           120.2266         calculate D2E/DX2 analytically  !
 ! A37   A(13,14,25)           113.842          calculate D2E/DX2 analytically  !
 ! A38   A(13,14,26)           114.0148         calculate D2E/DX2 analytically  !
 ! A39   A(25,14,26)           112.1429         calculate D2E/DX2 analytically  !
 ! A40   A(13,15,16)           120.7067         calculate D2E/DX2 analytically  !
 ! A41   A(13,15,27)           120.3263         calculate D2E/DX2 analytically  !
 ! A42   A(16,15,27)           118.9657         calculate D2E/DX2 analytically  !
 ! A43   A(10,16,15)           120.0266         calculate D2E/DX2 analytically  !
 ! A44   A(10,16,28)           120.2088         calculate D2E/DX2 analytically  !
 ! A45   A(15,16,28)           119.759          calculate D2E/DX2 analytically  !
 ! D1    D(1,2,3,4)             31.3747         calculate D2E/DX2 analytically  !
 ! D2    D(1,2,3,9)           -145.4702         calculate D2E/DX2 analytically  !
 ! D3    D(10,2,3,4)          -148.5334         calculate D2E/DX2 analytically  !
 ! D4    D(10,2,3,9)            34.6216         calculate D2E/DX2 analytically  !
 ! D5    D(1,2,10,11)         -142.7519         calculate D2E/DX2 analytically  !
 ! D6    D(1,2,10,16)           36.0239         calculate D2E/DX2 analytically  !
 ! D7    D(3,2,10,11)           37.1566         calculate D2E/DX2 analytically  !
 ! D8    D(3,2,10,16)         -144.0676         calculate D2E/DX2 analytically  !
 ! D9    D(2,3,4,5)           -179.3385         calculate D2E/DX2 analytically  !
 ! D10   D(2,3,4,17)            -0.2491         calculate D2E/DX2 analytically  !
 ! D11   D(9,3,4,5)             -2.4183         calculate D2E/DX2 analytically  !
 ! D12   D(9,3,4,17)           176.6711         calculate D2E/DX2 analytically  !
 ! D13   D(2,3,9,8)            179.2758         calculate D2E/DX2 analytically  !
 ! D14   D(2,3,9,22)             1.2606         calculate D2E/DX2 analytically  !
 ! D15   D(4,3,9,8)              2.4587         calculate D2E/DX2 analytically  !
 ! D16   D(4,3,9,22)          -175.5565         calculate D2E/DX2 analytically  !
 ! D17   D(3,4,5,6)             -1.4458         calculate D2E/DX2 analytically  !
 ! D18   D(3,4,5,18)           178.2383         calculate D2E/DX2 analytically  !
 ! D19   D(17,4,5,6)           179.4599         calculate D2E/DX2 analytically  !
 ! D20   D(17,4,5,18)           -0.856          calculate D2E/DX2 analytically  !
 ! D21   D(4,5,6,7)            174.2832         calculate D2E/DX2 analytically  !
 ! D22   D(4,5,6,8)              5.1815         calculate D2E/DX2 analytically  !
 ! D23   D(18,5,6,7)            -5.3965         calculate D2E/DX2 analytically  !
 ! D24   D(18,5,6,8)          -174.4983         calculate D2E/DX2 analytically  !
 ! D25   D(5,6,7,19)           160.841          calculate D2E/DX2 analytically  !
 ! D26   D(5,6,7,20)            29.5785         calculate D2E/DX2 analytically  !
 ! D27   D(8,6,7,19)           -30.227          calculate D2E/DX2 analytically  !
 ! D28   D(8,6,7,20)          -161.4895         calculate D2E/DX2 analytically  !
 ! D29   D(5,6,8,9)             -5.1425         calculate D2E/DX2 analytically  !
 ! D30   D(5,6,8,21)           174.2485         calculate D2E/DX2 analytically  !
 ! D31   D(7,6,8,9)           -174.2473         calculate D2E/DX2 analytically  !
 ! D32   D(7,6,8,21)             5.1437         calculate D2E/DX2 analytically  !
 ! D33   D(6,8,9,3)              1.3594         calculate D2E/DX2 analytically  !
 ! D34   D(6,8,9,22)           179.4205         calculate D2E/DX2 analytically  !
 ! D35   D(21,8,9,3)          -178.0381         calculate D2E/DX2 analytically  !
 ! D36   D(21,8,9,22)            0.0231         calculate D2E/DX2 analytically  !
 ! D37   D(2,10,11,12)         179.6235         calculate D2E/DX2 analytically  !
 ! D38   D(2,10,11,23)          -0.1179         calculate D2E/DX2 analytically  !
 ! D39   D(16,10,11,12)          0.8616         calculate D2E/DX2 analytically  !
 ! D40   D(16,10,11,23)       -178.8798         calculate D2E/DX2 analytically  !
 ! D41   D(2,10,16,15)        -179.7551         calculate D2E/DX2 analytically  !
 ! D42   D(2,10,16,28)           1.1065         calculate D2E/DX2 analytically  !
 ! D43   D(11,10,16,15)         -0.9526         calculate D2E/DX2 analytically  !
 ! D44   D(11,10,16,28)        179.9091         calculate D2E/DX2 analytically  !
 ! D45   D(10,11,12,13)         -2.6006         calculate D2E/DX2 analytically  !
 ! D46   D(10,11,12,24)        177.9337         calculate D2E/DX2 analytically  !
 ! D47   D(23,11,12,13)        177.1465         calculate D2E/DX2 analytically  !
 ! D48   D(23,11,12,24)         -2.3192         calculate D2E/DX2 analytically  !
 ! D49   D(11,12,13,14)        174.1            calculate D2E/DX2 analytically  !
 ! D50   D(11,12,13,15)          4.349          calculate D2E/DX2 analytically  !
 ! D51   D(24,12,13,14)         -6.4398         calculate D2E/DX2 analytically  !
 ! D52   D(24,12,13,15)       -176.1907         calculate D2E/DX2 analytically  !
 ! D53   D(12,13,14,25)        160.8176         calculate D2E/DX2 analytically  !
 ! D54   D(12,13,14,26)         30.4245         calculate D2E/DX2 analytically  !
 ! D55   D(15,13,14,25)        -29.5812         calculate D2E/DX2 analytically  !
 ! D56   D(15,13,14,26)       -159.9743         calculate D2E/DX2 analytically  !
 ! D57   D(12,13,15,16)         -4.4336         calculate D2E/DX2 analytically  !
 ! D58   D(12,13,15,27)        175.9988         calculate D2E/DX2 analytically  !
 ! D59   D(14,13,15,16)       -174.1812         calculate D2E/DX2 analytically  !
 ! D60   D(14,13,15,27)          6.2512         calculate D2E/DX2 analytically  !
 ! D61   D(13,15,16,10)          2.7803         calculate D2E/DX2 analytically  !
 ! D62   D(13,15,16,28)       -178.0775         calculate D2E/DX2 analytically  !
 ! D63   D(27,15,16,10)       -177.6464         calculate D2E/DX2 analytically  !
 ! D64   D(27,15,16,28)          1.4959         calculate D2E/DX2 analytically  !
 --------------------------------------------------------------------------------
 Trust Radius=3.00D-01 FncErr=1.00D-07 GrdErr=1.00D-06 EigMax=2.50D+02 EigMin=1.00D-04
 Number of steps in this run=    148 maximum allowed number of steps=    168.
 GradGradGradGradGradGradGradGradGradGradGradGradGradGradGradGradGradGrad

                          Input orientation:                          
 ---------------------------------------------------------------------
 Center     Atomic      Atomic             Coordinates (Angstroms)
 Number     Number       Type             X           Y           Z
 ---------------------------------------------------------------------
      1          8           0       -0.101342   -2.618324   -0.861497
      2          6           0       -0.059067   -1.450491   -0.482826
      3          6           0       -1.317448   -0.666308   -0.395189
      4          6           0       -2.504076   -1.337790   -0.087588
      5          6           0       -3.708964   -0.632637   -0.010729
      6          6           0       -3.741109    0.749987   -0.209095
      7          7           0       -4.963697    1.427301   -0.248451
      8          6           0       -2.564786    1.399379   -0.593910
      9          6           0       -1.353856    0.703163   -0.674503
     10          6           0        1.252285   -0.857257   -0.121289
     11          6           0        1.387192    0.038576    0.943435
     12          6           0        2.644795    0.566956    1.253099
     13          6           0        3.782927    0.169963    0.545105
     14          7           0        5.011841    0.795116    0.781002
     15          6           0        3.631452   -0.696612   -0.540543
     16          6           0        2.379673   -1.232010   -0.857239
     17          1           0       -2.497617   -2.413132    0.078575
     18          1           0       -4.625078   -1.177912    0.201269
     19          1           0       -4.891755    2.427109   -0.089255
     20          1           0       -5.693810    0.997931    0.311338
     21          1           0       -2.583014    2.456977   -0.845260
     22          1           0       -0.460637    1.238034   -0.986427
     23          1           0        0.530385    0.332824    1.543404
     24          1           0        2.729987    1.288416    2.061841
     25          1           0        5.813455    0.256530    0.466632
     26          1           0        5.127335    1.134104    1.730957
     27          1           0        4.490029   -0.970114   -1.148415
     28          1           0        2.284899   -1.929778   -1.686698
 ---------------------------------------------------------------------
                    Distance matrix (angstroms):
                    1          2          3          4          5
     1  O    0.000000
     2  C    1.228419   0.000000
     3  C    2.346641   1.485310   0.000000
     4  C    2.830518   2.479311   1.397710   0.000000
     5  C    4.204962   3.770081   2.422456   1.398179   0.000000
     6  C    5.001905   4.298193   2.813299   2.429780   1.397151
     7  N    6.354951   5.691398   4.207120   3.704233   2.423677
     8  C    4.720392   3.796410   2.421240   2.784267   2.403816
     9  C    3.554720   2.520207   1.398139   2.415153   2.787739
    10  C    2.341276   1.484008   2.591334   3.787122   4.967562
    11  C    3.540146   2.518572   3.099008   4.254334   5.227979
    12  C    4.707313   3.793995   4.465106   5.651228   6.588365
    13  C    4.984037   4.294582   5.253316   6.496155   7.555234
    14  N    6.363491   5.688068   6.601446   7.860836   8.872303
    15  C    4.210670   3.767174   4.951128   6.185546   7.359791
    16  C    2.842062   2.476968   3.768582   4.945154   6.176353
    17  H    2.582242   2.681115   2.160705   1.088123   2.155343
    18  H    4.865023   4.625013   3.399693   2.146543   1.086983
    19  H    7.000058   6.208507   4.736929   4.458193   3.281342
    20  H    6.762289   6.194820   4.735126   3.973555   2.588840
    21  H    5.649570   4.665831   3.399872   3.870472   3.392627
    22  H    3.875075   2.764605   2.170301   3.408581   3.873374
    23  H    3.859002   2.762838   2.858478   3.828713   4.617308
    24  H    5.641361   4.664308   5.122468   6.237982   7.031791
    25  H    6.709212   6.188853   7.241833   8.487068   9.575748
    26  H    6.938343   6.203203   7.021197   8.225314   9.177964
    27  H    4.886676   4.622558   5.863995   7.083646   8.284426
    28  H    2.617097   2.678283   4.030044   5.083491   6.357503
                    6          7          8          9         10
     6  C    0.000000
     7  N    1.398222   0.000000
     8  C    1.397686   2.423818   0.000000
     9  C    2.432647   3.706325   1.399130   0.000000
    10  C    5.246420   6.623730   4.459351   3.087544   0.000000
    11  C    5.304140   6.609307   4.453464   3.251576   1.397982
    12  C    6.553723   7.802820   5.589643   4.441106   2.420002
    13  C    7.583954   8.872095   6.565233   5.306439   2.811301
    14  N    8.808886  10.048422   7.724041   6.530625   4.204608
    15  C    7.520450   8.858494   6.541361   5.179828   2.421161
    16  C    6.466249   7.833750   5.607248   4.209219   1.397522
    17  H    3.410916   4.575743   3.871949   3.403911   4.064783
    18  H    2.160230   2.665342   3.394045   3.873798   5.894935
    19  H    2.037421   1.014956   2.593393   3.978848   6.966872
    20  H    2.036018   1.015277   3.281985   4.460265   7.202577
    21  H    2.158634   2.661590   1.087208   2.148453   5.120332
    22  H    3.406454   4.567054   2.146520   1.086842   2.841269
    23  H    4.635832   5.881629   3.909698   2.933706   2.169938
    24  H    6.879109   8.034271   5.924521   4.950543   3.399054
    25  H    9.591131  10.864117   8.522076   7.271315   4.731854
    26  H    9.086289  10.287514   8.040156   6.926600   4.734168
    27  H    8.461247   9.794410   7.462734   6.097167   3.398634
    28  H    6.758493   8.116691   5.983053   4.604070   2.160347
                   11         12         13         14         15
    11  C    0.000000
    12  C    1.398801   0.000000
    13  C    2.432175   1.397928   0.000000
    14  N    3.706321   2.424425   1.398818   0.000000
    15  C    2.789157   2.405670   1.397330   2.424295   0.000000
    16  C    2.416989   2.785695   2.429243   3.704239   1.397820
    17  H    4.674462   6.058452   6.807002   8.196232   6.394939
    18  H    6.178838   7.549965   8.522297   9.853889   8.303748
    19  H    6.796816   7.877923   8.985946  10.074818   9.088804
    20  H    7.173597   8.402677   9.515709  10.717867   9.516181
    21  H    4.981027   5.941825   6.905705   7.942817   6.975498
    22  H    2.928743   3.887098   4.636184   5.767842   4.548282
    23  H    1.086582   2.147050   3.406193   4.569291   3.875460
    24  H    2.148495   1.087118   2.158728   2.662846   3.394905
    25  H    4.457202   3.279527   2.033886   1.015622   2.585346
    26  H    3.976059   2.590947   2.035496   1.015217   3.278551
    27  H    3.875679   3.396284   2.160505   2.666642   1.086952
    28  H    3.405568   3.873708   3.410857   4.577205   2.155824
                   16         17         18         19         20
    16  C    0.000000
    17  H    5.104778   0.000000
    18  H    7.084483   2.463110   0.000000
    19  H    8.176345   5.402592   3.626527   0.000000
    20  H    8.456910   4.680297   2.426643   1.687103   0.000000
    21  H    6.183610   4.957694   4.298565   2.429551   3.625408
    22  H    3.766320   4.314457   4.958829   4.674786   5.397031
    23  H    3.410521   4.342211   5.537368   6.037484   6.379730
    24  H    3.872505   6.705420   7.977561   8.000924   8.608658
    25  H    3.969791   8.737940  10.539972  10.937181  11.532169
    26  H    4.454986   8.570481  10.138783  10.264852  10.914716
    27  H    2.146387   7.239821   9.216832  10.033983  10.474476
    28  H    1.088055   5.120770   7.202604   8.546265   8.730603
                   21         22         23         24         25
    21  H    0.000000
    22  H    2.451578   0.000000
    23  H    4.462174   2.863839   0.000000
    24  H    6.168043   4.412999   2.453606   0.000000
    25  H    8.778594   6.514519   5.392224   3.621775   0.000000
    26  H    8.236284   6.214532   4.670029   2.424989   1.685056
    27  H    7.865418   5.423214   4.962088   4.301680   2.421671
    28  H    6.606680   4.250104   4.316392   4.960486   4.676267
                   26         27         28
    26  H    0.000000
    27  H    3.622800   0.000000
    28  H    5.398813   2.464407   0.000000
 Stoichiometry    C13H12N2O
 Framework group  C1[X(C13H12N2O)]
 Deg. of freedom    78
 Full point group                 C1      NOp   1
 Largest Abelian subgroup         C1      NOp   1
 Largest concise Abelian subgroup C1      NOp   1
                         Standard orientation:                         
 ---------------------------------------------------------------------
 Center     Atomic      Atomic             Coordinates (Angstroms)
 Number     Number       Type             X           Y           Z
 ---------------------------------------------------------------------
      1          8           0        0.001011    2.553061   -0.027349
      2          6           0       -0.000225    1.324688   -0.016862
      3          6           0       -1.294511    0.597085    0.022709
      4          6           0       -2.407232    1.177354   -0.592702
      5          6           0       -3.644175    0.526231   -0.562401
      6          6           0       -3.779953   -0.720602    0.053232
      7          7           0       -5.042180   -1.307948    0.182969
      8          6           0       -2.682356   -1.255141    0.733729
      9          6           0       -1.440275   -0.611517    0.710331
     10          6           0        1.295902    0.602554   -0.046170
     11          6           0        1.459811   -0.588251   -0.759941
     12          6           0        2.702373   -1.230630   -0.765671
     13          6           0        3.802077   -0.669627   -0.109828
     14          7           0        5.003969   -1.379412   -0.018439
     15          6           0        3.618131    0.500636    0.631237
     16          6           0        2.381236    1.151692    0.641989
     17          1           0       -2.319107    2.143965   -1.084545
     18          1           0       -4.503597    1.007751   -1.021817
     19          1           0       -5.021089   -2.308616    0.351358
     20          1           0       -5.695677   -1.052787   -0.550939
     21          1           0       -2.787986   -2.177569    1.299406
     22          1           0       -0.611086   -1.050765    1.258722
     23          1           0        0.637671   -1.027401   -1.318415
     24          1           0        2.807087   -2.173415   -1.296725
     25          1           0        5.809918   -0.797092    0.188532
     26          1           0        5.174556   -2.005349   -0.799316
     27          1           0        4.440075    0.922560    1.203823
     28          1           0        2.263806    2.078904    1.199083
 ---------------------------------------------------------------------
 Rotational constants (GHZ):           1.3576600           0.2508364           0.2225143
 Standard basis: 6-31G(d,p) (6D, 7F)
 There are   300 symmetry adapted cartesian basis functions of A   symmetry.
 There are   300 symmetry adapted basis functions of A   symmetry.
   300 basis functions,   532 primitive gaussians,   300 cartesian basis functions
    56 alpha electrons       56 beta electrons
       nuclear repulsion energy       976.0493972739 Hartrees.
 NAtoms=   28 NActive=   28 NUniq=   28 SFac= 1.00D+00 NAtFMM=   60 NAOKFM=F Big=F
 Integral buffers will be    131072 words long.
 Raffenetti 2 integral format.
 Two-electron integral symmetry is turned on.
 Force inversion solution in PCM.
 ------------------------------------------------------------------------------
 Polarizable Continuum Model (PCM)
 =================================
 Model                : PCM.
 Atomic radii         : UFF (Universal Force Field).
 Polarization charges : Total charges.
 Charge compensation  : None.
 Solution method      : Matrix inversion.
 Cavity type          : Scaled VdW (van der Waals Surface) (Alpha=1.100).
 Cavity algorithm     : GePol (No added spheres)
                        Default sphere list used, NSphG=   28.
                        Lebedev-Laikov grids with approx.  5.0 points / Ang**2.
                        Smoothing algorithm: York/Karplus (Gamma=1.0000).
                        Polarization charges: spherical gaussians, with
                                              point-specific exponents (IZeta= 3).
                        Self-potential: point-specific (ISelfS= 7).
                        Self-field    : sphere-specific E.n sum rule (ISelfD= 2).
 1st derivatives      : Analytical E(r).r(x)/FMM algorithm (CHGder, D1EAlg=3).
                        Cavity 1st derivative terms included.
 2nd derivatives      : Analytical E(r).r(xy)/FMM algorithm (CHGder, D2EAlg=3).
                        Cavity 2nd derivative terms included.
 Solvent              : Water, Eps=  78.355300 Eps(inf)=   1.777849
 ------------------------------------------------------------------------------
 One-electron integrals computed using PRISM.
 NBasis=   300 RedAO= T EigKep=  4.30D-04  NBF=   300
 NBsUse=   300 1.00D-06 EigRej= -1.00D+00 NBFU=   300
 ExpMin= 1.61D-01 ExpMax= 5.48D+03 ExpMxC= 8.25D+02 IAcc=3 IRadAn=         5 AccDes= 0.00D+00
 Harris functional with IExCor=  402 and IRadAn=       5 diagonalized for initial guess.
 HarFok:  IExCor=  402 AccDes= 0.00D+00 IRadAn=         5 IDoV= 1 UseB2=F ITyADJ=14
 ICtDFT=  3500011 ScaDFX=  1.000000  1.000000  1.000000  1.000000
 FoFCou: FMM=F IPFlag=           0 FMFlag=      100000 FMFlg1=           0
         NFxFlg=           0 DoJE=T BraDBF=F KetDBF=T FulRan=T
         wScrn=  0.000000 ICntrl=       500 IOpCl=  0 I1Cent=   200000004 NGrid=           0
         NMat0=    1 NMatS0=      1 NMatT0=    0 NMatD0=    1 NMtDS0=    0 NMtDT0=    0
 Petite list used in FoFCou.
 Keep R1 ints in memory in canonical form, NReq=1032920980.
 Requested convergence on RMS density matrix=1.00D-08 within  32 cycles.
 Requested convergence on MAX density matrix=1.00D-06.
 Requested convergence on             energy=1.00D-06.
 No special actions if energy rises.
 Inv3:  Mode=1 IEnd=    14113683.
 Iteration    1 A*A^-1 deviation from unit magnitude is 4.00D-15 for   1521.
 Iteration    1 A*A^-1 deviation from orthogonality  is 2.31D-15 for   1092    843.
 Iteration    1 A^-1*A deviation from unit magnitude is 4.00D-15 for   1521.
 Iteration    1 A^-1*A deviation from orthogonality  is 6.63D-14 for   1497   1022.
 Error on total polarization charges =  0.00873
 SCF Done:  E(RB3LYP) =  -687.382039626     A.U. after   12 cycles
            NFock= 12  Conv=0.97D-08     -V/T= 2.0095
 QCSCF skips out because SCF is already converged.
 DoSCS=F DFT=T ScalE2(SS,OS)=  1.000000  1.000000
 Range of M.O.s used for correlation:     1   300
 NBasis=   300 NAE=    56 NBE=    56 NFC=     0 NFV=     0
 NROrb=    300 NOA=    56 NOB=    56 NVA=   244 NVB=   244
 Symmetrizing basis deriv contribution to polar:
 IMax=3 JMax=2 DiffMx= 0.00D+00
 G2DrvN: will do    29 centers at a time, making    1 passes.
 Calling FoFCou, ICntrl=  3107 FMM=F I1Cent=   0 AccDes= 0.00D+00.
 NEqPCM:  Using equilibrium solvation (IEInf=0, Eps=  78.3553, EpsInf=   1.7778)
 G2PCM: DoFxE=T DoFxN=T DoGrad=T DoDP/DQ/DG/TGxP=FFFF NFrqRd=   0 IEInf=0 SqF1=F DoCFld=F IF1Alg=4.
 End of G2Drv F.D. properties file   721 does not exist.
 End of G2Drv F.D. properties file   722 does not exist.
 End of G2Drv F.D. properties file   788 does not exist.
          IDoAtm=1111111111111111111111111111
 NEqPCM:  Using equilibrium solvation (IEInf=0, Eps=  78.3553, EpsInf=   1.7778)
          Differentiating once with respect to nuclear coordinates.
 Keep R1 ints in memory in canonical form, NReq=1032932641.
          There are    87 degrees of freedom in the 1st order CPHF.  IDoFFX=6 NUNeed=     0.
     81 vectors produced by pass  0 Test12= 1.57D-14 1.15D-09 XBig12= 1.25D-01 1.17D-01.
 AX will form    81 AO Fock derivatives at one time.
     81 vectors produced by pass  1 Test12= 1.57D-14 1.15D-09 XBig12= 4.73D-02 6.13D-02.
     81 vectors produced by pass  2 Test12= 1.57D-14 1.15D-09 XBig12= 2.82D-04 2.55D-03.
     81 vectors produced by pass  3 Test12= 1.57D-14 1.15D-09 XBig12= 1.14D-06 1.87D-04.
     81 vectors produced by pass  4 Test12= 1.57D-14 1.15D-09 XBig12= 3.46D-09 6.59D-06.
     62 vectors produced by pass  5 Test12= 1.57D-14 1.15D-09 XBig12= 3.80D-12 2.21D-07.
     16 vectors produced by pass  6 Test12= 1.57D-14 1.15D-09 XBig12= 3.33D-15 5.89D-09.
 InvSVY:  IOpt=1 It=  1 EMax= 5.00D-16
 Solved reduced A of dimension   483 with    87 vectors.
 End of Minotr F.D. properties file   721 does not exist.
 End of Minotr F.D. properties file   722 does not exist.
 End of Minotr F.D. properties file   788 does not exist.

 **********************************************************************

            Population analysis using the SCF density.

 **********************************************************************

 Orbital symmetries:
       Occupied  (A) (A) (A) (A) (A) (A) (A) (A) (A) (A) (A) (A)
                 (A) (A) (A) (A) (A) (A) (A) (A) (A) (A) (A) (A)
                 (A) (A) (A) (A) (A) (A) (A) (A) (A) (A) (A) (A)
                 (A) (A) (A) (A) (A) (A) (A) (A) (A) (A) (A) (A)
                 (A) (A) (A) (A) (A) (A) (A) (A)
       Virtual   (A) (A) (A) (A) (A) (A) (A) (A) (A) (A) (A) (A)
                 (A) (A) (A) (A) (A) (A) (A) (A) (A) (A) (A) (A)
                 (A) (A) (A) (A) (A) (A) (A) (A) (A) (A) (A) (A)
                 (A) (A) (A) (A) (A) (A) (A) (A) (A) (A) (A) (A)
                 (A) (A) (A) (A) (A) (A) (A) (A) (A) (A) (A) (A)
                 (A) (A) (A) (A) (A) (A) (A) (A) (A) (A) (A) (A)
                 (A) (A) (A) (A) (A) (A) (A) (A) (A) (A) (A) (A)
                 (A) (A) (A) (A) (A) (A) (A) (A) (A) (A) (A) (A)
                 (A) (A) (A) (A) (A) (A) (A) (A) (A) (A) (A) (A)
                 (A) (A) (A) (A) (A) (A) (A) (A) (A) (A) (A) (A)
                 (A) (A) (A) (A) (A) (A) (A) (A) (A) (A) (A) (A)
                 (A) (A) (A) (A) (A) (A) (A) (A) (A) (A) (A) (A)
                 (A) (A) (A) (A) (A) (A) (A) (A) (A) (A) (A) (A)
                 (A) (A) (A) (A) (A) (A) (A) (A) (A) (A) (A) (A)
                 (A) (A) (A) (A) (A) (A) (A) (A) (A) (A) (A) (A)
                 (A) (A) (A) (A) (A) (A) (A) (A) (A) (A) (A) (A)
                 (A) (A) (A) (A) (A) (A) (A) (A) (A) (A) (A) (A)
                 (A) (A) (A) (A) (A) (A) (A) (A) (A) (A) (A) (A)
                 (A) (A) (A) (A) (A) (A) (A) (A) (A) (A) (A) (A)
                 (A) (A) (A) (A) (A) (A) (A) (A) (A) (A) (A) (A)
                 (A) (A) (A) (A)
 The electronic state is 1-A.
 Alpha  occ. eigenvalues --  -19.12531 -14.34381 -14.34326 -10.26606 -10.23594
 Alpha  occ. eigenvalues --  -10.23538 -10.19801 -10.19788 -10.19627 -10.19625
 Alpha  occ. eigenvalues --  -10.18856 -10.18849 -10.18845 -10.18837 -10.18830
 Alpha  occ. eigenvalues --  -10.18825  -1.02757  -0.92077  -0.92039  -0.84795
 Alpha  occ. eigenvalues --   -0.84091  -0.75715  -0.74822  -0.74681  -0.73092
 Alpha  occ. eigenvalues --   -0.63992  -0.61887  -0.61815  -0.60025  -0.55431
 Alpha  occ. eigenvalues --   -0.52807  -0.51276  -0.50890  -0.50852  -0.48428
 Alpha  occ. eigenvalues --   -0.44633  -0.44238  -0.44060  -0.43371  -0.42409
 Alpha  occ. eigenvalues --   -0.42165  -0.41774  -0.39620  -0.38950  -0.37980
 Alpha  occ. eigenvalues --   -0.37335  -0.36528  -0.34572  -0.34419  -0.31720
 Alpha  occ. eigenvalues --   -0.30694  -0.25736  -0.25488  -0.24468  -0.21278
 Alpha  occ. eigenvalues --   -0.21228
 Alpha virt. eigenvalues --   -0.04750  -0.01314  -0.00175   0.00539   0.06478
 Alpha virt. eigenvalues --    0.09219   0.09245   0.10800   0.11316   0.12966
 Alpha virt. eigenvalues --    0.13060   0.15238   0.17041   0.17061   0.17349
 Alpha virt. eigenvalues --    0.17826   0.18268   0.19628   0.20299   0.24561
 Alpha virt. eigenvalues --    0.25249   0.26310   0.28993   0.30303   0.32593
 Alpha virt. eigenvalues --    0.33174   0.33337   0.34403   0.34679   0.35420
 Alpha virt. eigenvalues --    0.38343   0.41173   0.47599   0.49878   0.50486
 Alpha virt. eigenvalues --    0.52016   0.52243   0.52737   0.53528   0.54128
 Alpha virt. eigenvalues --    0.55688   0.56859   0.57621   0.58478   0.58605
 Alpha virt. eigenvalues --    0.58859   0.58911   0.59422   0.60209   0.60450
 Alpha virt. eigenvalues --    0.60933   0.62203   0.62517   0.63381   0.65120
 Alpha virt. eigenvalues --    0.65783   0.67540   0.68888   0.69248   0.70069
 Alpha virt. eigenvalues --    0.70380   0.73589   0.74374   0.75311   0.77672
 Alpha virt. eigenvalues --    0.78942   0.80845   0.81162   0.81716   0.82088
 Alpha virt. eigenvalues --    0.82429   0.83835   0.84079   0.85384   0.85476
 Alpha virt. eigenvalues --    0.86523   0.86798   0.87481   0.88826   0.89311
 Alpha virt. eigenvalues --    0.91312   0.92051   0.92974   0.96729   0.98781
 Alpha virt. eigenvalues --    0.99616   0.99763   1.00430   1.01980   1.02182
 Alpha virt. eigenvalues --    1.04316   1.07563   1.07782   1.11148   1.12546
 Alpha virt. eigenvalues --    1.13136   1.15132   1.16649   1.17354   1.18644
 Alpha virt. eigenvalues --    1.19677   1.23257   1.26396   1.26956   1.27710
 Alpha virt. eigenvalues --    1.30097   1.31165   1.34160   1.38242   1.38884
 Alpha virt. eigenvalues --    1.39652   1.40034   1.40560   1.41333   1.43799
 Alpha virt. eigenvalues --    1.45581   1.47905   1.48714   1.50233   1.51047
 Alpha virt. eigenvalues --    1.56122   1.66309   1.73062   1.74200   1.75190
 Alpha virt. eigenvalues --    1.75377   1.76948   1.77473   1.78184   1.79594
 Alpha virt. eigenvalues --    1.80852   1.81780   1.82071   1.84900   1.86435
 Alpha virt. eigenvalues --    1.86819   1.89057   1.89671   1.91275   1.92946
 Alpha virt. eigenvalues --    1.94869   1.96206   1.96503   1.96670   1.97499
 Alpha virt. eigenvalues --    1.98954   1.99223   1.99876   2.02446   2.04145
 Alpha virt. eigenvalues --    2.07952   2.08652   2.09932   2.10379   2.12416
 Alpha virt. eigenvalues --    2.16283   2.16524   2.23180   2.24143   2.24231
 Alpha virt. eigenvalues --    2.25669   2.26475   2.29198   2.29837   2.31978
 Alpha virt. eigenvalues --    2.33110   2.33339   2.34701   2.35200   2.36426
 Alpha virt. eigenvalues --    2.38832   2.40883   2.41143   2.42011   2.43970
 Alpha virt. eigenvalues --    2.44318   2.45892   2.46462   2.46902   2.47985
 Alpha virt. eigenvalues --    2.49451   2.49984   2.51211   2.54498   2.54849
 Alpha virt. eigenvalues --    2.56206   2.56549   2.59231   2.59427   2.60152
 Alpha virt. eigenvalues --    2.61799   2.65549   2.66112   2.67595   2.69370
 Alpha virt. eigenvalues --    2.72402   2.73027   2.77747   2.79033   2.79382
 Alpha virt. eigenvalues --    2.81681   2.84607   2.84887   2.87800   2.93838
 Alpha virt. eigenvalues --    2.96606   2.98198   2.98520   3.05179   3.05547
 Alpha virt. eigenvalues --    3.09672   3.11666   3.18916   3.19190   3.24872
 Alpha virt. eigenvalues --    3.24956   3.27854   3.28063   3.30566   3.33700
 Alpha virt. eigenvalues --    3.37654   3.38512   3.48250   3.48335   3.53308
 Alpha virt. eigenvalues --    3.54485   3.82228   3.84120   4.00065   4.03576
 Alpha virt. eigenvalues --    4.03846   4.13030   4.13342   4.15422   4.15640
 Alpha virt. eigenvalues --    4.19362   4.19961   4.36501   4.42684   4.44450
 Alpha virt. eigenvalues --    4.44906   4.55399   4.80410   4.86659
          Condensed to atoms (all electrons):
               1          2          3          4          5          6
     1  O    8.154028   0.541993  -0.099793   0.003238   0.000765  -0.000002
     2  C    0.541993   4.707490   0.299947  -0.027785   0.005360   0.000511
     3  C   -0.099793   0.299947   5.043941   0.485096  -0.036034  -0.029013
     4  C    0.003238  -0.027785   0.485096   4.915410   0.503901  -0.024272
     5  C    0.000765   0.005360  -0.036034   0.503901   4.965649   0.525627
     6  C   -0.000002   0.000511  -0.029013  -0.024272   0.525627   4.570471
     7  N    0.000000   0.000001   0.000458   0.004270  -0.069928   0.306724
     8  C   -0.000094   0.004751  -0.032560  -0.041315  -0.048565   0.532280
     9  C    0.002289  -0.042418   0.512892  -0.053071  -0.041711  -0.025155
    10  C   -0.101659   0.300989  -0.102598   0.008216  -0.000105  -0.000023
    11  C    0.001720  -0.043121  -0.005783   0.000208  -0.000015  -0.000004
    12  C   -0.000068   0.005046   0.000239   0.000014  -0.000000  -0.000000
    13  C   -0.000021   0.000368  -0.000007   0.000000   0.000000  -0.000000
    14  N   -0.000000   0.000000   0.000000  -0.000000  -0.000000  -0.000000
    15  C    0.000799   0.005580  -0.000103   0.000000  -0.000000   0.000000
    16  C    0.004081  -0.028318   0.007797  -0.000249   0.000000   0.000001
    17  H    0.011638  -0.007843  -0.049094   0.368073  -0.035959   0.003865
    18  H    0.000002  -0.000146   0.003825  -0.033032   0.366336  -0.043268
    19  H    0.000000  -0.000000   0.000004  -0.000179   0.005438  -0.024148
    20  H    0.000000  -0.000000   0.000009  -0.000076  -0.008857  -0.024294
    21  H    0.000001  -0.000155   0.003695   0.000752   0.005033  -0.043121
    22  H    0.000047  -0.007763  -0.042196   0.005392   0.000505   0.003665
    23  H    0.000032  -0.007888   0.006667  -0.000206  -0.000032   0.000005
    24  H    0.000001  -0.000149   0.000004  -0.000000  -0.000000   0.000000
    25  H    0.000000  -0.000000   0.000000  -0.000000  -0.000000   0.000000
    26  H   -0.000000  -0.000000   0.000000  -0.000000   0.000000   0.000000
    27  H    0.000002  -0.000153   0.000002  -0.000000   0.000000   0.000000
    28  H    0.010145  -0.007517   0.000645  -0.000018  -0.000000   0.000000
               7          8          9         10         11         12
     1  O    0.000000  -0.000094   0.002289  -0.101659   0.001720  -0.000068
     2  C    0.000001   0.004751  -0.042418   0.300989  -0.043121   0.005046
     3  C    0.000458  -0.032560   0.512892  -0.102598  -0.005783   0.000239
     4  C    0.004270  -0.041315  -0.053071   0.008216   0.000208   0.000014
     5  C   -0.069928  -0.048565  -0.041711  -0.000105  -0.000015  -0.000000
     6  C    0.306724   0.532280  -0.025155  -0.000023  -0.000004  -0.000000
     7  N    6.813748  -0.070765   0.004661  -0.000000   0.000000   0.000000
     8  C   -0.070765   4.952973   0.510008   0.000286  -0.000104  -0.000022
     9  C    0.004661   0.510008   4.918300  -0.005674  -0.003212  -0.000170
    10  C   -0.000000   0.000286  -0.005674   5.040844   0.515401  -0.031267
    11  C    0.000000  -0.000104  -0.003212   0.515401   4.912126   0.510557
    12  C    0.000000  -0.000022  -0.000170  -0.031267   0.510557   4.950417
    13  C   -0.000000  -0.000000  -0.000001  -0.031438  -0.025340   0.533148
    14  N    0.000000   0.000000   0.000000   0.000402   0.004619  -0.070549
    15  C   -0.000000  -0.000000  -0.000025  -0.033995  -0.042871  -0.047585
    16  C    0.000000   0.000012   0.000279   0.484278  -0.048346  -0.042959
    17  H   -0.000106   0.000490   0.005554   0.000674  -0.000028   0.000001
    18  H   -0.007236   0.005089   0.000669   0.000002  -0.000000   0.000000
    19  H    0.343829  -0.008872  -0.000015  -0.000000   0.000000   0.000000
    20  H    0.343727   0.005425  -0.000167  -0.000000   0.000000   0.000000
    21  H   -0.007240   0.365579  -0.032202   0.000007  -0.000006   0.000000
    22  H   -0.000107  -0.034978   0.366808   0.006876   0.003283   0.000123
    23  H    0.000000   0.000062   0.003527  -0.042335   0.366671  -0.035050
    24  H    0.000000   0.000000  -0.000006   0.003720  -0.032528   0.365121
    25  H   -0.000000  -0.000000  -0.000000   0.000001  -0.000194   0.005485
    26  H   -0.000000  -0.000000  -0.000000   0.000006  -0.000093  -0.009003
    27  H    0.000000   0.000000  -0.000000   0.004024   0.000688   0.005095
    28  H   -0.000000   0.000001  -0.000031  -0.049231   0.005592   0.000480
              13         14         15         16         17         18
     1  O   -0.000021  -0.000000   0.000799   0.004081   0.011638   0.000002
     2  C    0.000368   0.000000   0.005580  -0.028318  -0.007843  -0.000146
     3  C   -0.000007   0.000000  -0.000103   0.007797  -0.049094   0.003825
     4  C    0.000000  -0.000000   0.000000  -0.000249   0.368073  -0.033032
     5  C    0.000000  -0.000000  -0.000000   0.000000  -0.035959   0.366336
     6  C   -0.000000  -0.000000   0.000000   0.000001   0.003865  -0.043268
     7  N   -0.000000   0.000000  -0.000000   0.000000  -0.000106  -0.007236
     8  C   -0.000000   0.000000  -0.000000   0.000012   0.000490   0.005089
     9  C   -0.000001   0.000000  -0.000025   0.000279   0.005554   0.000669
    10  C   -0.031438   0.000402  -0.033995   0.484278   0.000674   0.000002
    11  C   -0.025340   0.004619  -0.042871  -0.048346  -0.000028  -0.000000
    12  C    0.533148  -0.070549  -0.047585  -0.042959   0.000001   0.000000
    13  C    4.572734   0.305310   0.525012  -0.021331   0.000000   0.000000
    14  N    0.305310   6.816508  -0.070366   0.004447  -0.000000  -0.000000
    15  C    0.525012  -0.070366   4.967870   0.500935  -0.000000   0.000000
    16  C   -0.021331   0.004447   0.500935   4.912754  -0.000016  -0.000000
    17  H    0.000000  -0.000000  -0.000000  -0.000016   0.602516  -0.005682
    18  H    0.000000  -0.000000   0.000000  -0.000000  -0.005682   0.606772
    19  H   -0.000000   0.000000   0.000000   0.000000   0.000003  -0.000042
    20  H   -0.000000  -0.000000   0.000000  -0.000000  -0.000005   0.004540
    21  H    0.000000   0.000000  -0.000000  -0.000000   0.000017  -0.000174
    22  H   -0.000018  -0.000000  -0.000018  -0.000180  -0.000150   0.000016
    23  H    0.003707  -0.000107   0.000485   0.005465  -0.000011  -0.000000
    24  H   -0.042945  -0.007364   0.005155   0.000692  -0.000000  -0.000000
    25  H   -0.024299   0.343117  -0.009047  -0.000043  -0.000000  -0.000000
    26  H   -0.024012   0.343436   0.005368  -0.000168  -0.000000  -0.000000
    27  H   -0.043070  -0.007293   0.365870  -0.033158  -0.000000  -0.000000
    28  H    0.003904  -0.000105  -0.036043   0.368754  -0.000004  -0.000000
              19         20         21         22         23         24
     1  O    0.000000   0.000000   0.000001   0.000047   0.000032   0.000001
     2  C   -0.000000  -0.000000  -0.000155  -0.007763  -0.007888  -0.000149
     3  C    0.000004   0.000009   0.003695  -0.042196   0.006667   0.000004
     4  C   -0.000179  -0.000076   0.000752   0.005392  -0.000206  -0.000000
     5  C    0.005438  -0.008857   0.005033   0.000505  -0.000032  -0.000000
     6  C   -0.024148  -0.024294  -0.043121   0.003665   0.000005   0.000000
     7  N    0.343829   0.343727  -0.007240  -0.000107   0.000000   0.000000
     8  C   -0.008872   0.005425   0.365579  -0.034978   0.000062   0.000000
     9  C   -0.000015  -0.000167  -0.032202   0.366808   0.003527  -0.000006
    10  C   -0.000000  -0.000000   0.000007   0.006876  -0.042335   0.003720
    11  C    0.000000   0.000000  -0.000006   0.003283   0.366671  -0.032528
    12  C    0.000000   0.000000   0.000000   0.000123  -0.035050   0.365121
    13  C   -0.000000  -0.000000   0.000000  -0.000018   0.003707  -0.042945
    14  N    0.000000  -0.000000   0.000000  -0.000000  -0.000107  -0.007364
    15  C    0.000000   0.000000  -0.000000  -0.000018   0.000485   0.005155
    16  C    0.000000  -0.000000  -0.000000  -0.000180   0.005465   0.000692
    17  H    0.000003  -0.000005   0.000017  -0.000150  -0.000011  -0.000000
    18  H   -0.000042   0.004540  -0.000174   0.000016  -0.000000  -0.000000
    19  H    0.423951  -0.027847   0.004477  -0.000006   0.000000  -0.000000
    20  H   -0.027847   0.424321  -0.000036   0.000003  -0.000000  -0.000000
    21  H    0.004477  -0.000036   0.606916  -0.005677  -0.000004  -0.000000
    22  H   -0.000006   0.000003  -0.005677   0.594728  -0.000405  -0.000004
    23  H    0.000000  -0.000000  -0.000004  -0.000405   0.595697  -0.005647
    24  H   -0.000000  -0.000000  -0.000000  -0.000004  -0.005647   0.608017
    25  H   -0.000000  -0.000000  -0.000000  -0.000000   0.000003  -0.000047
    26  H   -0.000000  -0.000000  -0.000000  -0.000000  -0.000005   0.004498
    27  H    0.000000   0.000000  -0.000000  -0.000000   0.000015  -0.000172
    28  H    0.000000  -0.000000  -0.000000  -0.000015  -0.000148   0.000017
              25         26         27         28
     1  O    0.000000  -0.000000   0.000002   0.010145
     2  C   -0.000000  -0.000000  -0.000153  -0.007517
     3  C    0.000000   0.000000   0.000002   0.000645
     4  C   -0.000000  -0.000000  -0.000000  -0.000018
     5  C   -0.000000   0.000000   0.000000  -0.000000
     6  C    0.000000   0.000000   0.000000   0.000000
     7  N   -0.000000  -0.000000   0.000000  -0.000000
     8  C   -0.000000  -0.000000   0.000000   0.000001
     9  C   -0.000000  -0.000000  -0.000000  -0.000031
    10  C    0.000001   0.000006   0.004024  -0.049231
    11  C   -0.000194  -0.000093   0.000688   0.005592
    12  C    0.005485  -0.009003   0.005095   0.000480
    13  C   -0.024299  -0.024012  -0.043070   0.003904
    14  N    0.343117   0.343436  -0.007293  -0.000105
    15  C   -0.009047   0.005368   0.365870  -0.036043
    16  C   -0.000043  -0.000168  -0.033158   0.368754
    17  H   -0.000000  -0.000000  -0.000000  -0.000004
    18  H   -0.000000  -0.000000  -0.000000  -0.000000
    19  H   -0.000000  -0.000000   0.000000   0.000000
    20  H   -0.000000  -0.000000   0.000000  -0.000000
    21  H   -0.000000  -0.000000  -0.000000  -0.000000
    22  H   -0.000000  -0.000000  -0.000000  -0.000015
    23  H    0.000003  -0.000005   0.000015  -0.000148
    24  H   -0.000047   0.004498  -0.000172   0.000017
    25  H    0.425878  -0.027958   0.004577  -0.000005
    26  H   -0.027958   0.425195  -0.000048   0.000003
    27  H    0.004577  -0.000048   0.607253  -0.005739
    28  H   -0.000005   0.000003  -0.005739   0.603538
 Mulliken charges:
               1
     1  O   -0.529143
     2  C    0.301219
     3  C    0.031959
     4  C   -0.114367
     5  C   -0.137409
     6  C    0.270153
     7  N   -0.662036
     8  C   -0.139680
     9  C   -0.121127
    10  C    0.032601
    11  C   -0.119219
    12  C   -0.139052
    13  C    0.268300
    14  N   -0.662056
    15  C   -0.137021
    16  C   -0.114726
    17  H    0.106066
    18  H    0.102331
    19  H    0.283407
    20  H    0.283256
    21  H    0.102138
    22  H    0.110071
    23  H    0.109501
    24  H    0.101638
    25  H    0.282532
    26  H    0.282781
    27  H    0.102106
    28  H    0.105776
 Sum of Mulliken charges =  -0.00000
 Mulliken charges with hydrogens summed into heavy atoms:
               1
     1  O   -0.529143
     2  C    0.301219
     3  C    0.031959
     4  C   -0.008301
     5  C   -0.035078
     6  C    0.270153
     7  N   -0.095373
     8  C   -0.037542
     9  C   -0.011057
    10  C    0.032601
    11  C   -0.009718
    12  C   -0.037414
    13  C    0.268300
    14  N   -0.096742
    15  C   -0.034915
    16  C   -0.008950
 APT charges:
               1
     1  O    0.096447
     2  C   -0.497917
     3  C   -0.412898
     4  C   -0.559376
     5  C   -0.401901
     6  C    0.204275
     7  N   -1.319694
     8  C   -0.429134
     9  C   -0.567481
    10  C   -0.381452
    11  C   -0.580064
    12  C   -0.414767
    13  C    0.246163
    14  N   -1.512673
    15  C   -0.391321
    16  C   -0.575715
    17  H    0.479287
    18  H    0.795735
    19  H    0.681601
    20  H    0.966694
    21  H    0.534240
    22  H    0.230804
    23  H    0.230937
    24  H    0.529413
    25  H    1.034893
    26  H    0.769386
    27  H    0.778875
    28  H    0.465641
 Sum of APT charges =  -0.00000
 APT charges with hydrogens summed into heavy atoms:
               1
     1  O    0.096447
     2  C   -0.497917
     3  C   -0.412898
     4  C   -0.080088
     5  C    0.393834
     6  C    0.204275
     7  N    0.328601
     8  C    0.105107
     9  C   -0.336677
    10  C   -0.381452
    11  C   -0.349127
    12  C    0.114646
    13  C    0.246163
    14  N    0.291606
    15  C    0.387554
    16  C   -0.110074
 Electronic spatial extent (au):  <R**2>=           4741.1066
 Charge=              0.0000 electrons
 Dipole moment (field-independent basis, Debye):
    X=              0.5002    Y=             -6.0709    Z=             -1.9108  Tot=              6.3842
 Quadrupole moment (field-independent basis, Debye-Ang):
   XX=            -46.1119   YY=            -94.2160   ZZ=            -91.1883
   XY=              5.6781   XZ=              3.7130   YZ=              3.3745
 Traceless Quadrupole moment (field-independent basis, Debye-Ang):
   XX=             31.0602   YY=            -17.0439   ZZ=            -14.0162
   XY=              5.6781   XZ=              3.7130   YZ=              3.3745
 Octapole moment (field-independent basis, Debye-Ang**2):
  XXX=             51.1272  YYY=            -50.7515  ZZZ=             -1.7874  XYY=            -21.0344
  XXY=            -59.7549  XXZ=            -60.3280  XZZ=              4.2213  YZZ=             -0.7422
  YYZ=             -4.6415  XYZ=             27.1065
 Hexadecapole moment (field-independent basis, Debye-Ang**3):
 XXXX=          -3438.6658 YYYY=           -916.2594 ZZZZ=           -268.1766 XXXY=            117.7522
 XXXZ=            151.4084 YYYX=             54.2760 YYYZ=              9.6593 ZZZX=              2.2289
 ZZZY=              4.7579 XXYY=           -822.5669 XXZZ=           -899.4105 YYZZ=           -171.7574
 XXYZ=             92.7766 YYXZ=            -35.2975 ZZXY=             -3.6057
 N-N= 9.760493972739D+02 E-N=-3.550298749680D+03  KE= 6.809178885733D+02
  Exact polarizability:   0.000   0.000   0.000   0.000   0.000   0.000
 Approx polarizability: 359.051  -0.846 269.886  32.320   0.030 139.220
 D2PCM: PCM CHGder 2nd derivatives, FixD1E=F FixD2E=F DoIter=F DoCFld=F I1PDM=0
 Calling FoFJK, ICntrl=    100147 FMM=F ISym2X=0 I1Cent= 0 IOpClX= 0 NMat=1 NMatS=1 NMatT=0.
 ***** Axes restored to original set *****
 -------------------------------------------------------------------
 Center     Atomic                   Forces (Hartrees/Bohr)
 Number     Number              X              Y              Z
 -------------------------------------------------------------------
      1        8          -0.000912765   -0.014159197   -0.005106874
      2        6          -0.000719610   -0.000262240    0.000788351
      3        6           0.012419371   -0.002283258    0.002530368
      4        6          -0.015581109    0.005163037   -0.000522400
      5        6           0.008071288   -0.017853674    0.005693887
      6        6          -0.014661185    0.005909763   -0.014529370
      7        7           0.005032636   -0.001735497    0.006203137
      8        6           0.017187883    0.003697546   -0.001028686
      9        6          -0.012148316    0.009818732    0.002994355
     10        6          -0.011839436    0.001263079   -0.002558178
     11        6           0.012581576    0.008961522    0.002044029
     12        6          -0.014552270   -0.003247519    0.009032535
     13        6           0.009562620    0.018086040   -0.005509484
     14        7          -0.002649354   -0.006963673    0.002709808
     15        6          -0.007675589   -0.015553225   -0.009592817
     16        6           0.015137558    0.003324313    0.002646769
     17        1           0.001711043    0.002584007   -0.000301136
     18        1          -0.000618580    0.001777880    0.001378274
     19        1          -0.002226230   -0.002378420    0.000329659
     20        1           0.000914321    0.003225709   -0.001190382
     21        1          -0.001305948   -0.000111192    0.000933683
     22        1          -0.000041374   -0.001912193    0.001895926
     23        1          -0.000198978   -0.000225377   -0.002585503
     24        1           0.001617088   -0.001222341    0.000612576
     25        1          -0.000772237    0.002650540    0.002401262
     26        1           0.001856942   -0.000937330   -0.002536184
     27        1           0.001092764    0.000568143    0.001409683
     28        1          -0.001282108    0.001814826    0.001856711
 -------------------------------------------------------------------
 Cartesian Forces:  Max     0.018086040 RMS     0.006998162
 FormGI is forming the generalized inverse of G from B-inverse, IUseBI=4.

 GradGradGradGradGradGradGradGradGradGradGradGradGradGradGradGradGradGrad
 Berny optimization.
 Internal  Forces:  Max     0.015066520 RMS     0.003423572
 Search for a local minimum.
 Step number   1 out of a maximum of  148
 All quantities printed in internal units (Hartrees-Bohrs-Radians)
 Mixed Optimization -- RFO/linear search
 Second derivative matrix not updated -- analytic derivatives used.
 ITU=  0
     Eigenvalues ---    0.00353   0.00652   0.00671   0.01036   0.01514
     Eigenvalues ---    0.01539   0.01622   0.01656   0.01745   0.01763
     Eigenvalues ---    0.01791   0.01909   0.02021   0.02048   0.02186
     Eigenvalues ---    0.02214   0.02311   0.02380   0.02748   0.02757
     Eigenvalues ---    0.02863   0.02885   0.02966   0.02971   0.04756
     Eigenvalues ---    0.11105   0.11111   0.11462   0.11475   0.11809
     Eigenvalues ---    0.11820   0.12628   0.12638   0.13443   0.13530
     Eigenvalues ---    0.15323   0.15440   0.17713   0.17855   0.18531
     Eigenvalues ---    0.19139   0.19206   0.19493   0.19520   0.19559
     Eigenvalues ---    0.21661   0.21789   0.22266   0.24867   0.31798
     Eigenvalues ---    0.32040   0.32535   0.34468   0.35592   0.35601
     Eigenvalues ---    0.35783   0.35802   0.35925   0.35942   0.36347
     Eigenvalues ---    0.36428   0.38548   0.38614   0.41227   0.41318
     Eigenvalues ---    0.44301   0.44810   0.45517   0.45614   0.45962
     Eigenvalues ---    0.46066   0.46946   0.47057   0.47758   0.47862
     Eigenvalues ---    0.51551   0.51574   0.81013
 RFO step:  Lambda=-9.67430118D-03 EMin= 3.52756062D-03
 Linear search not attempted -- first point.
 Iteration  1 RMS(Cart)=  0.12235830 RMS(Int)=  0.00462726
 Iteration  2 RMS(Cart)=  0.00732362 RMS(Int)=  0.00041281
 Iteration  3 RMS(Cart)=  0.00003100 RMS(Int)=  0.00041259
 Iteration  4 RMS(Cart)=  0.00000000 RMS(Int)=  0.00041259
 Variable       Old X    -DE/DX   Delta X   Delta X   Delta X     New X
                                 (Linear)    (Quad)   (Total)
    R1        2.32138   0.01507   0.00000   0.01847   0.01847   2.33985
    R2        2.80683   0.00444   0.00000   0.00412   0.00412   2.81095
    R3        2.80437   0.00593   0.00000   0.00793   0.00793   2.81230
    R4        2.64129   0.00637   0.00000   0.01831   0.01824   2.65953
    R5        2.64210   0.00637   0.00000   0.01575   0.01571   2.65781
    R6        2.64218  -0.00794   0.00000  -0.02543  -0.02546   2.61671
    R7        2.05625  -0.00259   0.00000  -0.00552  -0.00552   2.05074
    R8        2.64023   0.01057   0.00000   0.02726   0.02731   2.66754
    R9        2.05410  -0.00010   0.00000  -0.00055  -0.00055   2.05355
   R10        2.64226  -0.00383   0.00000  -0.02886  -0.02886   2.61340
   R11        2.64124   0.00905   0.00000   0.02142   0.02149   2.66274
   R12        1.91799  -0.00245   0.00000  -0.00682  -0.00682   1.91117
   R13        1.91860  -0.00268   0.00000  -0.00740  -0.00740   1.91119
   R14        2.64397  -0.00665   0.00000  -0.01959  -0.01956   2.62441
   R15        2.05453  -0.00030   0.00000  -0.00127  -0.00127   2.05326
   R16        2.05383  -0.00152   0.00000  -0.00354  -0.00354   2.05029
   R17        2.64180   0.00606   0.00000   0.01552   0.01549   2.65729
   R18        2.64093   0.00638   0.00000   0.01798   0.01798   2.65892
   R19        2.64335  -0.00601   0.00000  -0.01872  -0.01876   2.62459
   R20        2.05334  -0.00133   0.00000  -0.00294  -0.00294   2.05040
   R21        2.64170   0.00849   0.00000   0.02094   0.02093   2.66263
   R22        2.05436  -0.00023   0.00000  -0.00111  -0.00111   2.05325
   R23        2.64338  -0.00329   0.00000  -0.02823  -0.02823   2.61515
   R24        2.64057   0.01017   0.00000   0.02645   0.02648   2.66705
   R25        1.91925  -0.00276   0.00000  -0.00777  -0.00777   1.91148
   R26        1.91848  -0.00248   0.00000  -0.00705  -0.00705   1.91143
   R27        2.64150  -0.00720   0.00000  -0.02391  -0.02387   2.61763
   R28        2.05404  -0.00007   0.00000  -0.00040  -0.00040   2.05364
   R29        2.05613  -0.00247   0.00000  -0.00536  -0.00536   2.05076
    A1        2.08398   0.00409   0.00000   0.01009   0.01009   2.09407
    A2        2.07778   0.00515   0.00000   0.01401   0.01401   2.09180
    A3        2.12142  -0.00923   0.00000  -0.02410  -0.02410   2.09732
    A4        2.06987   0.00190   0.00000   0.00221   0.00230   2.07217
    A5        2.12634   0.00251   0.00000   0.02587   0.02594   2.15228
    A6        2.08567  -0.00440   0.00000  -0.02817  -0.02833   2.05734
    A7        2.09603   0.00402   0.00000   0.02331   0.02313   2.11917
    A8        2.09826  -0.00373   0.00000  -0.02900  -0.02897   2.06928
    A9        2.08878  -0.00029   0.00000   0.00592   0.00595   2.09474
   A10        2.10728  -0.00095   0.00000  -0.00418  -0.00420   2.10308
   A11        2.07603   0.00230   0.00000   0.02032   0.02033   2.09636
   A12        2.09986  -0.00135   0.00000  -0.01613  -0.01612   2.08374
   A13        2.09843   0.00069   0.00000   0.00838   0.00686   2.10529
   A14        2.07090  -0.00132   0.00000  -0.00378  -0.00518   2.06571
   A15        2.09796   0.00126   0.00000   0.01215   0.01065   2.10861
   A16        1.99411   0.00195   0.00000   0.02968   0.02876   2.02287
   A17        1.99151   0.00215   0.00000   0.03064   0.02972   2.02123
   A18        1.96177  -0.00271   0.00000  -0.00183  -0.00310   1.95867
   A19        2.10956  -0.00133   0.00000  -0.00435  -0.00428   2.10528
   A20        2.09613  -0.00083   0.00000  -0.01153  -0.01157   2.08456
   A21        2.07744   0.00216   0.00000   0.01594   0.01590   2.09334
   A22        2.09259   0.00416   0.00000   0.02247   0.02242   2.11500
   A23        2.11528  -0.00383   0.00000  -0.02400  -0.02399   2.09129
   A24        2.07481  -0.00032   0.00000   0.00176   0.00177   2.07658
   A25        2.12584   0.00265   0.00000   0.02589   0.02576   2.15160
   A26        2.06844   0.00237   0.00000   0.00417   0.00407   2.07251
   A27        2.08870  -0.00503   0.00000  -0.03060  -0.03075   2.05795
   A28        2.09142   0.00447   0.00000   0.02343   0.02331   2.11473
   A29        2.11527  -0.00397   0.00000  -0.02405  -0.02405   2.09123
   A30        2.07648  -0.00050   0.00000   0.00055   0.00054   2.07703
   A31        2.10899  -0.00108   0.00000  -0.00327  -0.00333   2.10566
   A32        2.07811   0.00200   0.00000   0.01454   0.01457   2.09267
   A33        2.09605  -0.00092   0.00000  -0.01124  -0.01121   2.08484
   A34        2.09779   0.00110   0.00000   0.01167   0.01033   2.10812
   A35        2.07299  -0.00168   0.00000  -0.00586  -0.00722   2.06577
   A36        2.09835   0.00111   0.00000   0.00929   0.00792   2.10627
   A37        1.98692   0.00245   0.00000   0.03324   0.03222   2.01913
   A38        1.98993   0.00197   0.00000   0.03080   0.02977   2.01970
   A39        1.95726  -0.00273   0.00000  -0.00052  -0.00196   1.95530
   A40        2.10673  -0.00077   0.00000  -0.00375  -0.00368   2.10305
   A41        2.10009  -0.00143   0.00000  -0.01537  -0.01541   2.08468
   A42        2.07634   0.00220   0.00000   0.01914   0.01910   2.09545
   A43        2.09486   0.00422   0.00000   0.02395   0.02397   2.11883
   A44        2.09804  -0.00360   0.00000  -0.02728  -0.02730   2.07074
   A45        2.09019  -0.00062   0.00000   0.00342   0.00340   2.09359
    D1        0.54759  -0.00197   0.00000  -0.10229  -0.10234   0.44525
    D2       -2.53893  -0.00219   0.00000  -0.09946  -0.09941  -2.63835
    D3       -2.59240  -0.00220   0.00000  -0.10526  -0.10531  -2.69770
    D4        0.60426  -0.00241   0.00000  -0.10243  -0.10238   0.50188
    D5       -2.49149  -0.00218   0.00000  -0.10894  -0.10868  -2.60017
    D6        0.62874  -0.00287   0.00000  -0.13887  -0.13913   0.48960
    D7        0.64851  -0.00196   0.00000  -0.10599  -0.10572   0.54278
    D8       -2.51445  -0.00265   0.00000  -0.13591  -0.13617  -2.65063
    D9       -3.13005   0.00030   0.00000   0.01350   0.01345  -3.11660
   D10       -0.00435   0.00082   0.00000   0.03068   0.03045   0.02610
   D11       -0.04221   0.00073   0.00000   0.01247   0.01238  -0.02983
   D12        3.08349   0.00124   0.00000   0.02965   0.02938   3.11287
   D13        3.12895  -0.00090   0.00000  -0.02767  -0.02784   3.10112
   D14        0.02200  -0.00108   0.00000  -0.03527  -0.03527  -0.01327
   D15        0.04291  -0.00131   0.00000  -0.02577  -0.02586   0.01706
   D16       -3.06404  -0.00149   0.00000  -0.03337  -0.03329  -3.09733
   D17       -0.02523   0.00114   0.00000   0.03395   0.03380   0.00857
   D18        3.11085   0.00119   0.00000   0.03532   0.03529  -3.13705
   D19        3.13217   0.00066   0.00000   0.01719   0.01688  -3.13414
   D20       -0.01494   0.00071   0.00000   0.01855   0.01836   0.00342
   D21        3.04182   0.00159   0.00000   0.03544   0.03529   3.07710
   D22        0.09043  -0.00229   0.00000  -0.06507  -0.06495   0.02548
   D23       -0.09419   0.00153   0.00000   0.03394   0.03370  -0.06049
   D24       -3.04557  -0.00235   0.00000  -0.06657  -0.06655  -3.11212
   D25        2.80720  -0.00173   0.00000  -0.01883  -0.01876   2.78845
   D26        0.51624  -0.00179   0.00000  -0.07591  -0.07663   0.43961
   D27       -0.52756   0.00193   0.00000   0.08150   0.08222  -0.44534
   D28       -2.81852   0.00187   0.00000   0.02442   0.02435  -2.79417
   D29       -0.08975   0.00171   0.00000   0.05163   0.05168  -0.03807
   D30        3.04121   0.00216   0.00000   0.05811   0.05812   3.09933
   D31       -3.04119  -0.00210   0.00000  -0.04843  -0.04833  -3.08952
   D32        0.08977  -0.00166   0.00000  -0.04194  -0.04189   0.04788
   D33        0.02373   0.00007   0.00000  -0.00691  -0.00680   0.01693
   D34        3.13148   0.00017   0.00000  -0.00000   0.00006   3.13154
   D35       -3.10735  -0.00035   0.00000  -0.01315  -0.01310  -3.12045
   D36        0.00040  -0.00025   0.00000  -0.00625  -0.00624  -0.00584
   D37        3.13502  -0.00134   0.00000  -0.03700  -0.03709   3.09793
   D38       -0.00206  -0.00068   0.00000  -0.01973  -0.01981  -0.02187
   D39        0.01504  -0.00073   0.00000  -0.00717  -0.00729   0.00775
   D40       -3.12204  -0.00007   0.00000   0.01011   0.00999  -3.11205
   D41       -3.13732   0.00073   0.00000   0.02262   0.02218  -3.11514
   D42        0.01931   0.00037   0.00000   0.01539   0.01509   0.03440
   D43       -0.01663   0.00015   0.00000  -0.00594  -0.00594  -0.02257
   D44        3.14001  -0.00021   0.00000  -0.01318  -0.01303   3.12697
   D45       -0.04539   0.00172   0.00000   0.04304   0.04316  -0.00223
   D46        3.10553   0.00147   0.00000   0.03900   0.03917  -3.13849
   D47        3.09179   0.00106   0.00000   0.02608   0.02595   3.11774
   D48       -0.04048   0.00081   0.00000   0.02204   0.02196  -0.01852
   D49        3.03862   0.00125   0.00000   0.03062   0.03067   3.06929
   D50        0.07590  -0.00229   0.00000  -0.06554  -0.06526   0.01064
   D51       -0.11240   0.00151   0.00000   0.03485   0.03478  -0.07762
   D52       -3.07511  -0.00202   0.00000  -0.06132  -0.06115  -3.13626
   D53        2.80680  -0.00153   0.00000  -0.02376  -0.02361   2.78319
   D54        0.53101  -0.00181   0.00000  -0.08450  -0.08525   0.44576
   D55       -0.51629   0.00177   0.00000   0.07226   0.07301  -0.44328
   D56       -2.79208   0.00149   0.00000   0.01152   0.01137  -2.78071
   D57       -0.07738   0.00169   0.00000   0.05224   0.05217  -0.02522
   D58        3.07176   0.00179   0.00000   0.05011   0.04993   3.12169
   D59       -3.04004  -0.00184   0.00000  -0.04421  -0.04392  -3.08395
   D60        0.10910  -0.00174   0.00000  -0.04634  -0.04615   0.06296
   D61        0.04852  -0.00057   0.00000  -0.01661  -0.01674   0.03179
   D62       -3.10804  -0.00024   0.00000  -0.00967  -0.00982  -3.11786
   D63       -3.10051  -0.00068   0.00000  -0.01466  -0.01464  -3.11516
   D64        0.02611  -0.00035   0.00000  -0.00772  -0.00772   0.01839
         Item               Value     Threshold  Converged?
 Maximum Force            0.015067     0.000450     NO 
 RMS     Force            0.003424     0.000300     NO 
 Maximum Displacement     0.471056     0.001800     NO 
 RMS     Displacement     0.121991     0.001200     NO 
 Predicted change in Energy=-5.854487D-03
 GradGradGradGradGradGradGradGradGradGradGradGradGradGradGradGradGradGrad

                          Input orientation:                          
 ---------------------------------------------------------------------
 Center     Atomic      Atomic             Coordinates (Angstroms)
 Number     Number       Type             X           Y           Z
 ---------------------------------------------------------------------
      1          8           0       -0.103925   -2.629393   -0.891917
      2          6           0       -0.060455   -1.454211   -0.504386
      3          6           0       -1.314709   -0.663083   -0.387787
      4          6           0       -2.528532   -1.345647   -0.184307
      5          6           0       -3.732431   -0.667089   -0.097179
      6          6           0       -3.773238    0.738416   -0.221732
      7          7           0       -4.981121    1.411814   -0.211241
      8          6           0       -2.566804    1.423863   -0.466941
      9          6           0       -1.363269    0.734514   -0.537682
     10          6           0        1.248376   -0.836401   -0.157948
     11          6           0        1.395672    0.159780    0.823512
     12          6           0        2.646087    0.669912    1.147847
     13          6           0        3.804630    0.197464    0.499874
     14          7           0        5.041199    0.762250    0.758774
     15          6           0        3.659876   -0.794917   -0.493161
     16          6           0        2.409805   -1.308820   -0.796432
     17          1           0       -2.506991   -2.426900   -0.094347
     18          1           0       -4.656739   -1.215197    0.064483
     19          1           0       -4.935849    2.396819    0.013574
     20          1           0       -5.741247    0.945186    0.265534
     21          1           0       -2.583471    2.501434   -0.605232
     22          1           0       -0.451533    1.287779   -0.737155
     23          1           0        0.523754    0.526771    1.354883
     24          1           0        2.736493    1.437372    1.911640
     25          1           0        5.842061    0.190255    0.525116
     26          1           0        5.141352    1.203967    1.663186
     27          1           0        4.539709   -1.158550   -1.017250
     28          1           0        2.311300   -2.087387   -1.545983
 ---------------------------------------------------------------------
                    Distance matrix (angstroms):
                    1          2          3          4          5
     1  O    0.000000
     2  C    1.238193   0.000000
     3  C    2.363582   1.487492   0.000000
     4  C    2.833273   2.491112   1.407360   0.000000
     5  C    4.200988   3.777405   2.435128   1.384705   0.000000
     6  C    5.025450   4.321142   2.834808   2.427759   1.411603
     7  N    6.370378   5.702016   4.216508   3.690462   2.427772
     8  C    4.761855   3.816608   2.435026   2.784157   2.422291
     9  C    3.609335   2.547342   1.406450   2.410348   2.787734
    10  C    2.362678   1.488203   2.579200   3.811176   4.984055
    11  C    3.601524   2.547271   3.080668   4.322196   5.275304
    12  C    4.754852   3.816693   4.452297   5.710848   6.634995
    13  C    5.020458   4.321510   5.266509   6.554253   7.609942
    14  N    6.379681   5.703959   6.613906   7.914130   8.930412
    15  C    4.206008   3.778314   4.977447   6.220537   7.404009
    16  C    2.841104   2.491709   3.802101   4.976266   6.215130
    17  H    2.540049   2.664544   2.149115   1.085203   2.144445
    18  H    4.862383   4.637517   3.417388   2.146667   1.086693
    19  H    7.030663   6.234436   4.757810   4.454255   3.293633
    20  H    6.774711   6.214602   4.754745   3.971374   2.601217
    21  H    5.705763   4.692857   3.416315   3.870431   3.408485
    22  H    3.935610   2.779503   2.161711   3.399191   3.872386
    23  H    3.924725   2.778934   2.798678   3.897628   4.652838
    24  H    5.697937   4.692692   5.109943   6.313373   7.093032
    25  H    6.731504   6.213198   7.265048   8.539853   9.632922
    26  H    6.981127   6.230817   7.026599   8.291012   9.238169
    27  H    4.872620   4.638098   5.908970   7.119609   8.337648
    28  H    2.560251   2.666657   4.064234   5.082156   6.375184
                    6          7          8          9         10
     6  C    0.000000
     7  N    1.382952   0.000000
     8  C    1.409060   2.427849   0.000000
     9  C    2.430594   3.695152   1.388777   0.000000
    10  C    5.263148   6.622986   4.445208   3.071264   0.000000
    11  C    5.305185   6.580409   4.354812   3.129684   1.406178
    12  C    6.564158   7.782791   5.509103   4.349726   2.434682
    13  C    7.631345   8.897738   6.560027   5.298314   2.834791
    14  N    8.868837  10.090082   7.734457   6.534431   4.216820
    15  C    7.594469   8.922778   6.610235   5.251012   2.435040
    16  C    6.538462   7.897473   5.687070   4.298634   1.407039
    17  H    3.411573   4.568447   3.869209   3.391044   4.078788
    18  H    2.163122   2.661285   3.408060   3.874392   5.921431
    19  H    2.038955   1.011349   2.605746   3.978753   6.980529
    20  H    2.037950   1.011359   3.292831   4.456032   7.225526
    21  H    2.161216   2.662936   1.086537   2.148363   5.101398
    22  H    3.406051   4.561703   2.136798   1.084968   2.781603
    23  H    4.581992   5.791346   3.698022   2.680637   2.161475
    24  H    6.885958   8.004302   5.812297   4.827136   3.415806
    25  H    9.659826  10.916761   8.556575   7.303597   4.756315
    26  H    9.123573  10.296656   8.000092   6.882900   4.757614
    27  H    8.563669   9.894576   7.581176   6.217623   3.416878
    28  H    6.838158   8.197887   6.106481   4.741546   2.149747
                   11         12         13         14         15
    11  C    0.000000
    12  C    1.388872   0.000000
    13  C    2.430893   1.409006   0.000000
    14  N    3.695542   2.428264   1.383877   0.000000
    15  C    2.787776   2.422065   1.411344   2.429025   0.000000
    16  C    2.410285   2.784139   2.427928   3.692185   1.385188
    17  H    4.771180   6.139015   6.861264   8.238548   6.391609
    18  H    6.252868   7.619618   8.589525   9.921811   8.345878
    19  H    6.763764   7.858406   9.026053  10.137487   9.183161
    20  H    7.201653   8.438105   9.577983  10.795272   9.590864
    21  H    4.833035   5.811715   6.880216   7.938568   7.061010
    22  H    2.668376   3.678348   4.564423   5.717000   4.615283
    23  H    1.085025   2.137206   3.406410   4.562686   3.872646
    24  H    2.148038   1.086530   2.161335   2.663936   3.408638
    25  H    4.456494   3.291217   2.037600   1.011511   2.601803
    26  H    3.978128   2.603294   2.037933   1.011487   3.292437
    27  H    3.874451   3.408332   2.163512   2.663687   1.086741
    28  H    3.391555   3.869302   3.411174   4.569977   2.144195
                   16         17         18         19         20
    16  C    0.000000
    17  H    5.090964   0.000000
    18  H    7.119409   2.472826   0.000000
    19  H    8.267195   5.401784   3.623142   0.000000
    20  H    8.523378   4.686245   2.425662   1.679103   0.000000
    21  H    6.283900   4.955334   4.308168   2.434656   3.626526
    22  H    3.864337   4.293827   4.958958   4.680027   5.394796
    23  H    3.399226   4.473238   5.615789   5.924817   6.372753
    24  H    3.870652   6.815476   8.068953   7.961661   8.650086
    25  H    3.971661   8.771539  10.602465  11.013353  11.610784
    26  H    4.452546   8.646922  10.218160  10.280764  10.975033
    27  H    2.146586   7.219172   9.260022  10.172977  10.572100
    28  H    1.085218   5.043654   7.204712   8.663804   8.793270
                   21         22         23         24         25
    21  H    0.000000
    22  H    2.456729   0.000000
    23  H    4.170874   2.430420   0.000000
    24  H    5.980710   4.147530   2.456703   0.000000
    25  H    8.809586   6.512082   5.393157   3.622471   0.000000
    26  H    8.154878   6.086791   4.677164   2.428899   1.677441
    27  H    8.019036   5.565562   4.959357   4.309153   2.427815
    28  H    6.775033   4.436124   4.294668   4.955792   4.684376
                   26         27         28
    26  H    0.000000
    27  H    3.623286   0.000000
    28  H    5.398238   2.471458   0.000000
 Stoichiometry    C13H12N2O
 Framework group  C1[X(C13H12N2O)]
 Deg. of freedom    78
 Full point group                 C1      NOp   1
 Largest Abelian subgroup         C1      NOp   1
 Largest concise Abelian subgroup C1      NOp   1
                         Standard orientation:                         
[...]
    11    O    1  dxy    Ryd( 3d)     0.00318
    12    O    1  dxz    Ryd( 3d)     0.00001
    13    O    1  dyz    Ryd( 3d)     0.00334
    14    O    1  dx2y2  Ryd( 3d)     0.00348
    15    O    1  dz2    Ryd( 3d)     0.00106

    16    C    2  S      Cor( 1S)     1.99921
    17    C    2  S      Val( 2S)     0.80091
    18    C    2  S      Ryd( 3S)     0.00393
    19    C    2  S      Ryd( 4S)     0.00017
    20    C    2  px     Val( 2p)     0.99525
    21    C    2  px     Ryd( 3p)     0.00468
    22    C    2  py     Val( 2p)     0.80881
    23    C    2  py     Ryd( 3p)     0.01900
    24    C    2  pz     Val( 2p)     1.02150
    25    C    2  pz     Ryd( 3p)     0.00363
    26    C    2  dxy    Ryd( 3d)     0.00251
    27    C    2  dxz    Ryd( 3d)     0.00025
    28    C    2  dyz    Ryd( 3d)     0.00169
    29    C    2  dx2y2  Ryd( 3d)     0.00101
    30    C    2  dz2    Ryd( 3d)     0.00027

    31    C    3  S      Cor( 1S)     1.99899
    32    C    3  S      Val( 2S)     0.90947
    33    C    3  S      Ryd( 3S)     0.00123
    34    C    3  S      Ryd( 4S)     0.00006
    35    C    3  px     Val( 2p)     1.10273
    36    C    3  px     Ryd( 3p)     0.00536
    37    C    3  py     Val( 2p)     1.06050
    38    C    3  py     Ryd( 3p)     0.00501
    39    C    3  pz     Val( 2p)     0.98832
    40    C    3  pz     Ryd( 3p)     0.00172
    41    C    3  dxy    Ryd( 3d)     0.00066
    42    C    3  dxz    Ryd( 3d)     0.00082
    43    C    3  dyz    Ryd( 3d)     0.00050
    44    C    3  dx2y2  Ryd( 3d)     0.00074
    45    C    3  dz2    Ryd( 3d)     0.00040

    46    C    4  S      Cor( 1S)     1.99908
    47    C    4  S      Val( 2S)     0.95466
    48    C    4  S      Ryd( 3S)     0.00072
    49    C    4  S      Ryd( 4S)     0.00005
    50    C    4  px     Val( 2p)     1.05415
    51    C    4  px     Ryd( 3p)     0.00490
    52    C    4  py     Val( 2p)     1.17876
    53    C    4  py     Ryd( 3p)     0.00513
    54    C    4  pz     Val( 2p)     1.02991
    55    C    4  pz     Ryd( 3p)     0.00244
    56    C    4  dxy    Ryd( 3d)     0.00060
    57    C    4  dxz    Ryd( 3d)     0.00057
    58    C    4  dyz    Ryd( 3d)     0.00045
    59    C    4  dx2y2  Ryd( 3d)     0.00064
    60    C    4  dz2    Ryd( 3d)     0.00033

    61    C    5  S      Cor( 1S)     1.99905
    62    C    5  S      Val( 2S)     0.96084
    63    C    5  S      Ryd( 3S)     0.00064
    64    C    5  S      Ryd( 4S)     0.00004
    65    C    5  px     Val( 2p)     1.16424
    66    C    5  px     Ryd( 3p)     0.00441
    67    C    5  py     Val( 2p)     1.07119
    68    C    5  py     Ryd( 3p)     0.00358
    69    C    5  pz     Val( 2p)     1.04750
    70    C    5  pz     Ryd( 3p)     0.00145
    71    C    5  dxy    Ryd( 3d)     0.00055
    72    C    5  dxz    Ryd( 3d)     0.00053
    73    C    5  dyz    Ryd( 3d)     0.00047
    74    C    5  dx2y2  Ryd( 3d)     0.00069
    75    C    5  dz2    Ryd( 3d)     0.00036

    76    C    6  S      Cor( 1S)     1.99901
    77    C    6  S      Val( 2S)     0.84832
    78    C    6  S      Ryd( 3S)     0.00126
    79    C    6  S      Ryd( 4S)     0.00009
    80    C    6  px     Val( 2p)     0.93311
    81    C    6  px     Ryd( 3p)     0.00570
    82    C    6  py     Val( 2p)     1.03930
    83    C    6  py     Ryd( 3p)     0.00410
    84    C    6  pz     Val( 2p)     0.99944
    85    C    6  pz     Ryd( 3p)     0.00218
    86    C    6  dxy    Ryd( 3d)     0.00104
    87    C    6  dxz    Ryd( 3d)     0.00130
    88    C    6  dyz    Ryd( 3d)     0.00063
    89    C    6  dx2y2  Ryd( 3d)     0.00109
    90    C    6  dz2    Ryd( 3d)     0.00057

    91    N    7  S      Cor( 1S)     1.99948
    92    N    7  S      Val( 2S)     1.34864
    93    N    7  S      Ryd( 3S)     0.00013
    94    N    7  S      Ryd( 4S)     0.00001
    95    N    7  px     Val( 2p)     1.36635
    96    N    7  px     Ryd( 3p)     0.00252
    97    N    7  py     Val( 2p)     1.42882
    98    N    7  py     Ryd( 3p)     0.00217
    99    N    7  pz     Val( 2p)     1.61448
   100    N    7  pz     Ryd( 3p)     0.00369
   101    N    7  dxy    Ryd( 3d)     0.00029
   102    N    7  dxz    Ryd( 3d)     0.00098
   103    N    7  dyz    Ryd( 3d)     0.00028
   104    N    7  dx2y2  Ryd( 3d)     0.00070
   105    N    7  dz2    Ryd( 3d)     0.00065

   106    C    8  S      Cor( 1S)     1.99905
   107    C    8  S      Val( 2S)     0.96002
   108    C    8  S      Ryd( 3S)     0.00070
   109    C    8  S      Ryd( 4S)     0.00004
   110    C    8  px     Val( 2p)     1.06117
   111    C    8  px     Ryd( 3p)     0.00411
   112    C    8  py     Val( 2p)     1.16857
   113    C    8  py     Ryd( 3p)     0.00406
   114    C    8  pz     Val( 2p)     1.05272
   115    C    8  pz     Ryd( 3p)     0.00167
   116    C    8  dxy    Ryd( 3d)     0.00061
   117    C    8  dxz    Ryd( 3d)     0.00059
   118    C    8  dyz    Ryd( 3d)     0.00044
   119    C    8  dx2y2  Ryd( 3d)     0.00060
   120    C    8  dz2    Ryd( 3d)     0.00035

   121    C    9  S      Cor( 1S)     1.99908
   122    C    9  S      Val( 2S)     0.95402
   123    C    9  S      Ryd( 3S)     0.00074
   124    C    9  S      Ryd( 4S)     0.00005
   125    C    9  px     Val( 2p)     1.15110
   126    C    9  px     Ryd( 3p)     0.00408
   127    C    9  py     Val( 2p)     1.08688
   128    C    9  py     Ryd( 3p)     0.00397
   129    C    9  pz     Val( 2p)     1.03783
   130    C    9  pz     Ryd( 3p)     0.00187
   131    C    9  dxy    Ryd( 3d)     0.00063
   132    C    9  dxz    Ryd( 3d)     0.00056
   133    C    9  dyz    Ryd( 3d)     0.00050
   134    C    9  dx2y2  Ryd( 3d)     0.00061
   135    C    9  dz2    Ryd( 3d)     0.00034

   136    C   10  S      Cor( 1S)     1.99899
   137    C   10  S      Val( 2S)     0.91001
   138    C   10  S      Ryd( 3S)     0.00123
   139    C   10  S      Ryd( 4S)     0.00006
   140    C   10  px     Val( 2p)     1.10405
   141    C   10  px     Ryd( 3p)     0.00535
   142    C   10  py     Val( 2p)     1.05901
   143    C   10  py     Ryd( 3p)     0.00504
   144    C   10  pz     Val( 2p)     0.98476
   145    C   10  pz     Ryd( 3p)     0.00169
   146    C   10  dxy    Ryd( 3d)     0.00067
   147    C   10  dxz    Ryd( 3d)     0.00083
   148    C   10  dyz    Ryd( 3d)     0.00050
   149    C   10  dx2y2  Ryd( 3d)     0.00075
   150    C   10  dz2    Ryd( 3d)     0.00040

   151    C   11  S      Cor( 1S)     1.99908
   152    C   11  S      Val( 2S)     0.95436
   153    C   11  S      Ryd( 3S)     0.00074
   154    C   11  S      Ryd( 4S)     0.00005
   155    C   11  px     Val( 2p)     1.15092
   156    C   11  px     Ryd( 3p)     0.00408
   157    C   11  py     Val( 2p)     1.08718
   158    C   11  py     Ryd( 3p)     0.00397
   159    C   11  pz     Val( 2p)     1.03688
   160    C   11  pz     Ryd( 3p)     0.00189
   161    C   11  dxy    Ryd( 3d)     0.00063
   162    C   11  dxz    Ryd( 3d)     0.00056
   163    C   11  dyz    Ryd( 3d)     0.00050
   164    C   11  dx2y2  Ryd( 3d)     0.00061
   165    C   11  dz2    Ryd( 3d)     0.00034

   166    C   12  S      Cor( 1S)     1.99905
   167    C   12  S      Val( 2S)     0.96031
   168    C   12  S      Ryd( 3S)     0.00070
   169    C   12  S      Ryd( 4S)     0.00004
   170    C   12  px     Val( 2p)     1.06059
   171    C   12  px     Ryd( 3p)     0.00414
   172    C   12  py     Val( 2p)     1.16946
   173    C   12  py     Ryd( 3p)     0.00401
   174    C   12  pz     Val( 2p)     1.05108
   175    C   12  pz     Ryd( 3p)     0.00169
   176    C   12  dxy    Ryd( 3d)     0.00062
   177    C   12  dxz    Ryd( 3d)     0.00058
   178    C   12  dyz    Ryd( 3d)     0.00044
   179    C   12  dx2y2  Ryd( 3d)     0.00061
   180    C   12  dz2    Ryd( 3d)     0.00035

   181    C   13  S      Cor( 1S)     1.99901
   182    C   13  S      Val( 2S)     0.84855
   183    C   13  S      Ryd( 3S)     0.00128
   184    C   13  S      Ryd( 4S)     0.00009
   185    C   13  px     Val( 2p)     0.93912
   186    C   13  px     Ryd( 3p)     0.00543
   187    C   13  py     Val( 2p)     1.03338
   188    C   13  py     Ryd( 3p)     0.00442
   189    C   13  pz     Val( 2p)     0.99771
   190    C   13  pz     Ryd( 3p)     0.00214
   191    C   13  dxy    Ryd( 3d)     0.00114
   192    C   13  dxz    Ryd( 3d)     0.00124
   193    C   13  dyz    Ryd( 3d)     0.00070
   194    C   13  dx2y2  Ryd( 3d)     0.00100
   195    C   13  dz2    Ryd( 3d)     0.00057

   196    N   14  S      Cor( 1S)     1.99948
   197    N   14  S      Val( 2S)     1.34862
   198    N   14  S      Ryd( 3S)     0.00012
   199    N   14  S      Ryd( 4S)     0.00001
   200    N   14  px     Val( 2p)     1.33318
   201    N   14  px     Ryd( 3p)     0.00218
   202    N   14  py     Val( 2p)     1.46361
   203    N   14  py     Ryd( 3p)     0.00253
   204    N   14  pz     Val( 2p)     1.61101
   205    N   14  pz     Ryd( 3p)     0.00364
   206    N   14  dxy    Ryd( 3d)     0.00071
   207    N   14  dxz    Ryd( 3d)     0.00038
   208    N   14  dyz    Ryd( 3d)     0.00088
   209    N   14  dx2y2  Ryd( 3d)     0.00029
   210    N   14  dz2    Ryd( 3d)     0.00064

   211    C   15  S      Cor( 1S)     1.99905
   212    C   15  S      Val( 2S)     0.96110
   213    C   15  S      Ryd( 3S)     0.00065
   214    C   15  S      Ryd( 4S)     0.00004
   215    C   15  px     Val( 2p)     1.16449
   216    C   15  px     Ryd( 3p)     0.00447
   217    C   15  py     Val( 2p)     1.07162
   218    C   15  py     Ryd( 3p)     0.00357
   219    C   15  pz     Val( 2p)     1.04557
   220    C   15  pz     Ryd( 3p)     0.00140
   221    C   15  dxy    Ryd( 3d)     0.00054
   222    C   15  dxz    Ryd( 3d)     0.00053
   223    C   15  dyz    Ryd( 3d)     0.00048
   224    C   15  dx2y2  Ryd( 3d)     0.00069
   225    C   15  dz2    Ryd( 3d)     0.00036

   226    C   16  S      Cor( 1S)     1.99908
   227    C   16  S      Val( 2S)     0.95493
   228    C   16  S      Ryd( 3S)     0.00073
   229    C   16  S      Ryd( 4S)     0.00005
   230    C   16  px     Val( 2p)     1.05343
   231    C   16  px     Ryd( 3p)     0.00492
   232    C   16  py     Val( 2p)     1.18115
   233    C   16  py     Ryd( 3p)     0.00518
   234    C   16  pz     Val( 2p)     1.02777
   235    C   16  pz     Ryd( 3p)     0.00240
   236    C   16  dxy    Ryd( 3d)     0.00060
   237    C   16  dxz    Ryd( 3d)     0.00057
   238    C   16  dyz    Ryd( 3d)     0.00044
   239    C   16  dx2y2  Ryd( 3d)     0.00065
   240    C   16  dz2    Ryd( 3d)     0.00033

   241    H   17  S      Val( 1S)     0.74558
   242    H   17  S      Ryd( 2S)     0.00241
   243    H   17  px     Ryd( 2p)     0.00008
   244    H   17  py     Ryd( 2p)     0.00037
   245    H   17  pz     Ryd( 2p)     0.00015

   246    H   18  S      Val( 1S)     0.75032
   247    H   18  S      Ryd( 2S)     0.00096
   248    H   18  px     Ryd( 2p)     0.00028
   249    H   18  py     Ryd( 2p)     0.00016
   250    H   18  pz     Ryd( 2p)     0.00016

   251    H   19  S      Val( 1S)     0.56836
   252    H   19  S      Ryd( 2S)     0.00125
   253    H   19  px     Ryd( 2p)     0.00020
   254    H   19  py     Ryd( 2p)     0.00062
   255    H   19  pz     Ryd( 2p)     0.00039

   256    H   20  S      Val( 1S)     0.56859
   257    H   20  S      Ryd( 2S)     0.00128
   258    H   20  px     Ryd( 2p)     0.00042
   259    H   20  py     Ryd( 2p)     0.00024
   260    H   20  pz     Ryd( 2p)     0.00054

   261    H   21  S      Val( 1S)     0.74936
   262    H   21  S      Ryd( 2S)     0.00096
   263    H   21  px     Ryd( 2p)     0.00006
   264    H   21  py     Ryd( 2p)     0.00036
   265    H   21  pz     Ryd( 2p)     0.00017

   266    H   22  S      Val( 1S)     0.74874
   267    H   22  S      Ryd( 2S)     0.00111
   268    H   22  px     Ryd( 2p)     0.00028
   269    H   22  py     Ryd( 2p)     0.00015
   270    H   22  pz     Ryd( 2p)     0.00017

   271    H   23  S      Val( 1S)     0.74826
   272    H   23  S      Ryd( 2S)     0.00109
   273    H   23  px     Ryd( 2p)     0.00028
   274    H   23  py     Ryd( 2p)     0.00015
   275    H   23  pz     Ryd( 2p)     0.00016

   276    H   24  S      Val( 1S)     0.74903
   277    H   24  S      Ryd( 2S)     0.00094
   278    H   24  px     Ryd( 2p)     0.00006
   279    H   24  py     Ryd( 2p)     0.00036
   280    H   24  pz     Ryd( 2p)     0.00017

   281    H   25  S      Val( 1S)     0.56778
   282    H   25  S      Ryd( 2S)     0.00123
   283    H   25  px     Ryd( 2p)     0.00046
   284    H   25  py     Ryd( 2p)     0.00036
   285    H   25  pz     Ryd( 2p)     0.00038

   286    H   26  S      Val( 1S)     0.56840
   287    H   26  S      Ryd( 2S)     0.00131
   288    H   26  px     Ryd( 2p)     0.00018
   289    H   26  py     Ryd( 2p)     0.00048
   290    H   26  pz     Ryd( 2p)     0.00055

   291    H   27  S      Val( 1S)     0.74979
   292    H   27  S      Ryd( 2S)     0.00096
   293    H   27  px     Ryd( 2p)     0.00027
   294    H   27  py     Ryd( 2p)     0.00015
   295    H   27  pz     Ryd( 2p)     0.00016

   296    H   28  S      Val( 1S)     0.74501
   297    H   28  S      Ryd( 2S)     0.00242
   298    H   28  px     Ryd( 2p)     0.00008
   299    H   28  py     Ryd( 2p)     0.00037
   300    H   28  pz     Ryd( 2p)     0.00015

 WARNING:  1 low occupancy (<1.9990e) core orbital  found on  C    3
           1 low occupancy (<1.9990e) core orbital  found on  C   10


 Summary of Natural Population Analysis:                  
                                                          
                                       Natural Population 
                Natural  -----------------------------------------------
    Atom  No    Charge         Core      Valence    Rydberg      Total
 -----------------------------------------------------------------------
      O    1   -0.72606      1.99982     6.71032    0.01593     8.72606
      C    2    0.33719      1.99921     3.62647    0.03714     5.66281
      C    3   -0.07651      1.99899     4.06101    0.01651     6.07651
      C    4   -0.23239      1.99908     4.21748    0.01583     6.23239
      C    5   -0.25554      1.99905     4.24377    0.01273     6.25554
      C    6    0.16284      1.99901     3.82016    0.01798     5.83716
      N    7   -0.76919      1.99948     5.75830    0.01141     7.76919
      C    8   -0.25470      1.99905     4.24248    0.01317     6.25470
      C    9   -0.24227      1.99908     4.22983    0.01336     6.24227
      C   10   -0.07333      1.99899     4.05783    0.01651     6.07333
      C   11   -0.24181      1.99908     4.22935    0.01337     6.24181
      C   12   -0.25366      1.99905     4.24144    0.01317     6.25366
      C   13    0.16423      1.99901     3.81876    0.01800     5.83577
      N   14   -0.76728      1.99948     5.75643    0.01137     7.76728
      C   15   -0.25457      1.99905     4.24278    0.01274     6.25457
      C   16   -0.23223      1.99908     4.21729    0.01586     6.23223
      H   17    0.25142      0.00000     0.74558    0.00301     0.74858
      H   18    0.24813      0.00000     0.75032    0.00155     0.75187
      H   19    0.42919      0.00000     0.56836    0.00245     0.57081
      H   20    0.42893      0.00000     0.56859    0.00248     0.57107
      H   21    0.24909      0.00000     0.74936    0.00155     0.75091
      H   22    0.24956      0.00000     0.74874    0.00170     0.75044
      H   23    0.25006      0.00000     0.74826    0.00169     0.74994
      H   24    0.24944      0.00000     0.74903    0.00154     0.75056
      H   25    0.42978      0.00000     0.56778    0.00244     0.57022
      H   26    0.42909      0.00000     0.56840    0.00251     0.57091
      H   27    0.24865      0.00000     0.74979    0.00155     0.75135
      H   28    0.25196      0.00000     0.74501    0.00302     0.74804
 =======================================================================
   * Total *   -0.00000     31.98651    79.73290    0.28059   112.00000

                                 Natural Population      
 --------------------------------------------------------
   Core                      31.98651 ( 99.9578% of  32)
   Valence                   79.73290 ( 99.6661% of  80)
   Natural Minimal Basis    111.71941 ( 99.7495% of 112)
   Natural Rydberg Basis      0.28059 (  0.2505% of 112)
 --------------------------------------------------------

    Atom  No          Natural Electron Configuration
 ----------------------------------------------------------------------------
      O    1      [core]2S( 1.69)2p( 5.02)3d( 0.01)
      C    2      [core]2S( 0.80)2p( 2.83)3p( 0.03)3d( 0.01)
      C    3      [core]2S( 0.91)2p( 3.15)3p( 0.01)
      C    4      [core]2S( 0.95)2p( 3.26)3p( 0.01)
      C    5      [core]2S( 0.96)2p( 3.28)3p( 0.01)
      C    6      [core]2S( 0.85)2p( 2.97)3p( 0.01)
      N    7      [core]2S( 1.35)2p( 4.41)3p( 0.01)
      C    8      [core]2S( 0.96)2p( 3.28)3p( 0.01)
      C    9      [core]2S( 0.95)2p( 3.28)3p( 0.01)
      C   10      [core]2S( 0.91)2p( 3.15)3p( 0.01)
      C   11      [core]2S( 0.95)2p( 3.27)3p( 0.01)
      C   12      [core]2S( 0.96)2p( 3.28)3p( 0.01)
      C   13      [core]2S( 0.85)2p( 2.97)3p( 0.01)
      N   14      [core]2S( 1.35)2p( 4.41)3p( 0.01)
      C   15      [core]2S( 0.96)2p( 3.28)3p( 0.01)
      C   16      [core]2S( 0.95)2p( 3.26)3p( 0.01)
      H   17            1S( 0.75)
      H   18            1S( 0.75)
      H   19            1S( 0.57)
      H   20            1S( 0.57)
      H   21            1S( 0.75)
      H   22            1S( 0.75)
      H   23            1S( 0.75)
      H   24            1S( 0.75)
      H   25            1S( 0.57)
      H   26            1S( 0.57)
      H   27            1S( 0.75)
      H   28            1S( 0.75)


 NBO analysis skipped by request.
 1\1\GINC-DRG2-W012\SP\RB3LYP TD-FC\6-31G(d,p)\C13H12N2O1\QDUEZ\21-Jul-
 2024\0\\# TD(NStates=10, Root=1) B3LYP/6-31G** SCRF=(Solvent=water) vo
 lume pop=NPA density=current Geom=AllCheck Guess=Read\\ZLSMCQSGRWNEGX-
 UHFFFAOYSA-N_conf_0\\0,1\O,0,-0.1012392064,-2.5803743123,-0.9244012122
 \C,0,-0.0568762538,-1.4100551947,-0.518911901\C,0,-1.3177092805,-0.631
 1291826,-0.3827343743\C,0,-2.5243653877,-1.3357616188,-0.2057499528\C,
 0,-3.7408119965,-0.6807860656,-0.1152590158\C,0,-3.8071539526,0.726031
 7335,-0.2288217729\N,0,-5.0221944735,1.3795067554,-0.2008379991\C,0,-2
 .6067789129,1.4369229085,-0.4349665208\C,0,-1.3912809067,0.7692741152,
 -0.5034550817\C,0,1.256435269,-0.8005963605,-0.1741221548\C,0,1.421255
 6317,0.2155687463,0.7857159034\C,0,2.6804149168,0.6962744297,1.1194049
 38\C,0,3.8350181938,0.1855637875,0.4909537006\N,0,5.0820620636,0.70835
 66591,0.7655875881\C,0,3.6769641531,-0.8423015014,-0.4657096006\C,0,2.
 4171241554,-1.326760261,-0.7739278199\H,0,-2.4838126069,-2.4174589876,
 -0.1297064637\H,0,-4.6558798343,-1.2458228229,0.0405196863\H,0,-5.0040
 831144,2.365741669,0.0188183814\H,0,-5.7916160691,0.889918454,0.234441
 5965\H,0,-2.6397019768,2.5170491377,-0.5475039808\H,0,-0.489735627,1.3
 449789273,-0.6824918662\H,0,0.5568018245,0.613511651,1.3059845153\H,0,
 2.7824593604,1.4693566398,1.8760080224\H,0,5.8784303338,0.1269740327,0
 .5441500137\H,0,5.1848532506,1.2068189063,1.6386131085\H,0,4.555254607
 7,-1.2526013656,-0.9568289382\H,0,2.3061658388,-2.1282008797,-1.497023
 9446\\Version=ES64L-G16RevA.03\State=1-A\HF=-687.3880674\RMSD=2.815e-0
 9\Dipole=0.2830093,3.335174,1.959641\Quadrupole=38.1723686,-20.5473648
 ,-17.6250039,-6.3568527,2.1032355,0.9138026\PG=C01 [X(C13H12N2O1)]\\@


 HE THAT RISETH LATE MUST TROT ALL DAY.

                  -- BENJAMIN FRANKLIN
 Job cpu time:       0 days  0 hours 44 minutes 14.6 seconds.
 Elapsed time:       0 days  0 hours 15 minutes 14.4 seconds.
 File lengths (MBytes):  RWF=    766 Int=      0 D2E=      0 Chk=     47 Scr=      1
 Normal termination of Gaussian 16 at Sun Jul 21 13:33:56 2024.
