 Entering Gaussian System, Link 0=g16
 Initial command:
 /opt/sw/arch/manual/gaussian/G16_A03/g16/l1.exe "/scratch/1381529/Gau-185005.inp" -scrdir="/scratch/1381529/"
 Entering Link 1 = /opt/sw/arch/manual/gaussian/G16_A03/g16/l1.exe PID=    185006.
  
 Copyright (c) 1988,1990,1992,1993,1995,1998,2003,2009,2016,
            Gaussian, Inc.  All Rights Reserved.
  
 This is part of the Gaussian(R) 16 program.  It is based on
 the Gaussian(R) 09 system (copyright 2009, Gaussian, Inc.),
 the Gaussian(R) 03 system (copyright 2003, Gaussian, Inc.),
 the Gaussian(R) 98 system (copyright 1998, Gaussian, Inc.),
 the Gaussian(R) 94 system (copyright 1995, Gaussian, Inc.),
 the Gaussian 92(TM) system (copyright 1992, Gaussian, Inc.),
 the Gaussian 90(TM) system (copyright 1990, Gaussian, Inc.),
 the Gaussian 88(TM) system (copyright 1988, Gaussian, Inc.),
 the Gaussian 86(TM) system (copyright 1986, Carnegie Mellon
 University), and the Gaussian 82(TM) system (copyright 1983,
 Carnegie Mellon University). Gaussian is a federally registered
 trademark of Gaussian, Inc.
  
 This software contains proprietary and confidential information,
 including trade secrets, belonging to Gaussian, Inc.
  
 This software is provided under written license and may be
 used, copied, transmitted, or stored only in accord with that
 written license.
  
 The following legend is applicable only to US Government
 contracts under FAR:
  
                    RESTRICTED RIGHTS LEGEND
  
 Use, reproduction and disclosure by the US Government is
 subject to restrictions as set forth in subparagraphs (a)
 and (c) of the Commercial Computer Software - Restricted
 Rights clause in FAR 52.227-19.
  
 Gaussian, Inc.
 340 Quinnipiac St., Bldg. 40, Wallingford CT 06492
  
  
 ---------------------------------------------------------------
 Warning -- This program may not be used in any manner that
 competes with the business of Gaussian, Inc. or will provide
 assistance to any competitor of Gaussian, Inc.  The licensee
 of this program is prohibited from giving any competitor of
 Gaussian, Inc. access to this program.  By using this program,
 the user acknowledges that Gaussian, Inc. is engaged in the
 business of creating and licensing software in the field of
 computational chemistry and represents and warrants to the
 licensee that it is not a competitor of Gaussian, Inc. and that
 it will not use this program in any manner prohibited above.
 ---------------------------------------------------------------
  

 Cite this work as:
 Gaussian 16, Revision A.03,
 M. J. Frisch, G. W. Trucks, H. B. Schlegel, G. E. Scuseria, 
 M. A. Robb, J. R. Cheeseman, G. Scalmani, V. Barone, 
 G. A. Petersson, H. Nakatsuji, X. Li, M. Caricato, A. V. Marenich, 
 J. Bloino, B. G. Janesko, R. Gomperts, B. Mennucci, H. P. Hratchian, 
 J. V. Ortiz, A. F. Izmaylov, J. L. Sonnenberg, D. Williams-Young, 
 F. Ding, F. Lipparini, F. Egidi, J. Goings, B. Peng, A. Petrone, 
 T. Henderson, D. Ranasinghe, V. G. Zakrzewski, J. Gao, N. Rega, 
 G. Zheng, W. Liang, M. Hada, M. Ehara, K. Toyota, R. Fukuda, 
 J. Hasegawa, M. Ishida, T. Nakajima, Y. Honda, O. Kitao, H. Nakai, 
 T. Vreven, K. Throssell, J. A. Montgomery, Jr., J. E. Peralta, 
 F. Ogliaro, M. J. Bearpark, J. J. Heyd, E. N. Brothers, K. N. Kudin, 
 V. N. Staroverov, T. A. Keith, R. Kobayashi, J. Normand, 
 K. Raghavachari, A. P. Rendell, J. C. Burant, S. S. Iyengar, 
 J. Tomasi, M. Cossi, J. M. Millam, M. Klene, C. Adamo, R. Cammi, 
 J. W. Ochterski, R. L. Martin, K. Morokuma, O. Farkas, 
 J. B. Foresman, and D. J. Fox, Gaussian, Inc., Wallingford CT, 2016.
 
 ******************************************
 Gaussian 16:  ES64L-G16RevA.03 25-Dec-2016
                21-Jul-2024 
 ******************************************
 %nprocshared=4
 Will use up to    4 processors via shared memory.
 %mem=8GB
 %Chk=ZLSMCQSGRWNEGX-UHFFFAOYSA-N_conf_2_0.chk
 -------------------------------------------------------
 # opt=CalcFc B3LYP/6-31G** SCRF=(Solvent=water) scf=xqc
 -------------------------------------------------------
 1/10=4,18=20,19=15,26=3,38=1/1,3;
 2/9=110,12=2,17=6,18=5,40=1/2;
 3/5=1,6=6,7=101,11=2,25=1,30=1,70=2201,71=2,72=1,74=-5,140=1/1,2,3;
 4//1;
 5/5=2,8=3,13=1,38=5,53=1/2,8;
 8/6=4,10=90,11=11/1;
 11/6=1,8=1,9=11,15=111,16=1/1,2,10;
 10/6=1,13=1/2;
 6/7=2,8=2,9=2,10=2,28=1/1;
 7/10=1,18=20,25=1/1,2,3,16;
 1/10=4,18=20,19=15,26=3/3(2);
 2/9=110/2;
 99//99;
 2/9=110/2;
 3/5=1,6=6,7=101,11=2,25=1,30=1,70=2205,71=1,72=1,74=-5/1,2,3;
 4/5=5,16=3,69=1/1;
 5/5=2,8=3,13=1,38=5,53=1/2,8;
 7//1,2,3,16;
 1/18=20,19=15,26=3/3(-5);
 2/9=110/2;
 6/7=2,8=2,9=2,10=2,19=2,28=1/1;
 99/9=1/99;
 ----------------------------------
 ZLSMCQSGRWNEGX-UHFFFAOYSA-N_conf_2
 ----------------------------------
 Symbolic Z-matrix:
 Charge =  0 Multiplicity = 1
 O                     0.15602  -2.64365  -0.61508 
 C                     0.08678  -1.47046  -0.25753 
 C                    -1.24399  -0.87779   0.03129 
 C                    -2.34801  -1.32437  -0.70025 
 C                    -3.61778  -0.7981   -0.44427 
 C                    -3.79717   0.19746   0.51945 
 N                    -5.08402   0.63183   0.85173 
 C                    -2.70255   0.57986   1.29997 
 C                    -1.42778   0.0589    1.0528 
 C                     1.33582  -0.67814  -0.12424 
 C                     2.50491  -1.33406   0.27124 
 C                     3.70156  -0.6213    0.39288 
 C                     3.741     0.75437   0.15187 
 N                     4.96201   1.43565   0.15961 
 C                     2.58654   1.38565  -0.31967 
 C                     1.38407   0.68161  -0.44583 
 H                    -2.22639  -2.09299  -1.46083 
 H                    -4.46787  -1.17932  -1.00425 
 H                    -5.75436   0.56063   0.09246 
 H                    -5.11348   1.53704   1.30975 
 H                    -2.83587   1.2831    2.11827 
 H                    -0.60111   0.37055   1.68552 
 H                     2.49178  -2.40352   0.4716 
 H                     4.60567  -1.15531   0.67388 
 H                     4.87879   2.43954   0.28346 
 H                     5.66067   1.027     0.77263 
 H                     2.61645   2.43457  -0.60393 
 H                     0.50833   1.20126  -0.82517 
 

 GradGradGradGradGradGradGradGradGradGradGradGradGradGradGradGradGradGrad
 Berny optimization.
 Initialization pass.
                           ----------------------------
                           !    Initial Parameters    !
                           ! (Angstroms and Degrees)  !
 --------------------------                            --------------------------
 ! Name  Definition              Value          Derivative Info.                !
 --------------------------------------------------------------------------------
 ! R1    R(1,2)                  1.2284         calculate D2E/DX2 analytically  !
 ! R2    R(2,3)                  1.4851         calculate D2E/DX2 analytically  !
 ! R3    R(2,10)                 1.4851         calculate D2E/DX2 analytically  !
 ! R4    R(3,4)                  1.3977         calculate D2E/DX2 analytically  !
 ! R5    R(3,9)                  1.3981         calculate D2E/DX2 analytically  !
 ! R6    R(4,5)                  1.3981         calculate D2E/DX2 analytically  !
 ! R7    R(4,17)                 1.0881         calculate D2E/DX2 analytically  !
 ! R8    R(5,6)                  1.3972         calculate D2E/DX2 analytically  !
 ! R9    R(5,18)                 1.087          calculate D2E/DX2 analytically  !
 ! R10   R(6,7)                  1.3982         calculate D2E/DX2 analytically  !
 ! R11   R(6,8)                  1.3977         calculate D2E/DX2 analytically  !
 ! R12   R(7,19)                 1.0153         calculate D2E/DX2 analytically  !
 ! R13   R(7,20)                 1.0149         calculate D2E/DX2 analytically  !
 ! R14   R(8,9)                  1.3991         calculate D2E/DX2 analytically  !
 ! R15   R(8,21)                 1.0872         calculate D2E/DX2 analytically  !
 ! R16   R(9,22)                 1.0867         calculate D2E/DX2 analytically  !
 ! R17   R(10,11)                1.3977         calculate D2E/DX2 analytically  !
 ! R18   R(10,16)                1.3981         calculate D2E/DX2 analytically  !
 ! R19   R(11,12)                1.3981         calculate D2E/DX2 analytically  !
 ! R20   R(11,23)                1.0881         calculate D2E/DX2 analytically  !
 ! R21   R(12,13)                1.3972         calculate D2E/DX2 analytically  !
 ! R22   R(12,24)                1.087          calculate D2E/DX2 analytically  !
 ! R23   R(13,14)                1.3982         calculate D2E/DX2 analytically  !
 ! R24   R(13,15)                1.3977         calculate D2E/DX2 analytically  !
 ! R25   R(14,25)                1.0149         calculate D2E/DX2 analytically  !
 ! R26   R(14,26)                1.0153         calculate D2E/DX2 analytically  !
 ! R27   R(15,16)                1.3991         calculate D2E/DX2 analytically  !
 ! R28   R(15,27)                1.0872         calculate D2E/DX2 analytically  !
 ! R29   R(16,28)                1.0867         calculate D2E/DX2 analytically  !
 ! A1    A(1,2,3)              119.2247         calculate D2E/DX2 analytically  !
 ! A2    A(1,2,10)             119.2248         calculate D2E/DX2 analytically  !
 ! A3    A(3,2,10)             121.5506         calculate D2E/DX2 analytically  !
 ! A4    A(2,3,4)              118.5883         calculate D2E/DX2 analytically  !
 ! A5    A(2,3,9)              121.82           calculate D2E/DX2 analytically  !
 ! A6    A(4,3,9)              119.5151         calculate D2E/DX2 analytically  !
 ! A7    A(3,4,5)              120.0855         calculate D2E/DX2 analytically  !
 ! A8    A(3,4,17)             120.2152         calculate D2E/DX2 analytically  !
 ! A9    A(5,4,17)             119.6931         calculate D2E/DX2 analytically  !
 ! A10   A(4,5,6)              120.7374         calculate D2E/DX2 analytically  !
 ! A11   A(4,5,18)             118.9422         calculate D2E/DX2 analytically  !
 ! A12   A(6,5,18)             120.3197         calculate D2E/DX2 analytically  !
 ! A13   A(5,6,7)              120.2282         calculate D2E/DX2 analytically  !
 ! A14   A(5,6,8)              118.6574         calculate D2E/DX2 analytically  !
 ! A15   A(7,6,8)              120.2029         calculate D2E/DX2 analytically  !
 ! A16   A(6,7,19)             114.0873         calculate D2E/DX2 analytically  !
 ! A17   A(6,7,20)             114.2694         calculate D2E/DX2 analytically  !
 ! A18   A(19,7,20)            112.387          calculate D2E/DX2 analytically  !
 ! A19   A(6,8,9)              120.865          calculate D2E/DX2 analytically  !
 ! A20   A(6,8,21)             120.0826         calculate D2E/DX2 analytically  !
 ! A21   A(9,8,21)             119.0495         calculate D2E/DX2 analytically  !
 ! A22   A(3,9,8)              119.889          calculate D2E/DX2 analytically  !
 ! A23   A(3,9,22)             121.1692         calculate D2E/DX2 analytically  !
 ! A24   A(8,9,22)             118.9124         calculate D2E/DX2 analytically  !
 ! A25   A(2,10,11)            118.5883         calculate D2E/DX2 analytically  !
 ! A26   A(2,10,16)            121.8201         calculate D2E/DX2 analytically  !
 ! A27   A(11,10,16)           119.515          calculate D2E/DX2 analytically  !
 ! A28   A(10,11,12)           120.0856         calculate D2E/DX2 analytically  !
 ! A29   A(10,11,23)           120.2152         calculate D2E/DX2 analytically  !
 ! A30   A(12,11,23)           119.6931         calculate D2E/DX2 analytically  !
 ! A31   A(11,12,13)           120.7373         calculate D2E/DX2 analytically  !
 ! A32   A(11,12,24)           118.9422         calculate D2E/DX2 analytically  !
 ! A33   A(13,12,24)           120.3197         calculate D2E/DX2 analytically  !
 ! A34   A(12,13,14)           120.2281         calculate D2E/DX2 analytically  !
 ! A35   A(12,13,15)           118.6574         calculate D2E/DX2 analytically  !
 ! A36   A(14,13,15)           120.203          calculate D2E/DX2 analytically  !
 ! A37   A(13,14,25)           114.2693         calculate D2E/DX2 analytically  !
 ! A38   A(13,14,26)           114.0869         calculate D2E/DX2 analytically  !
 ! A39   A(25,14,26)           112.3867         calculate D2E/DX2 analytically  !
 ! A40   A(13,15,16)           120.8649         calculate D2E/DX2 analytically  !
 ! A41   A(13,15,27)           120.0826         calculate D2E/DX2 analytically  !
 ! A42   A(16,15,27)           119.0496         calculate D2E/DX2 analytically  !
 ! A43   A(10,16,15)           119.8891         calculate D2E/DX2 analytically  !
 ! A44   A(10,16,28)           121.1692         calculate D2E/DX2 analytically  !
 ! A45   A(15,16,28)           118.9124         calculate D2E/DX2 analytically  !
 ! D1    D(1,2,3,4)            -32.4579         calculate D2E/DX2 analytically  !
 ! D2    D(1,2,3,9)            144.3414         calculate D2E/DX2 analytically  !
 ! D3    D(10,2,3,4)           147.542          calculate D2E/DX2 analytically  !
 ! D4    D(10,2,3,9)           -35.6587         calculate D2E/DX2 analytically  !
 ! D5    D(1,2,10,11)          -32.4558         calculate D2E/DX2 analytically  !
 ! D6    D(1,2,10,16)          144.3434         calculate D2E/DX2 analytically  !
 ! D7    D(3,2,10,11)          147.5444         calculate D2E/DX2 analytically  !
 ! D8    D(3,2,10,16)          -35.6564         calculate D2E/DX2 analytically  !
 ! D9    D(2,3,4,5)            179.3183         calculate D2E/DX2 analytically  !
 ! D10   D(2,3,4,17)             0.2215         calculate D2E/DX2 analytically  !
 ! D11   D(9,3,4,5)              2.4434         calculate D2E/DX2 analytically  !
 ! D12   D(9,3,4,17)          -176.6534         calculate D2E/DX2 analytically  !
 ! D13   D(2,3,9,8)           -179.2621         calculate D2E/DX2 analytically  !
 ! D14   D(2,3,9,22)            -1.2522         calculate D2E/DX2 analytically  !
 ! D15   D(4,3,9,8)             -2.4918         calculate D2E/DX2 analytically  !
 ! D16   D(4,3,9,22)           175.5182         calculate D2E/DX2 analytically  !
 ! D17   D(3,4,5,6)              1.4433         calculate D2E/DX2 analytically  !
 ! D18   D(3,4,5,18)          -178.2522         calculate D2E/DX2 analytically  !
 ! D19   D(17,4,5,6)          -179.4552         calculate D2E/DX2 analytically  !
 ! D20   D(17,4,5,18)            0.8493         calculate D2E/DX2 analytically  !
 ! D21   D(4,5,6,7)           -174.2906         calculate D2E/DX2 analytically  !
 ! D22   D(4,5,6,8)             -5.1934         calculate D2E/DX2 analytically  !
 ! D23   D(18,5,6,7)             5.4007         calculate D2E/DX2 analytically  !
 ! D24   D(18,5,6,8)           174.498          calculate D2E/DX2 analytically  !
 ! D25   D(5,6,7,19)           -29.5083         calculate D2E/DX2 analytically  !
 ! D26   D(5,6,7,20)          -160.747          calculate D2E/DX2 analytically  !
 ! D27   D(8,6,7,19)           161.5637         calculate D2E/DX2 analytically  !
 ! D28   D(8,6,7,20)            30.3251         calculate D2E/DX2 analytically  !
 ! D29   D(5,6,8,9)              5.1462         calculate D2E/DX2 analytically  !
 ! D30   D(5,6,8,21)          -174.2315         calculate D2E/DX2 analytically  !
 ! D31   D(7,6,8,9)            174.2463         calculate D2E/DX2 analytically  !
 ! D32   D(7,6,8,21)            -5.1314         calculate D2E/DX2 analytically  !
 ! D33   D(6,8,9,3)             -1.3407         calculate D2E/DX2 analytically  !
 ! D34   D(6,8,9,22)          -179.3955         calculate D2E/DX2 analytically  !
 ! D35   D(21,8,9,3)           178.0434         calculate D2E/DX2 analytically  !
 ! D36   D(21,8,9,22)           -0.0114         calculate D2E/DX2 analytically  !
 ! D37   D(2,10,11,12)         179.3182         calculate D2E/DX2 analytically  !
 ! D38   D(2,10,11,23)           0.2213         calculate D2E/DX2 analytically  !
 ! D39   D(16,10,11,12)          2.4435         calculate D2E/DX2 analytically  !
 ! D40   D(16,10,11,23)       -176.6535         calculate D2E/DX2 analytically  !
 ! D41   D(2,10,16,15)        -179.262          calculate D2E/DX2 analytically  !
 ! D42   D(2,10,16,28)          -1.252          calculate D2E/DX2 analytically  !
 ! D43   D(11,10,16,15)         -2.4917         calculate D2E/DX2 analytically  !
 ! D44   D(11,10,16,28)        175.5183         calculate D2E/DX2 analytically  !
 ! D45   D(10,11,12,13)          1.4433         calculate D2E/DX2 analytically  !
 ! D46   D(10,11,12,24)       -178.2523         calculate D2E/DX2 analytically  !
 ! D47   D(23,11,12,13)       -179.455          calculate D2E/DX2 analytically  !
 ! D48   D(23,11,12,24)          0.8494         calculate D2E/DX2 analytically  !
 ! D49   D(11,12,13,14)       -174.2909         calculate D2E/DX2 analytically  !
 ! D50   D(11,12,13,15)         -5.1935         calculate D2E/DX2 analytically  !
 ! D51   D(24,12,13,14)          5.4006         calculate D2E/DX2 analytically  !
 ! D52   D(24,12,13,15)        174.498          calculate D2E/DX2 analytically  !
 ! D53   D(12,13,14,25)       -160.7473         calculate D2E/DX2 analytically  !
 ! D54   D(12,13,14,26)        -29.5095         calculate D2E/DX2 analytically  !
 ! D55   D(15,13,14,25)         30.3246         calculate D2E/DX2 analytically  !
 ! D56   D(15,13,14,26)        161.5624         calculate D2E/DX2 analytically  !
 ! D57   D(12,13,15,16)          5.1464         calculate D2E/DX2 analytically  !
 ! D58   D(12,13,15,27)       -174.2314         calculate D2E/DX2 analytically  !
 ! D59   D(14,13,15,16)        174.2466         calculate D2E/DX2 analytically  !
 ! D60   D(14,13,15,27)         -5.1312         calculate D2E/DX2 analytically  !
 ! D61   D(13,15,16,10)         -1.3408         calculate D2E/DX2 analytically  !
 ! D62   D(13,15,16,28)       -179.3957         calculate D2E/DX2 analytically  !
 ! D63   D(27,15,16,10)        178.0433         calculate D2E/DX2 analytically  !
 ! D64   D(27,15,16,28)         -0.0116         calculate D2E/DX2 analytically  !
 --------------------------------------------------------------------------------
 Trust Radius=3.00D-01 FncErr=1.00D-07 GrdErr=1.00D-06 EigMax=2.50D+02 EigMin=1.00D-04
 Number of steps in this run=    148 maximum allowed number of steps=    168.
 GradGradGradGradGradGradGradGradGradGradGradGradGradGradGradGradGradGrad

                          Input orientation:                          
 ---------------------------------------------------------------------
 Center     Atomic      Atomic             Coordinates (Angstroms)
 Number     Number       Type             X           Y           Z
 ---------------------------------------------------------------------
      1          8           0        0.156019   -2.643650   -0.615084
      2          6           0        0.086782   -1.470462   -0.257530
      3          6           0       -1.243989   -0.877791    0.031286
      4          6           0       -2.348009   -1.324366   -0.700246
      5          6           0       -3.617776   -0.798103   -0.444272
      6          6           0       -3.797172    0.197461    0.519450
      7          7           0       -5.084023    0.631829    0.851727
      8          6           0       -2.702547    0.579861    1.299975
      9          6           0       -1.427779    0.058904    1.052795
     10          6           0        1.335816   -0.678138   -0.124244
     11          6           0        2.504913   -1.334062    0.271236
     12          6           0        3.701556   -0.621299    0.392876
     13          6           0        3.740999    0.754366    0.151873
     14          7           0        4.962007    1.435654    0.159613
     15          6           0        2.586538    1.385649   -0.319670
     16          6           0        1.384066    0.681611   -0.445827
     17          1           0       -2.226387   -2.092991   -1.460832
     18          1           0       -4.467870   -1.179325   -1.004246
     19          1           0       -5.754362    0.560628    0.092461
     20          1           0       -5.113477    1.537037    1.309749
     21          1           0       -2.835871    1.283103    2.118273
     22          1           0       -0.601111    0.370548    1.685523
     23          1           0        2.491777   -2.403523    0.471599
     24          1           0        4.605671   -1.155314    0.673879
     25          1           0        4.878788    2.439541    0.283456
     26          1           0        5.660667    1.027003    0.772628
     27          1           0        2.616446    2.434571   -0.603932
     28          1           0        0.508329    1.201255   -0.825168
 ---------------------------------------------------------------------
                    Distance matrix (angstroms):
                    1          2          3          4          5
     1  O    0.000000
     2  C    1.228417   0.000000
     3  C    2.344371   1.485135   0.000000
     4  C    2.831593   2.479022   1.397651   0.000000
     5  C    4.204373   3.769707   2.422265   1.398136   0.000000
     6  C    4.998680   4.297763   2.813044   2.429751   1.397172
     7  N    6.351247   5.690984   4.206891   3.704199   2.423674
     8  C    4.714856   3.796050   2.421097   2.784360   2.403918
     9  C    3.548808   2.519883   1.398091   2.415246   2.787787
    10  C    2.344372   1.485135   2.592189   3.784171   4.965368
    11  C    2.831587   2.479023   3.784181   4.949214   6.187611
    12  C    4.204369   3.769708   4.965376   6.187605   7.369172
    13  C    4.998682   4.297764   5.246770   6.490243   7.544344
    14  N    6.351252   5.690987   6.624416   7.860878   8.886339
    15  C    4.714864   3.796052   4.463102   5.642586   6.578587
    16  C    3.548818   2.519885   3.092903   4.244650   5.216127
    17  H    2.587349   2.680714   2.160609   1.088148   2.155480
    18  H    4.865803   4.624629   3.399508   2.146453   1.086996
    19  H    6.760223   6.194092   4.734580   3.973012   2.588287
    20  H    6.996479   6.208390   4.736961   4.458197   3.281248
    21  H    5.642874   4.665668   3.399862   3.870523   3.392554
    22  H    3.866708   2.763688   2.169826   3.408267   3.873246
    23  H    2.587336   2.680715   4.059271   5.095226   6.383011
    24  H    4.865797   4.624630   5.891390   7.090167   8.306801
    25  H    6.996481   6.208390   6.968263   8.207390   9.121596
    26  H    6.760221   6.194090   7.200841   8.475682   9.534220
    27  H    5.642885   4.665670   5.126228   6.227736   7.024329
    28  H    3.866724   2.763690   2.850713   3.814844   4.600788
                    6          7          8          9         10
     6  C    0.000000
     7  N    1.398238   0.000000
     8  C    1.397731   2.423851   0.000000
     9  C    2.432628   3.706317   1.399116   0.000000
    10  C    5.246768   6.624414   4.463107   3.092913   0.000000
    11  C    6.490258   7.860893   5.642609   4.244674   1.397651
    12  C    7.544356   8.886353   6.578613   5.216153   2.422266
    13  C    7.567647   8.853577   6.547356   5.292599   2.813044
    14  N    8.853577  10.101874   7.796037   6.597165   4.206894
    15  C    6.547341   7.796020   5.589898   4.445071   2.421098
    16  C    5.292579   6.597143   4.445062   3.246553   1.398092
    17  H    3.411019   4.575878   3.872068   3.403931   4.059257
    18  H    2.160330   2.665439   3.394191   3.873859   5.891380
    19  H    2.035878   1.015337   3.282078   4.460189   7.200841
    20  H    2.037571   1.014915   2.594006   3.979356   6.968265
    21  H    2.158460   2.661293   1.087169   2.148634   5.126238
    22  H    3.406536   4.567273   2.146739   1.086668   2.850734
    23  H    6.805754   8.170104   6.047130   4.665218   2.160608
    24  H    8.512440   9.854729   7.537432   6.166071   3.399508
    25  H    8.964089  10.141417   7.871998   6.784696   4.736960
    26  H    9.497524  10.752245   8.391744   7.159733   4.734577
    27  H    6.884849   8.041520   5.946133   4.974364   3.399864
    28  H    4.620924   5.866057   3.900267   2.929202   2.169826
                   11         12         13         14         15
    11  C    0.000000
    12  C    1.398136   0.000000
    13  C    2.429751   1.397173   0.000000
    14  N    3.704200   2.423676   1.398239   0.000000
    15  C    2.784361   2.403919   1.397731   2.423853   0.000000
    16  C    2.415246   2.787787   2.432627   3.706319   1.399115
    17  H    5.095217   6.382995   6.805730   8.170079   6.047101
    18  H    7.090169   8.306796   8.512420   9.854707   7.537400
    19  H    8.475696   9.534232   9.497523  10.752243   8.391729
    20  H    8.207410   9.121616   8.964095  10.141423   7.871986
    21  H    6.227766   7.024364   6.884875   8.041549   5.946142
    22  H    3.814878   4.600831   4.620966   5.866101   3.900300
    23  H    1.088147   2.155478   3.411019   4.575878   3.872068
    24  H    2.146452   1.086996   2.160331   2.665439   3.394192
    25  H    4.458196   3.281248   2.037570   1.014914   2.594004
    26  H    3.973009   2.588286   2.035876   1.015337   3.282074
    27  H    3.870524   3.392555   2.158460   2.661295   1.087169
    28  H    3.408267   3.873246   3.406534   4.567273   2.146738
                   16         17         18         19         20
    16  C    0.000000
    17  H    4.665193   0.000000
    18  H    6.166041   2.463229   0.000000
    19  H    7.159717   4.679852   2.425956   0.000000
    20  H    6.784679   5.402639   3.626294   1.686979   0.000000
    21  H    4.974361   4.957768   4.298499   3.625393   2.430161
    22  H    2.929222   4.313942   4.958708   5.397219   4.675826
    23  H    3.403931   5.108012   7.218965   8.770903   8.606416
    24  H    3.873858   7.218951   9.227450  10.517261  10.105193
    25  H    3.979353   8.606387  10.105165  10.799568  10.085294
    26  H    4.460184   8.770879  10.517244  11.444781  10.799575
    27  H    2.148634   6.684768   7.962915   8.606221   8.013704
    28  H    1.086667   4.328371   5.519219   6.361897   6.022900
                   21         22         23         24         25
    21  H    0.000000
    22  H    2.452382   0.000000
    23  H    6.684802   4.328399   0.000000
    24  H    7.962958   5.519263   2.463228   0.000000
    25  H    8.013729   6.022941   5.402637   3.626294   0.000000
    26  H    8.606248   6.361932   4.679849   2.425959   1.686977
    27  H    6.201938   4.455836   4.957768   4.298500   2.430159
    28  H    4.455806   2.867839   4.313942   4.958707   4.675822
                   26         27         28
    26  H    0.000000
    27  H    3.625390   0.000000
    28  H    5.397213   2.452381   0.000000
 Stoichiometry    C13H12N2O
 Framework group  C1[X(C13H12N2O)]
 Deg. of freedom    78
 Full point group                 C1      NOp   1
 Largest Abelian subgroup         C1      NOp   1
 Largest concise Abelian subgroup C1      NOp   1
                         Standard orientation:                         
 ---------------------------------------------------------------------
 Center     Atomic      Atomic             Coordinates (Angstroms)
 Number     Number       Type             X           Y           Z
 ---------------------------------------------------------------------
      1          8           0       -0.000000    2.549968    0.000012
      2          6           0       -0.000001    1.321551    0.000009
      3          6           0        1.295713    0.596455    0.031430
      4          6           0        2.400612    1.173654   -0.600605
      5          6           0        3.638955    0.524978   -0.578059
      6          6           0        3.783538   -0.716448    0.046479
      7          7           0        5.048160   -1.300534    0.167493
      8          6           0        2.694305   -1.247147    0.743316
      9          6           0        1.450929   -0.605817    0.727927
     10          6           0       -1.295714    0.596453   -0.031421
     11          6           0       -2.400626    1.173668    0.600577
     12          6           0       -3.638969    0.524990    0.578022
     13          6           0       -3.783538   -0.716452   -0.046488
     14          7           0       -5.048158   -1.300543   -0.167509
     15          6           0       -2.694291   -1.247168   -0.743291
     16          6           0       -1.450916   -0.605837   -0.727891
     17          1           0        2.305205    2.135961   -1.099533
     18          1           0        4.492464    1.004140   -1.050803
     19          1           0        5.693419   -1.049315   -0.575095
     20          1           0        5.030976   -2.300020    0.342948
     21          1           0        2.808083   -2.164469    1.315602
     22          1           0        0.628325   -1.041025    1.288966
     23          1           0       -2.305230    2.135985    1.099485
     24          1           0       -4.492487    1.004163    1.050738
     25          1           0       -5.030968   -2.300032   -0.342943
     26          1           0       -5.693420   -1.049317    0.575076
     27          1           0       -2.808058   -2.164503   -1.315557
     28          1           0       -0.628301   -1.041061   -1.288900
 ---------------------------------------------------------------------
 Rotational constants (GHZ):           1.3643983           0.2503385           0.2219077
 Standard basis: 6-31G(d,p) (6D, 7F)
 There are   300 symmetry adapted cartesian basis functions of A   symmetry.
 There are   300 symmetry adapted basis functions of A   symmetry.
   300 basis functions,   532 primitive gaussians,   300 cartesian basis functions
    56 alpha electrons       56 beta electrons
       nuclear repulsion energy       975.8634331969 Hartrees.
 NAtoms=   28 NActive=   28 NUniq=   28 SFac= 1.00D+00 NAtFMM=   60 NAOKFM=F Big=F
 Integral buffers will be    131072 words long.
 Raffenetti 2 integral format.
 Two-electron integral symmetry is turned on.
 Force inversion solution in PCM.
 ------------------------------------------------------------------------------
 Polarizable Continuum Model (PCM)
 =================================
 Model                : PCM.
 Atomic radii         : UFF (Universal Force Field).
 Polarization charges : Total charges.
 Charge compensation  : None.
 Solution method      : Matrix inversion.
 Cavity type          : Scaled VdW (van der Waals Surface) (Alpha=1.100).
 Cavity algorithm     : GePol (No added spheres)
                        Default sphere list used, NSphG=   28.
                        Lebedev-Laikov grids with approx.  5.0 points / Ang**2.
                        Smoothing algorithm: York/Karplus (Gamma=1.0000).
                        Polarization charges: spherical gaussians, with
                                              point-specific exponents (IZeta= 3).
                        Self-potential: point-specific (ISelfS= 7).
                        Self-field    : sphere-specific E.n sum rule (ISelfD= 2).
 1st derivatives      : Analytical E(r).r(x)/FMM algorithm (CHGder, D1EAlg=3).
                        Cavity 1st derivative terms included.
 2nd derivatives      : Analytical E(r).r(xy)/FMM algorithm (CHGder, D2EAlg=3).
                        Cavity 2nd derivative terms included.
 Solvent              : Water, Eps=  78.355300 Eps(inf)=   1.777849
 ------------------------------------------------------------------------------
 One-electron integrals computed using PRISM.
 NBasis=   300 RedAO= T EigKep=  4.30D-04  NBF=   300
 NBsUse=   300 1.00D-06 EigRej= -1.00D+00 NBFU=   300
 ExpMin= 1.61D-01 ExpMax= 5.48D+03 ExpMxC= 8.25D+02 IAcc=3 IRadAn=         5 AccDes= 0.00D+00
 Harris functional with IExCor=  402 and IRadAn=       5 diagonalized for initial guess.
 HarFok:  IExCor=  402 AccDes= 0.00D+00 IRadAn=         5 IDoV= 1 UseB2=F ITyADJ=14
 ICtDFT=  3500011 ScaDFX=  1.000000  1.000000  1.000000  1.000000
 FoFCou: FMM=F IPFlag=           0 FMFlag=      100000 FMFlg1=           0
         NFxFlg=           0 DoJE=T BraDBF=F KetDBF=T FulRan=T
         wScrn=  0.000000 ICntrl=       500 IOpCl=  0 I1Cent=   200000004 NGrid=           0
         NMat0=    1 NMatS0=      1 NMatT0=    0 NMatD0=    1 NMtDS0=    0 NMtDT0=    0
 Petite list used in FoFCou.
 Keep R1 ints in memory in canonical form, NReq=1032920980.
 Requested convergence on RMS density matrix=1.00D-08 within  32 cycles.
 Requested convergence on MAX density matrix=1.00D-06.
 Requested convergence on             energy=1.00D-06.
 No special actions if energy rises.
 Inv3:  Mode=1 IEnd=    14113683.
 Iteration    1 A*A^-1 deviation from unit magnitude is 3.55D-15 for    218.
 Iteration    1 A*A^-1 deviation from orthogonality  is 2.78D-15 for   2035    123.
 Iteration    1 A^-1*A deviation from unit magnitude is 3.55D-15 for    218.
 Iteration    1 A^-1*A deviation from orthogonality  is 2.22D-15 for   2018    720.
 Error on total polarization charges =  0.00871
 SCF Done:  E(RB3LYP) =  -687.382132609     A.U. after   13 cycles
            NFock= 13  Conv=0.33D-08     -V/T= 2.0095
 QCSCF skips out because SCF is already converged.
 DoSCS=F DFT=T ScalE2(SS,OS)=  1.000000  1.000000
 Range of M.O.s used for correlation:     1   300
 NBasis=   300 NAE=    56 NBE=    56 NFC=     0 NFV=     0
 NROrb=    300 NOA=    56 NOB=    56 NVA=   244 NVB=   244
 Symmetrizing basis deriv contribution to polar:
 IMax=3 JMax=2 DiffMx= 0.00D+00
 G2DrvN: will do    29 centers at a time, making    1 passes.
 Calling FoFCou, ICntrl=  3107 FMM=F I1Cent=   0 AccDes= 0.00D+00.
 NEqPCM:  Using equilibrium solvation (IEInf=0, Eps=  78.3553, EpsInf=   1.7778)
 G2PCM: DoFxE=T DoFxN=T DoGrad=T DoDP/DQ/DG/TGxP=FFFF NFrqRd=   0 IEInf=0 SqF1=F DoCFld=F IF1Alg=4.
 End of G2Drv F.D. properties file   721 does not exist.
 End of G2Drv F.D. properties file   722 does not exist.
 End of G2Drv F.D. properties file   788 does not exist.
          IDoAtm=1111111111111111111111111111
 NEqPCM:  Using equilibrium solvation (IEInf=0, Eps=  78.3553, EpsInf=   1.7778)
          Differentiating once with respect to nuclear coordinates.
 Keep R1 ints in memory in canonical form, NReq=1032932641.
          There are    87 degrees of freedom in the 1st order CPHF.  IDoFFX=6 NUNeed=     0.
     81 vectors produced by pass  0 Test12= 1.57D-14 1.15D-09 XBig12= 1.24D-01 1.49D-01.
 AX will form    81 AO Fock derivatives at one time.
     81 vectors produced by pass  1 Test12= 1.57D-14 1.15D-09 XBig12= 4.73D-02 6.26D-02.
     81 vectors produced by pass  2 Test12= 1.57D-14 1.15D-09 XBig12= 2.79D-04 2.44D-03.
     81 vectors produced by pass  3 Test12= 1.57D-14 1.15D-09 XBig12= 1.10D-06 1.82D-04.
     81 vectors produced by pass  4 Test12= 1.57D-14 1.15D-09 XBig12= 3.28D-09 6.24D-06.
     62 vectors produced by pass  5 Test12= 1.57D-14 1.15D-09 XBig12= 3.85D-12 3.15D-07.
     16 vectors produced by pass  6 Test12= 1.57D-14 1.15D-09 XBig12= 3.51D-15 6.74D-09.
 InvSVY:  IOpt=1 It=  1 EMax= 5.00D-16
 Solved reduced A of dimension   483 with    87 vectors.
 End of Minotr F.D. properties file   721 does not exist.
 End of Minotr F.D. properties file   722 does not exist.
 End of Minotr F.D. properties file   788 does not exist.

 **********************************************************************

            Population analysis using the SCF density.

 **********************************************************************

 Orbital symmetries:
       Occupied  (A) (A) (A) (A) (A) (A) (A) (A) (A) (A) (A) (A)
                 (A) (A) (A) (A) (A) (A) (A) (A) (A) (A) (A) (A)
                 (A) (A) (A) (A) (A) (A) (A) (A) (A) (A) (A) (A)
                 (A) (A) (A) (A) (A) (A) (A) (A) (A) (A) (A) (A)
                 (A) (A) (A) (A) (A) (A) (A) (A)
       Virtual   (A) (A) (A) (A) (A) (A) (A) (A) (A) (A) (A) (A)
                 (A) (A) (A) (A) (A) (A) (A) (A) (A) (A) (A) (A)
                 (A) (A) (A) (A) (A) (A) (A) (A) (A) (A) (A) (A)
                 (A) (A) (A) (A) (A) (A) (A) (A) (A) (A) (A) (A)
                 (A) (A) (A) (A) (A) (A) (A) (A) (A) (A) (A) (A)
                 (A) (A) (A) (A) (A) (A) (A) (A) (A) (A) (A) (A)
                 (A) (A) (A) (A) (A) (A) (A) (A) (A) (A) (A) (A)
                 (A) (A) (A) (A) (A) (A) (A) (A) (A) (A) (A) (A)
                 (A) (A) (A) (A) (A) (A) (A) (A) (A) (A) (A) (A)
                 (A) (A) (A) (A) (A) (A) (A) (A) (A) (A) (A) (A)
                 (A) (A) (A) (A) (A) (A) (A) (A) (A) (A) (A) (A)
                 (A) (A) (A) (A) (A) (A) (A) (A) (A) (A) (A) (A)
                 (A) (A) (A) (A) (A) (A) (A) (A) (A) (A) (A) (A)
                 (A) (A) (A) (A) (A) (A) (A) (A) (A) (A) (A) (A)
                 (A) (A) (A) (A) (A) (A) (A) (A) (A) (A) (A) (A)
                 (A) (A) (A) (A) (A) (A) (A) (A) (A) (A) (A) (A)
                 (A) (A) (A) (A) (A) (A) (A) (A) (A) (A) (A) (A)
                 (A) (A) (A) (A) (A) (A) (A) (A) (A) (A) (A) (A)
                 (A) (A) (A) (A) (A) (A) (A) (A) (A) (A) (A) (A)
                 (A) (A) (A) (A) (A) (A) (A) (A) (A) (A) (A) (A)
                 (A) (A) (A) (A)
 The electronic state is 1-A.
 Alpha  occ. eigenvalues --  -19.12507 -14.34365 -14.34365 -10.26602 -10.23576
 Alpha  occ. eigenvalues --  -10.23576 -10.19789 -10.19789 -10.19615 -10.19615
 Alpha  occ. eigenvalues --  -10.18846 -10.18846 -10.18837 -10.18837 -10.18822
 Alpha  occ. eigenvalues --  -10.18822  -1.02741  -0.92067  -0.92059  -0.84784
 Alpha  occ. eigenvalues --   -0.84087  -0.75710  -0.74806  -0.74666  -0.73098
 Alpha  occ. eigenvalues --   -0.63998  -0.61876  -0.61809  -0.60019  -0.55420
 Alpha  occ. eigenvalues --   -0.52824  -0.51291  -0.50901  -0.50877  -0.48396
 Alpha  occ. eigenvalues --   -0.44623  -0.44225  -0.44102  -0.43287  -0.42415
 Alpha  occ. eigenvalues --   -0.42162  -0.41768  -0.39876  -0.38766  -0.37831
 Alpha  occ. eigenvalues --   -0.37157  -0.36811  -0.34563  -0.34452  -0.31714
 Alpha  occ. eigenvalues --   -0.30659  -0.25722  -0.25473  -0.24444  -0.21267
 Alpha  occ. eigenvalues --   -0.21236
 Alpha virt. eigenvalues --   -0.04794  -0.01309  -0.00149   0.00564   0.06507
 Alpha virt. eigenvalues --    0.09055   0.09409   0.10811   0.11319   0.12975
 Alpha virt. eigenvalues --    0.13104   0.15245   0.17007   0.17088   0.17420
 Alpha virt. eigenvalues --    0.17561   0.18527   0.19590   0.20326   0.24586
 Alpha virt. eigenvalues --    0.25270   0.26173   0.28996   0.30366   0.32656
 Alpha virt. eigenvalues --    0.33131   0.33373   0.34382   0.34759   0.35390
 Alpha virt. eigenvalues --    0.38286   0.41055   0.47714   0.49807   0.50484
 Alpha virt. eigenvalues --    0.51904   0.52403   0.52742   0.53873   0.54181
 Alpha virt. eigenvalues --    0.55694   0.56680   0.57541   0.58487   0.58760
 Alpha virt. eigenvalues --    0.58908   0.58923   0.59454   0.60193   0.60345
 Alpha virt. eigenvalues --    0.60866   0.62217   0.62651   0.63169   0.64596
 Alpha virt. eigenvalues --    0.66382   0.68116   0.69119   0.69270   0.69530
 Alpha virt. eigenvalues --    0.70158   0.73406   0.73989   0.75667   0.78114
 Alpha virt. eigenvalues --    0.79623   0.80531   0.81503   0.81814   0.81966
 Alpha virt. eigenvalues --    0.82286   0.83732   0.83885   0.85428   0.85433
 Alpha virt. eigenvalues --    0.86476   0.86852   0.87182   0.88805   0.88996
 Alpha virt. eigenvalues --    0.91899   0.92372   0.93028   0.96966   0.98895
 Alpha virt. eigenvalues --    0.99596   0.99784   1.00497   1.01923   1.02356
 Alpha virt. eigenvalues --    1.03111   1.07431   1.08265   1.11795   1.12261
 Alpha virt. eigenvalues --    1.12945   1.15315   1.16501   1.17388   1.19132
 Alpha virt. eigenvalues --    1.19854   1.22653   1.26360   1.27138   1.27450
 Alpha virt. eigenvalues --    1.30891   1.30963   1.34182   1.38394   1.39123
 Alpha virt. eigenvalues --    1.39660   1.40312   1.40618   1.41023   1.42169
 Alpha virt. eigenvalues --    1.46824   1.48477   1.48522   1.50280   1.50822
 Alpha virt. eigenvalues --    1.55950   1.66206   1.73587   1.74185   1.74958
 Alpha virt. eigenvalues --    1.75356   1.76777   1.77214   1.77961   1.79408
 Alpha virt. eigenvalues --    1.81086   1.81803   1.82091   1.84807   1.86475
 Alpha virt. eigenvalues --    1.86815   1.89152   1.89433   1.91353   1.93157
 Alpha virt. eigenvalues --    1.94882   1.96438   1.96501   1.96832   1.97010
 Alpha virt. eigenvalues --    1.98974   1.99094   1.99926   2.02439   2.03988
 Alpha virt. eigenvalues --    2.08279   2.08741   2.10084   2.10163   2.12246
 Alpha virt. eigenvalues --    2.16199   2.16535   2.23136   2.23829   2.24076
 Alpha virt. eigenvalues --    2.25744   2.27763   2.28463   2.31003   2.31594
 Alpha virt. eigenvalues --    2.33027   2.33654   2.34654   2.35411   2.36551
 Alpha virt. eigenvalues --    2.37891   2.40631   2.41239   2.42029   2.44304
 Alpha virt. eigenvalues --    2.44343   2.45854   2.46112   2.46319   2.48539
 Alpha virt. eigenvalues --    2.48829   2.50991   2.51271   2.54363   2.55190
 Alpha virt. eigenvalues --    2.55897   2.57248   2.59262   2.59317   2.59773
 Alpha virt. eigenvalues --    2.62445   2.64812   2.65067   2.68005   2.69540
 Alpha virt. eigenvalues --    2.72643   2.72961   2.78339   2.78868   2.79313
 Alpha virt. eigenvalues --    2.81665   2.84655   2.84766   2.88004   2.93696
 Alpha virt. eigenvalues --    2.96526   2.98211   2.98663   3.05163   3.05576
 Alpha virt. eigenvalues --    3.09749   3.11641   3.18888   3.19237   3.24853
 Alpha virt. eigenvalues --    3.24984   3.27990   3.28081   3.30451   3.33683
 Alpha virt. eigenvalues --    3.37642   3.38561   3.48254   3.48305   3.53535
 Alpha virt. eigenvalues --    3.54596   3.82201   3.84126   4.00108   4.03401
 Alpha virt. eigenvalues --    4.03879   4.13014   4.13318   4.15462   4.15625
 Alpha virt. eigenvalues --    4.19426   4.19949   4.36898   4.42638   4.44545
 Alpha virt. eigenvalues --    4.44933   4.55137   4.80369   4.86831
          Condensed to atoms (all electrons):
               1          2          3          4          5          6
     1  O    8.153145   0.542941  -0.100982   0.003539   0.000747  -0.000001
     2  C    0.542941   4.706700   0.299025  -0.027769   0.005331   0.000519
     3  C   -0.100982   0.299025   5.044215   0.485386  -0.036103  -0.028983
     4  C    0.003539  -0.027769   0.485386   4.912960   0.504430  -0.024417
     5  C    0.000747   0.005331  -0.036103   0.504430   4.965400   0.525973
     6  C   -0.000001   0.000519  -0.028983  -0.024417   0.525973   4.570446
     7  N    0.000000   0.000001   0.000457   0.004277  -0.069939   0.306573
     8  C   -0.000096   0.004751  -0.032658  -0.041481  -0.048496   0.532441
     9  C    0.002162  -0.042366   0.513467  -0.051760  -0.041943  -0.025167
    10  C   -0.100981   0.299024  -0.101124   0.008159  -0.000108  -0.000022
    11  C    0.003539  -0.027769   0.008159  -0.000251   0.000000   0.000000
    12  C    0.000747   0.005331  -0.000108   0.000000  -0.000000   0.000000
    13  C   -0.000001   0.000519  -0.000022   0.000000   0.000000   0.000000
    14  N    0.000000   0.000001  -0.000000   0.000000  -0.000000  -0.000000
    15  C   -0.000096   0.004751   0.000272   0.000012  -0.000000  -0.000000
    16  C    0.002162  -0.042366  -0.005880   0.000228  -0.000016  -0.000005
    17  H    0.011429  -0.007757  -0.049212   0.368188  -0.035966   0.003867
    18  H    0.000002  -0.000147   0.003833  -0.032995   0.366247  -0.043270
    19  H    0.000000  -0.000000   0.000010  -0.000076  -0.008865  -0.024337
    20  H    0.000000  -0.000000   0.000004  -0.000180   0.005438  -0.024138
    21  H    0.000001  -0.000155   0.003706   0.000758   0.005028  -0.043140
    22  H    0.000046  -0.007783  -0.042440   0.005414   0.000506   0.003667
    23  H    0.011430  -0.007758   0.000680  -0.000017  -0.000000   0.000000
    24  H    0.000002  -0.000147   0.000002  -0.000000   0.000000   0.000000
    25  H    0.000000  -0.000000  -0.000000   0.000000   0.000000  -0.000000
    26  H    0.000000  -0.000000  -0.000000  -0.000000   0.000000  -0.000000
    27  H    0.000001  -0.000155   0.000006  -0.000000  -0.000000   0.000000
    28  H    0.000046  -0.007783   0.006703  -0.000193  -0.000033   0.000006
               7          8          9         10         11         12
     1  O    0.000000  -0.000096   0.002162  -0.100981   0.003539   0.000747
     2  C    0.000001   0.004751  -0.042366   0.299024  -0.027769   0.005331
     3  C    0.000457  -0.032658   0.513467  -0.101124   0.008159  -0.000108
     4  C    0.004277  -0.041481  -0.051760   0.008159  -0.000251   0.000000
     5  C   -0.069939  -0.048496  -0.041943  -0.000108   0.000000  -0.000000
     6  C    0.306573   0.532441  -0.025167  -0.000022   0.000000   0.000000
     7  N    6.814138  -0.070778   0.004666  -0.000000   0.000000  -0.000000
     8  C   -0.070778   4.952873   0.510287   0.000272   0.000012  -0.000000
     9  C    0.004666   0.510287   4.916038  -0.005880   0.000228  -0.000016
    10  C   -0.000000   0.000272  -0.005880   5.044217   0.485384  -0.036102
    11  C    0.000000   0.000012   0.000228   0.485384   4.912965   0.504429
    12  C   -0.000000  -0.000000  -0.000016  -0.036102   0.504429   4.965401
    13  C   -0.000000  -0.000000  -0.000005  -0.028983  -0.024417   0.525972
    14  N    0.000000   0.000000   0.000000   0.000457   0.004277  -0.069939
    15  C    0.000000  -0.000022  -0.000112  -0.032658  -0.041480  -0.048496
    16  C    0.000000  -0.000112  -0.003171   0.513466  -0.051762  -0.041943
    17  H   -0.000106   0.000493   0.005560   0.000680  -0.000017  -0.000000
    18  H   -0.007242   0.005083   0.000670   0.000002  -0.000000   0.000000
    19  H    0.343725   0.005428  -0.000167  -0.000000  -0.000000   0.000000
    20  H    0.343818  -0.008874  -0.000015  -0.000000   0.000000   0.000000
    21  H   -0.007237   0.365539  -0.032261   0.000006  -0.000000  -0.000000
    22  H   -0.000107  -0.034999   0.366889   0.006703  -0.000193  -0.000033
    23  H   -0.000000   0.000001  -0.000029  -0.049212   0.368188  -0.035966
    24  H    0.000000  -0.000000  -0.000000   0.003833  -0.032995   0.366247
    25  H    0.000000   0.000000   0.000000   0.000004  -0.000180   0.005438
    26  H    0.000000   0.000000   0.000000   0.000010  -0.000076  -0.008865
    27  H    0.000000   0.000000  -0.000006   0.003706   0.000758   0.005028
    28  H    0.000000   0.000068   0.003477  -0.042439   0.005414   0.000506
              13         14         15         16         17         18
     1  O   -0.000001   0.000000  -0.000096   0.002162   0.011429   0.000002
     2  C    0.000519   0.000001   0.004751  -0.042366  -0.007757  -0.000147
     3  C   -0.000022  -0.000000   0.000272  -0.005880  -0.049212   0.003833
     4  C    0.000000   0.000000   0.000012   0.000228   0.368188  -0.032995
     5  C    0.000000  -0.000000  -0.000000  -0.000016  -0.035966   0.366247
     6  C    0.000000  -0.000000  -0.000000  -0.000005   0.003867  -0.043270
     7  N   -0.000000   0.000000   0.000000   0.000000  -0.000106  -0.007242
     8  C   -0.000000   0.000000  -0.000022  -0.000112   0.000493   0.005083
     9  C   -0.000005   0.000000  -0.000112  -0.003171   0.005560   0.000670
    10  C   -0.028983   0.000457  -0.032658   0.513466   0.000680   0.000002
    11  C   -0.024417   0.004277  -0.041480  -0.051762  -0.000017  -0.000000
    12  C    0.525972  -0.069939  -0.048496  -0.041943  -0.000000   0.000000
    13  C    4.570449   0.306573   0.532441  -0.025167   0.000000   0.000000
    14  N    0.306573   6.814136  -0.070778   0.004666  -0.000000   0.000000
    15  C    0.532441  -0.070778   4.952872   0.510286   0.000001  -0.000000
    16  C   -0.025167   0.004666   0.510286   4.916043  -0.000029  -0.000000
    17  H    0.000000  -0.000000   0.000001  -0.000029   0.602777  -0.005690
    18  H    0.000000   0.000000  -0.000000  -0.000000  -0.005690   0.606926
    19  H   -0.000000   0.000000   0.000000   0.000000  -0.000005   0.004549
    20  H   -0.000000   0.000000   0.000000   0.000000   0.000003  -0.000042
    21  H    0.000000   0.000000   0.000000  -0.000006   0.000017  -0.000174
    22  H    0.000006   0.000000   0.000068   0.003477  -0.000150   0.000016
    23  H    0.003867  -0.000106   0.000493   0.005560  -0.000004  -0.000000
    24  H   -0.043270  -0.007242   0.005083   0.000670  -0.000000  -0.000000
    25  H   -0.024138   0.343818  -0.008874  -0.000015   0.000000  -0.000000
    26  H   -0.024337   0.343725   0.005428  -0.000167  -0.000000  -0.000000
    27  H   -0.043140  -0.007237   0.365539  -0.032261  -0.000000  -0.000000
    28  H    0.003667  -0.000107  -0.034999   0.366889  -0.000011  -0.000000
              19         20         21         22         23         24
     1  O    0.000000   0.000000   0.000001   0.000046   0.011430   0.000002
     2  C   -0.000000  -0.000000  -0.000155  -0.007783  -0.007758  -0.000147
     3  C    0.000010   0.000004   0.003706  -0.042440   0.000680   0.000002
     4  C   -0.000076  -0.000180   0.000758   0.005414  -0.000017  -0.000000
     5  C   -0.008865   0.005438   0.005028   0.000506  -0.000000   0.000000
     6  C   -0.024337  -0.024138  -0.043140   0.003667   0.000000   0.000000
     7  N    0.343725   0.343818  -0.007237  -0.000107  -0.000000   0.000000
     8  C    0.005428  -0.008874   0.365539  -0.034999   0.000001  -0.000000
     9  C   -0.000167  -0.000015  -0.032261   0.366889  -0.000029  -0.000000
    10  C   -0.000000  -0.000000   0.000006   0.006703  -0.049212   0.003833
    11  C   -0.000000   0.000000  -0.000000  -0.000193   0.368188  -0.032995
    12  C    0.000000   0.000000  -0.000000  -0.000033  -0.035966   0.366247
    13  C   -0.000000  -0.000000   0.000000   0.000006   0.003867  -0.043270
    14  N    0.000000   0.000000   0.000000   0.000000  -0.000106  -0.007242
    15  C    0.000000   0.000000   0.000000   0.000068   0.000493   0.005083
    16  C    0.000000   0.000000  -0.000006   0.003477   0.005560   0.000670
    17  H   -0.000005   0.000003   0.000017  -0.000150  -0.000004  -0.000000
    18  H    0.004549  -0.000042  -0.000174   0.000016  -0.000000  -0.000000
    19  H    0.424518  -0.027862  -0.000036   0.000003  -0.000000  -0.000000
    20  H   -0.027862   0.424105   0.004473  -0.000006   0.000000  -0.000000
    21  H   -0.000036   0.004473   0.607193  -0.005667  -0.000000  -0.000000
    22  H    0.000003  -0.000006  -0.005667   0.595365  -0.000011  -0.000000
    23  H   -0.000000   0.000000  -0.000000  -0.000011   0.602777  -0.005690
    24  H   -0.000000  -0.000000  -0.000000  -0.000000  -0.005690   0.606926
    25  H    0.000000   0.000000  -0.000000   0.000000   0.000003  -0.000042
    26  H   -0.000000   0.000000  -0.000000  -0.000000  -0.000005   0.004549
    27  H   -0.000000  -0.000000  -0.000000  -0.000005   0.000017  -0.000174
    28  H   -0.000000   0.000000  -0.000005  -0.000402  -0.000150   0.000016
              25         26         27         28
     1  O    0.000000   0.000000   0.000001   0.000046
     2  C   -0.000000  -0.000000  -0.000155  -0.007783
     3  C   -0.000000  -0.000000   0.000006   0.006703
     4  C    0.000000  -0.000000  -0.000000  -0.000193
     5  C    0.000000   0.000000  -0.000000  -0.000033
     6  C   -0.000000  -0.000000   0.000000   0.000006
     7  N    0.000000   0.000000   0.000000   0.000000
     8  C    0.000000   0.000000   0.000000   0.000068
     9  C    0.000000   0.000000  -0.000006   0.003477
    10  C    0.000004   0.000010   0.003706  -0.042439
    11  C   -0.000180  -0.000076   0.000758   0.005414
    12  C    0.005438  -0.008865   0.005028   0.000506
    13  C   -0.024138  -0.024337  -0.043140   0.003667
    14  N    0.343818   0.343725  -0.007237  -0.000107
    15  C   -0.008874   0.005428   0.365539  -0.034999
    16  C   -0.000015  -0.000167  -0.032261   0.366889
    17  H    0.000000  -0.000000  -0.000000  -0.000011
    18  H   -0.000000  -0.000000  -0.000000  -0.000000
    19  H    0.000000  -0.000000  -0.000000  -0.000000
    20  H    0.000000   0.000000  -0.000000   0.000000
    21  H   -0.000000  -0.000000  -0.000000  -0.000005
    22  H    0.000000  -0.000000  -0.000005  -0.000402
    23  H    0.000003  -0.000005   0.000017  -0.000150
    24  H   -0.000042   0.004549  -0.000174   0.000016
    25  H    0.424105  -0.027863   0.004473  -0.000006
    26  H   -0.027863   0.424518  -0.000036   0.000003
    27  H    0.004473  -0.000036   0.607193  -0.005667
    28  H   -0.000006   0.000003  -0.005667   0.595365
 Mulliken charges:
               1
     1  O   -0.529780
     2  C    0.303062
     3  C    0.031585
     4  C   -0.114215
     5  C   -0.137631
     6  C    0.269988
     7  N   -0.662245
     8  C   -0.139733
     9  C   -0.120546
    10  C    0.031586
    11  C   -0.114215
    12  C   -0.137630
    13  C    0.269986
    14  N   -0.662244
    15  C   -0.139732
    16  C   -0.120547
    17  H    0.105932
    18  H    0.102233
    19  H    0.283116
    20  H    0.283276
    21  H    0.101961
    22  H    0.109637
    23  H    0.105932
    24  H    0.102233
    25  H    0.283276
    26  H    0.283117
    27  H    0.101961
    28  H    0.109637
 Sum of Mulliken charges =  -0.00000
 Mulliken charges with hydrogens summed into heavy atoms:
               1
     1  O   -0.529780
     2  C    0.303062
     3  C    0.031585
     4  C   -0.008284
     5  C   -0.035398
     6  C    0.269988
     7  N   -0.095852
     8  C   -0.037772
     9  C   -0.010909
    10  C    0.031586
    11  C   -0.008284
    12  C   -0.035397
    13  C    0.269986
    14  N   -0.095851
    15  C   -0.037771
    16  C   -0.010910
 APT charges:
               1
     1  O    0.096471
     2  C   -0.499008
     3  C   -0.411639
     4  C   -0.559847
     5  C   -0.402428
     6  C    0.204674
     7  N   -1.317993
     8  C   -0.429750
     9  C   -0.567225
    10  C   -0.411642
    11  C   -0.559845
    12  C   -0.402426
    13  C    0.204676
    14  N   -1.317985
    15  C   -0.429750
    16  C   -0.567225
    17  H    0.476425
    18  H    0.793567
    19  H    0.962583
    20  H    0.683315
    21  H    0.537010
    22  H    0.232576
    23  H    0.476428
    24  H    0.793571
    25  H    0.683311
    26  H    0.962578
    27  H    0.537007
    28  H    0.232571
 Sum of APT charges =  -0.00000
 APT charges with hydrogens summed into heavy atoms:
               1
     1  O    0.096471
     2  C   -0.499008
     3  C   -0.411639
     4  C   -0.083422
     5  C    0.391138
     6  C    0.204674
     7  N    0.327905
     8  C    0.107259
     9  C   -0.334649
    10  C   -0.411642
    11  C   -0.083417
    12  C    0.391145
    13  C    0.204676
    14  N    0.327904
    15  C    0.107256
    16  C   -0.334654
 Electronic spatial extent (au):  <R**2>=           4749.4587
 Charge=             -0.0000 electrons
 Dipole moment (field-independent basis, Debye):
    X=             -0.0000    Y=             -7.2994    Z=              0.0000  Tot=              7.2994
 Quadrupole moment (field-independent basis, Debye-Ang):
   XX=            -52.5984   YY=            -90.0026   ZZ=            -91.8243
   XY=             -0.0002   XZ=            -14.7230   YZ=             -0.0002
 Traceless Quadrupole moment (field-independent basis, Debye-Ang):
   XX=             25.5434   YY=            -11.8608   ZZ=            -13.6826
   XY=             -0.0002   XZ=            -14.7230   YZ=             -0.0002
 Octapole moment (field-independent basis, Debye-Ang**2):
  XXX=             -0.0000  YYY=            -61.1184  ZZZ=              0.0002  XYY=             -0.0004
  XXY=            -86.4540  XXZ=              0.0002  XZZ=              0.0009  YZZ=             -0.4209
  YYZ=             -0.0002  XYZ=            -10.0450
 Hexadecapole moment (field-independent basis, Debye-Ang**3):
 XXXX=          -3849.9707 YYYY=           -889.3514 ZZZZ=           -263.0718 XXXY=             -0.0055
 XXXZ=           -491.7419 YYYX=              0.0004 YYYZ=             -0.0003 ZZZX=            -13.4545
 ZZZY=             -0.0006 XXYY=           -724.7533 XXZZ=           -915.6374 YYZZ=           -173.6345
 XXYZ=             -0.0020 YYXZ=              7.1708 ZZXY=             -0.0003
 N-N= 9.758634331969D+02 E-N=-3.549908881682D+03  KE= 6.809147407429D+02
  Exact polarizability:   0.000   0.000   0.000   0.000   0.000   0.000
 Approx polarizability: 361.898  -0.000 270.732 -30.720  -0.000 137.099
 D2PCM: PCM CHGder 2nd derivatives, FixD1E=F FixD2E=F DoIter=F DoCFld=F I1PDM=0
 Calling FoFJK, ICntrl=    100147 FMM=F ISym2X=0 I1Cent= 0 IOpClX= 0 NMat=1 NMatS=1 NMatT=0.
 ***** Axes restored to original set *****
 -------------------------------------------------------------------
 Center     Atomic                   Forces (Hartrees/Bohr)
 Number     Number              X              Y              Z
 -------------------------------------------------------------------
      1        8           0.000854576   -0.014477488   -0.004412402
      2        6          -0.000021794    0.000375685    0.000114333
      3        6           0.012437083    0.000908167   -0.002423488
      4        6          -0.015866538    0.002690587    0.002293649
      5        6           0.009893193   -0.010373628   -0.014333099
      6        6          -0.015336831   -0.004867359    0.014028133
      7        7           0.005119272    0.002566904   -0.005667852
      8        6           0.016524440    0.003574133    0.004287770
      9        6          -0.013059002    0.008742531    0.002159325
     10        6          -0.012376174   -0.001937697    0.002109730
     11        6           0.015400372    0.005201562    0.000111463
     12        6          -0.008243182   -0.017583151    0.005812043
     13        6           0.015303282    0.005439010   -0.013854031
     14        7          -0.005177561   -0.001588516    0.005966965
     15        6          -0.016944444    0.003550324   -0.002115649
     16        6           0.011963614    0.009811278    0.003495421
     17        1           0.001372964    0.002031793    0.001878617
     18        1          -0.000777938    0.002211237   -0.000117820
     19        1           0.000583611    0.001993907    0.002944665
     20        1          -0.001928501   -0.001854658   -0.001803858
     21        1          -0.001242023    0.000370476   -0.000882420
     22        1           0.000262883   -0.000320535   -0.002566595
     23        1          -0.001644690    0.002570609   -0.000475671
     24        1           0.000539026    0.001840671    0.001352802
     25        1           0.002174948   -0.002322704    0.000530366
     26        1          -0.000891000    0.003217776   -0.001356639
     27        1           0.001223149   -0.000051447    0.000979687
     28        1          -0.000142735   -0.001719467    0.001944558
 -------------------------------------------------------------------
 Cartesian Forces:  Max     0.017583151 RMS     0.007029916
 FormGI is forming the generalized inverse of G from B-inverse, IUseBI=4.

 GradGradGradGradGradGradGradGradGradGradGradGradGradGradGradGradGradGrad
 Berny optimization.
 Internal  Forces:  Max     0.015159065 RMS     0.003443849
 Search for a local minimum.
 Step number   1 out of a maximum of  148
 All quantities printed in internal units (Hartrees-Bohrs-Radians)
 Mixed Optimization -- RFO/linear search
 Second derivative matrix not updated -- analytic derivatives used.
 ITU=  0
     Eigenvalues ---    0.00370   0.00649   0.00649   0.00997   0.01511
     Eigenvalues ---    0.01513   0.01611   0.01634   0.01741   0.01764
     Eigenvalues ---    0.01779   0.01805   0.02019   0.02044   0.02183
     Eigenvalues ---    0.02204   0.02305   0.02374   0.02746   0.02749
     Eigenvalues ---    0.02857   0.02873   0.02965   0.02974   0.04772
     Eigenvalues ---    0.11103   0.11109   0.11456   0.11466   0.11816
     Eigenvalues ---    0.11825   0.12627   0.12632   0.13433   0.13446
     Eigenvalues ---    0.15300   0.15312   0.17732   0.17924   0.18706
     Eigenvalues ---    0.19146   0.19161   0.19507   0.19520   0.19564
     Eigenvalues ---    0.21628   0.21749   0.22255   0.24860   0.31780
     Eigenvalues ---    0.32025   0.32485   0.34550   0.35593   0.35594
     Eigenvalues ---    0.35783   0.35798   0.35919   0.35944   0.36352
     Eigenvalues ---    0.36454   0.38603   0.38661   0.41218   0.41277
     Eigenvalues ---    0.44306   0.44799   0.45591   0.45616   0.46062
     Eigenvalues ---    0.46067   0.46937   0.47038   0.47757   0.47874
     Eigenvalues ---    0.51562   0.51574   0.80951
 RFO step:  Lambda=-9.69761421D-03 EMin= 3.69926119D-03
 Linear search not attempted -- first point.
 Iteration  1 RMS(Cart)=  0.12058958 RMS(Int)=  0.00448492
 Iteration  2 RMS(Cart)=  0.00684251 RMS(Int)=  0.00040530
 Iteration  3 RMS(Cart)=  0.00003112 RMS(Int)=  0.00040513
 Iteration  4 RMS(Cart)=  0.00000000 RMS(Int)=  0.00040513
 Variable       Old X    -DE/DX   Delta X   Delta X   Delta X     New X
                                 (Linear)    (Quad)   (Total)
    R1        2.32137   0.01516   0.00000   0.01873   0.01873   2.34010
    R2        2.80650   0.00483   0.00000   0.00504   0.00504   2.81153
    R3        2.80650   0.00483   0.00000   0.00503   0.00503   2.81153
    R4        2.64118   0.00634   0.00000   0.01831   0.01823   2.65941
    R5        2.64201   0.00637   0.00000   0.01570   0.01566   2.65767
    R6        2.64209  -0.00781   0.00000  -0.02526  -0.02529   2.61680
    R7        2.05630  -0.00259   0.00000  -0.00556  -0.00556   2.05074
    R8        2.64027   0.01048   0.00000   0.02708   0.02713   2.66740
    R9        2.05413  -0.00011   0.00000  -0.00057  -0.00057   2.05356
   R10        2.64229  -0.00371   0.00000  -0.02854  -0.02854   2.61375
   R11        2.64133   0.00897   0.00000   0.02124   0.02131   2.66264
   R12        1.91871  -0.00273   0.00000  -0.00749  -0.00749   1.91122
   R13        1.91791  -0.00241   0.00000  -0.00675  -0.00675   1.91117
   R14        2.64395  -0.00655   0.00000  -0.01933  -0.01930   2.62465
   R15        2.05445  -0.00027   0.00000  -0.00119  -0.00119   2.05326
   R16        2.05350  -0.00139   0.00000  -0.00317  -0.00317   2.05033
   R17        2.64118   0.00634   0.00000   0.01831   0.01823   2.65941
   R18        2.64201   0.00637   0.00000   0.01570   0.01566   2.65767
   R19        2.64209  -0.00781   0.00000  -0.02526  -0.02529   2.61680
   R20        2.05630  -0.00259   0.00000  -0.00556  -0.00556   2.05074
   R21        2.64027   0.01048   0.00000   0.02708   0.02712   2.66740
   R22        2.05412  -0.00011   0.00000  -0.00057  -0.00057   2.05356
   R23        2.64229  -0.00371   0.00000  -0.02854  -0.02854   2.61375
   R24        2.64133   0.00897   0.00000   0.02124   0.02131   2.66264
   R25        1.91791  -0.00241   0.00000  -0.00674  -0.00674   1.91117
   R26        1.91871  -0.00273   0.00000  -0.00749  -0.00749   1.91122
   R27        2.64394  -0.00655   0.00000  -0.01933  -0.01930   2.62465
   R28        2.05445  -0.00027   0.00000  -0.00119  -0.00119   2.05326
   R29        2.05350  -0.00139   0.00000  -0.00317  -0.00317   2.05033
    A1        2.08086   0.00465   0.00000   0.01138   0.01138   2.09224
    A2        2.08086   0.00465   0.00000   0.01138   0.01138   2.09224
    A3        2.12146  -0.00931   0.00000  -0.02275  -0.02275   2.09871
    A4        2.06976   0.00189   0.00000   0.00143   0.00152   2.07127
    A5        2.12616   0.00261   0.00000   0.02694   0.02701   2.15317
    A6        2.08593  -0.00448   0.00000  -0.02848  -0.02864   2.05729
    A7        2.09589   0.00406   0.00000   0.02351   0.02333   2.11922
    A8        2.09815  -0.00369   0.00000  -0.02877  -0.02874   2.06941
    A9        2.08904  -0.00036   0.00000   0.00549   0.00552   2.09456
   A10        2.10726  -0.00092   0.00000  -0.00413  -0.00415   2.10312
   A11        2.07593   0.00230   0.00000   0.02029   0.02030   2.09623
   A12        2.09998  -0.00138   0.00000  -0.01616  -0.01615   2.08383
   A13        2.09838   0.00071   0.00000   0.00831   0.00679   2.10517
   A14        2.07096  -0.00135   0.00000  -0.00390  -0.00531   2.06565
   A15        2.09794   0.00128   0.00000   0.01234   0.01084   2.10878
   A16        1.99120   0.00217   0.00000   0.03051   0.02961   2.02081
   A17        1.99438   0.00190   0.00000   0.02930   0.02840   2.02278
   A18        1.96152  -0.00270   0.00000  -0.00192  -0.00316   1.95836
   A19        2.10949  -0.00129   0.00000  -0.00425  -0.00418   2.10531
   A20        2.09584  -0.00081   0.00000  -0.01122  -0.01127   2.08457
   A21        2.07781   0.00211   0.00000   0.01554   0.01549   2.09330
   A22        2.09246   0.00418   0.00000   0.02259   0.02253   2.11499
   A23        2.11480  -0.00378   0.00000  -0.02351  -0.02349   2.09131
   A24        2.07541  -0.00040   0.00000   0.00114   0.00116   2.07657
   A25        2.06976   0.00189   0.00000   0.00143   0.00152   2.07127
   A26        2.12616   0.00261   0.00000   0.02694   0.02701   2.15317
   A27        2.08593  -0.00448   0.00000  -0.02848  -0.02864   2.05729
   A28        2.09589   0.00406   0.00000   0.02351   0.02333   2.11922
   A29        2.09815  -0.00369   0.00000  -0.02877  -0.02874   2.06941
   A30        2.08904  -0.00036   0.00000   0.00549   0.00552   2.09456
   A31        2.10726  -0.00092   0.00000  -0.00413  -0.00415   2.10312
   A32        2.07593   0.00230   0.00000   0.02029   0.02030   2.09623
   A33        2.09998  -0.00138   0.00000  -0.01616  -0.01615   2.08383
   A34        2.09838   0.00071   0.00000   0.00831   0.00679   2.10517
   A35        2.07096  -0.00135   0.00000  -0.00390  -0.00531   2.06565
   A36        2.09794   0.00128   0.00000   0.01234   0.01084   2.10878
   A37        1.99438   0.00190   0.00000   0.02930   0.02840   2.02278
   A38        1.99119   0.00217   0.00000   0.03052   0.02962   2.02081
   A39        1.96152  -0.00270   0.00000  -0.00191  -0.00316   1.95836
   A40        2.10949  -0.00129   0.00000  -0.00425  -0.00418   2.10531
   A41        2.09584  -0.00081   0.00000  -0.01122  -0.01127   2.08457
   A42        2.07781   0.00211   0.00000   0.01553   0.01549   2.09330
   A43        2.09246   0.00418   0.00000   0.02258   0.02253   2.11499
   A44        2.11480  -0.00378   0.00000  -0.02351  -0.02349   2.09131
   A45        2.07541  -0.00040   0.00000   0.00114   0.00116   2.07657
    D1       -0.56650   0.00216   0.00000   0.11028   0.11033  -0.45616
    D2        2.51923   0.00236   0.00000   0.10715   0.10710   2.62633
    D3        2.57509   0.00216   0.00000   0.11028   0.11033   2.68543
    D4       -0.62236   0.00236   0.00000   0.10715   0.10710  -0.51526
    D5       -0.56646   0.00216   0.00000   0.11026   0.11032  -0.45614
    D6        2.51927   0.00236   0.00000   0.10714   0.10708   2.62635
    D7        2.57513   0.00216   0.00000   0.11026   0.11031   2.68545
    D8       -0.62232   0.00236   0.00000   0.10714   0.10708  -0.51524
    D9        3.12969  -0.00032   0.00000  -0.01383  -0.01377   3.11593
   D10        0.00387  -0.00082   0.00000  -0.03053  -0.03029  -0.02643
   D11        0.04265  -0.00074   0.00000  -0.01257  -0.01248   0.03017
   D12       -3.08318  -0.00124   0.00000  -0.02927  -0.02900  -3.11219
   D13       -3.12871   0.00094   0.00000   0.02825   0.02842  -3.10029
   D14       -0.02185   0.00111   0.00000   0.03580   0.03580   0.01395
   D15       -0.04349   0.00134   0.00000   0.02605   0.02613  -0.01736
   D16        3.06337   0.00151   0.00000   0.03359   0.03352   3.09689
   D17        0.02519  -0.00115   0.00000  -0.03417  -0.03402  -0.00883
   D18       -3.11109  -0.00118   0.00000  -0.03518  -0.03514   3.13695
   D19       -3.13208  -0.00068   0.00000  -0.01787  -0.01756   3.13354
   D20        0.01482  -0.00071   0.00000  -0.01888  -0.01869  -0.00387
   D21       -3.04195  -0.00158   0.00000  -0.03503  -0.03488  -3.07682
   D22       -0.09064   0.00230   0.00000   0.06541   0.06529  -0.02535
   D23        0.09426  -0.00153   0.00000  -0.03390  -0.03365   0.06062
   D24        3.04556   0.00235   0.00000   0.06654   0.06652   3.11208
   D25       -0.51502   0.00176   0.00000   0.07503   0.07575  -0.43927
   D26       -2.80556   0.00173   0.00000   0.01861   0.01855  -2.78702
   D27        2.81982  -0.00189   0.00000  -0.02519  -0.02513   2.79469
   D28        0.52927  -0.00193   0.00000  -0.08161  -0.08233   0.44694
   D29        0.08982  -0.00171   0.00000  -0.05179  -0.05184   0.03798
   D30       -3.04091  -0.00216   0.00000  -0.05832  -0.05833  -3.09924
   D31        3.04117   0.00211   0.00000   0.04818   0.04809   3.08926
   D32       -0.08956   0.00166   0.00000   0.04164   0.04159  -0.04797
   D33       -0.02340  -0.00010   0.00000   0.00676   0.00665  -0.01674
   D34       -3.13104  -0.00019   0.00000  -0.00011  -0.00017  -3.13121
   D35        3.10744   0.00033   0.00000   0.01307   0.01302   3.12046
   D36       -0.00020   0.00024   0.00000   0.00620   0.00619   0.00599
   D37        3.12969  -0.00032   0.00000  -0.01383  -0.01377   3.11593
   D38        0.00386  -0.00082   0.00000  -0.03052  -0.03029  -0.02643
   D39        0.04265  -0.00074   0.00000  -0.01257  -0.01248   0.03017
   D40       -3.08319  -0.00124   0.00000  -0.02927  -0.02900  -3.11219
   D41       -3.12871   0.00094   0.00000   0.02825   0.02842  -3.10030
   D42       -0.02185   0.00111   0.00000   0.03579   0.03580   0.01395
   D43       -0.04349   0.00134   0.00000   0.02605   0.02613  -0.01736
   D44        3.06337   0.00151   0.00000   0.03359   0.03351   3.09689
   D45        0.02519  -0.00115   0.00000  -0.03417  -0.03402  -0.00882
   D46       -3.11109  -0.00118   0.00000  -0.03518  -0.03514   3.13695
   D47       -3.13208  -0.00068   0.00000  -0.01787  -0.01757   3.13354
   D48        0.01482  -0.00071   0.00000  -0.01888  -0.01869  -0.00387
   D49       -3.04195  -0.00158   0.00000  -0.03503  -0.03487  -3.07682
   D50       -0.09064   0.00230   0.00000   0.06541   0.06529  -0.02535
   D51        0.09426  -0.00153   0.00000  -0.03390  -0.03364   0.06061
   D52        3.04556   0.00235   0.00000   0.06654   0.06652   3.11208
   D53       -2.80557   0.00173   0.00000   0.01861   0.01855  -2.78702
   D54       -0.51504   0.00176   0.00000   0.07504   0.07576  -0.43928
   D55        0.52926  -0.00193   0.00000  -0.08161  -0.08233   0.44694
   D56        2.81980  -0.00189   0.00000  -0.02518  -0.02512   2.79468
   D57        0.08982  -0.00171   0.00000  -0.05179  -0.05184   0.03798
   D58       -3.04091  -0.00216   0.00000  -0.05832  -0.05833  -3.09924
   D59        3.04118   0.00211   0.00000   0.04817   0.04808   3.08926
   D60       -0.08956   0.00166   0.00000   0.04164   0.04159  -0.04797
   D61       -0.02340  -0.00010   0.00000   0.00676   0.00666  -0.01674
   D62       -3.13105  -0.00019   0.00000  -0.00011  -0.00017  -3.13122
   D63        3.10744   0.00033   0.00000   0.01307   0.01302   3.12046
   D64       -0.00020   0.00024   0.00000   0.00620   0.00619   0.00599
         Item               Value     Threshold  Converged?
 Maximum Force            0.015159     0.000450     NO 
 RMS     Force            0.003444     0.000300     NO 
 Maximum Displacement     0.503536     0.001800     NO 
 RMS     Displacement     0.120364     0.001200     NO 
 Predicted change in Energy=-5.843103D-03
 GradGradGradGradGradGradGradGradGradGradGradGradGradGradGradGradGradGrad

                          Input orientation:                          
 ---------------------------------------------------------------------
 Center     Atomic      Atomic             Coordinates (Angstroms)
 Number     Number       Type             X           Y           Z
 ---------------------------------------------------------------------
      1          8           0        0.157223   -2.664045   -0.621316
      2          6           0        0.087427   -1.481391   -0.260872
      3          6           0       -1.239440   -0.868328    0.016842
      4          6           0       -2.374118   -1.392311   -0.630024
      5          6           0       -3.640202   -0.885117   -0.390603
      6          6           0       -3.826752    0.173015    0.524800
      7          7           0       -5.097457    0.630541    0.823201
      8          6           0       -2.700267    0.674255    1.206778
      9          6           0       -1.433154    0.167922    0.947732
     10          6           0        1.330750   -0.678855   -0.107146
     11          6           0        2.535860   -1.348205    0.175996
     12          6           0        3.731439   -0.660760    0.300671
     13          6           0        3.772846    0.740377    0.134818
     14          7           0        4.976430    1.420176    0.183047
     15          6           0        2.577175    1.411387   -0.189864
     16          6           0        1.381124    0.713629   -0.297795
     17          1           0       -2.240768   -2.210932   -1.329843
     18          1           0       -4.501164   -1.303153   -0.905286
     19          1           0       -5.799420    0.474755    0.111966
     20          1           0       -5.151024    1.561045    1.215774
     21          1           0       -2.829224    1.461539    1.944426
     22          1           0       -0.585655    0.566716    1.495371
     23          1           0        2.514453   -2.426350    0.297709
     24          1           0        4.648827   -1.198766    0.523956
     25          1           0        4.916596    2.411121    0.376101
     26          1           0        5.714043    0.971918    0.710178
     27          1           0        2.596347    2.484264   -0.360562
     28          1           0        0.478103    1.255550   -0.558708
 ---------------------------------------------------------------------
                    Distance matrix (angstroms):
                    1          2          3          4          5
     1  O    0.000000
     2  C    1.238330   0.000000
     3  C    2.362734   1.487799   0.000000
     4  C    2.832856   2.490666   1.407299   0.000000
     5  C    4.199792   3.777247   2.435149   1.384751   0.000000
     6  C    5.023400   4.321474   2.834890   2.427758   1.411526
     7  N    6.368092   5.702499   4.216767   3.690578   2.427783
     8  C    4.759352   3.817335   2.435062   2.784046   2.422137
     9  C    3.607111   2.548161   1.406377   2.410198   2.787668
    10  C    2.362735   1.487799   2.580145   3.808998   4.983297
    11  C    2.832852   2.490665   3.809002   4.975892   6.219262
    12  C    4.199789   3.777246   4.983300   6.219260   7.407381
    13  C    5.023401   4.321474   5.265440   6.551222   7.607337
    14  N    6.368093   5.702499   6.625851   7.912125   8.938109
    15  C    4.759355   3.817335   4.450435   5.706993   6.630988
    16  C    3.607115   2.548162   3.077164   4.318241   5.270513
    17  H    2.541197   2.663723   2.149140   1.085204   2.144382
    18  H    4.861403   4.637047   3.417343   2.146635   1.086696
    19  H    6.772841   6.214539   4.754613   3.971043   2.600779
    20  H    7.028782   6.235244   4.758128   4.454266   3.293439
    21  H    5.702836   4.693723   3.416325   3.870320   3.408348
    22  H    3.933198   2.780678   2.161674   3.399072   3.872334
    23  H    2.541188   2.663722   4.074068   5.082131   6.381924
    24  H    4.861398   4.637047   5.919294   7.119754   8.345226
    25  H    7.028782   6.235243   6.984313   8.284498   9.201729
    26  H    6.772839   6.214537   7.226212   8.532531   9.600114
    27  H    5.702842   4.693723   5.108382   6.309198   7.088595
    28  H    3.933206   2.780679   2.791427   3.892482   4.644474
                    6          7          8          9         10
     6  C    0.000000
     7  N    1.383136   0.000000
     8  C    1.409008   2.428078   0.000000
     9  C    2.430680   3.695489   1.388904   0.000000
    10  C    5.265440   6.625852   4.450438   3.077168   0.000000
    11  C    6.551229   7.912132   5.707003   4.318251   1.407299
    12  C    7.607343   8.938116   6.630999   5.270524   2.435149
    13  C    7.630719   8.897652   6.561606   5.300092   2.834890
    14  N    8.897652  10.125044   7.780494   6.575382   4.216767
    15  C    6.561599   7.780488   5.508662   4.350065   2.435062
    16  C    5.300084   6.575374   4.350062   3.125587   1.406377
    17  H    3.411488   4.568396   3.869094   3.390949   4.074063
    18  H    2.163111   2.661279   3.407960   3.874328   5.919290
    19  H    2.037867   1.011374   3.292896   4.456112   7.226213
    20  H    2.039061   1.011346   2.606278   3.979346   6.984316
    21  H    2.161179   2.663191   1.086540   2.148454   5.108387
    22  H    3.406129   4.562044   2.136922   1.084989   2.791436
    23  H    6.857051   8.219605   6.134612   4.768268   2.149140
    24  H    8.585874   9.920987   7.614699   6.248034   3.417344
    25  H    9.026481  10.180944   7.856420   6.758553   4.758127
    26  H    9.575979  10.817479   8.434206   7.196198   4.754612
    27  H    6.883454   8.002013   5.812642   4.828453   3.416325
    28  H    4.569206   5.778164   3.681967   2.665558   2.161674
                   11         12         13         14         15
    11  C    0.000000
    12  C    1.384751   0.000000
    13  C    2.427758   1.411527   0.000000
    14  N    3.690578   2.427783   1.383136   0.000000
    15  C    2.784046   2.422137   1.409008   2.428078   0.000000
    16  C    2.410198   2.787668   2.430680   3.695489   1.388904
    17  H    5.082127   6.381917   6.857041   8.219594   6.134600
    18  H    7.119754   8.345223   8.585865   9.920976   7.614685
    19  H    8.532536   9.600119   9.575979  10.817477   8.434200
    20  H    8.284507   9.201738   9.026485  10.180947   7.856416
    21  H    6.309210   7.088610   6.883465   8.002025   5.812646
    22  H    3.892497   4.644492   4.569223   5.778181   3.681980
    23  H    1.085204   2.144382   3.411488   4.568396   3.869094
    24  H    2.146635   1.086696   2.163111   2.661279   3.407960
    25  H    4.454266   3.293438   2.039060   1.011346   2.606276
    26  H    3.971042   2.600779   2.037866   1.011374   3.292895
    27  H    3.870320   3.408348   2.161178   2.663191   1.086540
    28  H    3.399073   3.872335   3.406129   4.562044   2.136922
                   16         17         18         19         20
    16  C    0.000000
    17  H    4.768258   0.000000
    18  H    6.248020   2.472590   0.000000
    19  H    7.196192   4.685694   2.425124   0.000000
    20  H    6.758547   5.401626   3.622823   1.678939   0.000000
    21  H    4.828452   4.955216   4.308104   3.626806   2.435486
    22  H    2.665566   4.293782   4.958909   5.394962   4.680755
    23  H    3.390949   5.030652   7.206084   8.807463   8.689172
    24  H    3.874329   7.206079   9.261532  10.589442  10.204522
    25  H    3.979344   8.689159  10.204508  10.892763  10.138277
    26  H    4.456110   8.807454  10.589435  11.539709  10.892768
    27  H    2.148454   6.810437   8.063245   8.645827   7.959833
    28  H    1.084989   4.472516   5.608936   6.361347   5.910092
                   21         22         23         24         25
    21  H    0.000000
    22  H    2.456820   0.000000
    23  H    6.810451   4.472528   0.000000
    24  H    8.063263   5.608955   2.472590   0.000000
    25  H    7.959842   5.910107   5.401626   3.622823   0.000000
    26  H    8.645838   6.361361   4.685695   2.425126   1.678938
    27  H    5.982956   4.152904   4.955215   4.308104   2.435483
    28  H    4.152893   2.413568   4.293782   4.958909   4.680752
                   26         27         28
    26  H    0.000000
    27  H    3.626804   0.000000
    28  H    5.394960   2.456819   0.000000
 Stoichiometry    C13H12N2O
 Framework group  C1[X(C13H12N2O)]
 Deg. of freedom    78
 Full point group                 C1      NOp   1
 Largest Abelian subgroup         C1      NOp   1
 Largest concise Abelian subgroup C1      NOp   1
                         Standard orientation:                         
[...]
    11    O    1  dxy    Ryd( 3d)     0.00319
    12    O    1  dxz    Ryd( 3d)     0.00001
    13    O    1  dyz    Ryd( 3d)     0.00334
    14    O    1  dx2y2  Ryd( 3d)     0.00349
    15    O    1  dz2    Ryd( 3d)     0.00106

    16    C    2  S      Cor( 1S)     1.99921
    17    C    2  S      Val( 2S)     0.80092
    18    C    2  S      Ryd( 3S)     0.00393
    19    C    2  S      Ryd( 4S)     0.00017
    20    C    2  px     Val( 2p)     0.99520
    21    C    2  px     Ryd( 3p)     0.00468
    22    C    2  py     Val( 2p)     0.80877
    23    C    2  py     Ryd( 3p)     0.01899
    24    C    2  pz     Val( 2p)     1.02163
    25    C    2  pz     Ryd( 3p)     0.00364
    26    C    2  dxy    Ryd( 3d)     0.00251
    27    C    2  dxz    Ryd( 3d)     0.00025
    28    C    2  dyz    Ryd( 3d)     0.00169
    29    C    2  dx2y2  Ryd( 3d)     0.00101
    30    C    2  dz2    Ryd( 3d)     0.00027

    31    C    3  S      Cor( 1S)     1.99899
    32    C    3  S      Val( 2S)     0.90977
    33    C    3  S      Ryd( 3S)     0.00123
    34    C    3  S      Ryd( 4S)     0.00006
    35    C    3  px     Val( 2p)     1.10346
    36    C    3  px     Ryd( 3p)     0.00536
    37    C    3  py     Val( 2p)     1.05963
    38    C    3  py     Ryd( 3p)     0.00502
    39    C    3  pz     Val( 2p)     0.98646
    40    C    3  pz     Ryd( 3p)     0.00171
    41    C    3  dxy    Ryd( 3d)     0.00067
    42    C    3  dxz    Ryd( 3d)     0.00082
    43    C    3  dyz    Ryd( 3d)     0.00050
    44    C    3  dx2y2  Ryd( 3d)     0.00074
    45    C    3  dz2    Ryd( 3d)     0.00040

    46    C    4  S      Cor( 1S)     1.99908
    47    C    4  S      Val( 2S)     0.95481
    48    C    4  S      Ryd( 3S)     0.00072
    49    C    4  S      Ryd( 4S)     0.00005
    50    C    4  px     Val( 2p)     1.05399
    51    C    4  px     Ryd( 3p)     0.00490
    52    C    4  py     Val( 2p)     1.17912
    53    C    4  py     Ryd( 3p)     0.00514
    54    C    4  pz     Val( 2p)     1.02940
    55    C    4  pz     Ryd( 3p)     0.00244
    56    C    4  dxy    Ryd( 3d)     0.00060
    57    C    4  dxz    Ryd( 3d)     0.00057
    58    C    4  dyz    Ryd( 3d)     0.00045
    59    C    4  dx2y2  Ryd( 3d)     0.00064
    60    C    4  dz2    Ryd( 3d)     0.00033

    61    C    5  S      Cor( 1S)     1.99905
    62    C    5  S      Val( 2S)     0.96098
    63    C    5  S      Ryd( 3S)     0.00064
    64    C    5  S      Ryd( 4S)     0.00004
    65    C    5  px     Val( 2p)     1.16444
    66    C    5  px     Ryd( 3p)     0.00442
    67    C    5  py     Val( 2p)     1.07116
    68    C    5  py     Ryd( 3p)     0.00359
    69    C    5  pz     Val( 2p)     1.04662
    70    C    5  pz     Ryd( 3p)     0.00144
    71    C    5  dxy    Ryd( 3d)     0.00055
    72    C    5  dxz    Ryd( 3d)     0.00053
    73    C    5  dyz    Ryd( 3d)     0.00047
    74    C    5  dx2y2  Ryd( 3d)     0.00069
    75    C    5  dz2    Ryd( 3d)     0.00036

    76    C    6  S      Cor( 1S)     1.99901
    77    C    6  S      Val( 2S)     0.84850
    78    C    6  S      Ryd( 3S)     0.00126
    79    C    6  S      Ryd( 4S)     0.00009
    80    C    6  px     Val( 2p)     0.93323
    81    C    6  px     Ryd( 3p)     0.00569
    82    C    6  py     Val( 2p)     1.03938
    83    C    6  py     Ryd( 3p)     0.00410
    84    C    6  pz     Val( 2p)     0.99847
    85    C    6  pz     Ryd( 3p)     0.00218
    86    C    6  dxy    Ryd( 3d)     0.00104
    87    C    6  dxz    Ryd( 3d)     0.00131
    88    C    6  dyz    Ryd( 3d)     0.00063
    89    C    6  dx2y2  Ryd( 3d)     0.00109
    90    C    6  dz2    Ryd( 3d)     0.00057

    91    N    7  S      Cor( 1S)     1.99948
    92    N    7  S      Val( 2S)     1.34906
    93    N    7  S      Ryd( 3S)     0.00013
    94    N    7  S      Ryd( 4S)     0.00001
    95    N    7  px     Val( 2p)     1.36618
    96    N    7  px     Ryd( 3p)     0.00251
    97    N    7  py     Val( 2p)     1.42827
    98    N    7  py     Ryd( 3p)     0.00217
    99    N    7  pz     Val( 2p)     1.61373
   100    N    7  pz     Ryd( 3p)     0.00369
   101    N    7  dxy    Ryd( 3d)     0.00029
   102    N    7  dxz    Ryd( 3d)     0.00098
   103    N    7  dyz    Ryd( 3d)     0.00029
   104    N    7  dx2y2  Ryd( 3d)     0.00070
   105    N    7  dz2    Ryd( 3d)     0.00065

   106    C    8  S      Cor( 1S)     1.99905
   107    C    8  S      Val( 2S)     0.96015
   108    C    8  S      Ryd( 3S)     0.00070
   109    C    8  S      Ryd( 4S)     0.00004
   110    C    8  px     Val( 2p)     1.06093
   111    C    8  px     Ryd( 3p)     0.00411
   112    C    8  py     Val( 2p)     1.16907
   113    C    8  py     Ryd( 3p)     0.00407
   114    C    8  pz     Val( 2p)     1.05182
   115    C    8  pz     Ryd( 3p)     0.00166
   116    C    8  dxy    Ryd( 3d)     0.00061
   117    C    8  dxz    Ryd( 3d)     0.00059
   118    C    8  dyz    Ryd( 3d)     0.00044
   119    C    8  dx2y2  Ryd( 3d)     0.00060
   120    C    8  dz2    Ryd( 3d)     0.00035

   121    C    9  S      Cor( 1S)     1.99908
   122    C    9  S      Val( 2S)     0.95417
   123    C    9  S      Ryd( 3S)     0.00074
   124    C    9  S      Ryd( 4S)     0.00005
   125    C    9  px     Val( 2p)     1.15136
   126    C    9  px     Ryd( 3p)     0.00409
   127    C    9  py     Val( 2p)     1.08703
   128    C    9  py     Ryd( 3p)     0.00398
   129    C    9  pz     Val( 2p)     1.03711
   130    C    9  pz     Ryd( 3p)     0.00186
   131    C    9  dxy    Ryd( 3d)     0.00063
   132    C    9  dxz    Ryd( 3d)     0.00056
   133    C    9  dyz    Ryd( 3d)     0.00050
   134    C    9  dx2y2  Ryd( 3d)     0.00061
   135    C    9  dz2    Ryd( 3d)     0.00034

   136    C   10  S      Cor( 1S)     1.99899
   137    C   10  S      Val( 2S)     0.90977
   138    C   10  S      Ryd( 3S)     0.00123
   139    C   10  S      Ryd( 4S)     0.00006
   140    C   10  px     Val( 2p)     1.10346
   141    C   10  px     Ryd( 3p)     0.00536
   142    C   10  py     Val( 2p)     1.05963
   143    C   10  py     Ryd( 3p)     0.00502
   144    C   10  pz     Val( 2p)     0.98646
   145    C   10  pz     Ryd( 3p)     0.00171
   146    C   10  dxy    Ryd( 3d)     0.00067
   147    C   10  dxz    Ryd( 3d)     0.00082
   148    C   10  dyz    Ryd( 3d)     0.00050
   149    C   10  dx2y2  Ryd( 3d)     0.00074
   150    C   10  dz2    Ryd( 3d)     0.00040

   151    C   11  S      Cor( 1S)     1.99908
   152    C   11  S      Val( 2S)     0.95481
   153    C   11  S      Ryd( 3S)     0.00072
   154    C   11  S      Ryd( 4S)     0.00005
   155    C   11  px     Val( 2p)     1.05399
   156    C   11  px     Ryd( 3p)     0.00490
   157    C   11  py     Val( 2p)     1.17912
   158    C   11  py     Ryd( 3p)     0.00514
   159    C   11  pz     Val( 2p)     1.02940
   160    C   11  pz     Ryd( 3p)     0.00244
   161    C   11  dxy    Ryd( 3d)     0.00060
   162    C   11  dxz    Ryd( 3d)     0.00057
   163    C   11  dyz    Ryd( 3d)     0.00045
   164    C   11  dx2y2  Ryd( 3d)     0.00064
   165    C   11  dz2    Ryd( 3d)     0.00033

   166    C   12  S      Cor( 1S)     1.99905
   167    C   12  S      Val( 2S)     0.96098
   168    C   12  S      Ryd( 3S)     0.00064
   169    C   12  S      Ryd( 4S)     0.00004
   170    C   12  px     Val( 2p)     1.16444
   171    C   12  px     Ryd( 3p)     0.00442
   172    C   12  py     Val( 2p)     1.07116
   173    C   12  py     Ryd( 3p)     0.00359
   174    C   12  pz     Val( 2p)     1.04662
   175    C   12  pz     Ryd( 3p)     0.00144
   176    C   12  dxy    Ryd( 3d)     0.00055
   177    C   12  dxz    Ryd( 3d)     0.00053
   178    C   12  dyz    Ryd( 3d)     0.00047
   179    C   12  dx2y2  Ryd( 3d)     0.00069
   180    C   12  dz2    Ryd( 3d)     0.00036

   181    C   13  S      Cor( 1S)     1.99901
   182    C   13  S      Val( 2S)     0.84850
   183    C   13  S      Ryd( 3S)     0.00126
   184    C   13  S      Ryd( 4S)     0.00009
   185    C   13  px     Val( 2p)     0.93323
   186    C   13  px     Ryd( 3p)     0.00569
   187    C   13  py     Val( 2p)     1.03938
   188    C   13  py     Ryd( 3p)     0.00410
   189    C   13  pz     Val( 2p)     0.99847
   190    C   13  pz     Ryd( 3p)     0.00218
   191    C   13  dxy    Ryd( 3d)     0.00104
   192    C   13  dxz    Ryd( 3d)     0.00131
   193    C   13  dyz    Ryd( 3d)     0.00063
   194    C   13  dx2y2  Ryd( 3d)     0.00109
   195    C   13  dz2    Ryd( 3d)     0.00057

   196    N   14  S      Cor( 1S)     1.99948
   197    N   14  S      Val( 2S)     1.34906
   198    N   14  S      Ryd( 3S)     0.00013
   199    N   14  S      Ryd( 4S)     0.00001
   200    N   14  px     Val( 2p)     1.36618
   201    N   14  px     Ryd( 3p)     0.00251
   202    N   14  py     Val( 2p)     1.42827
   203    N   14  py     Ryd( 3p)     0.00217
   204    N   14  pz     Val( 2p)     1.61373
   205    N   14  pz     Ryd( 3p)     0.00369
   206    N   14  dxy    Ryd( 3d)     0.00029
   207    N   14  dxz    Ryd( 3d)     0.00098
   208    N   14  dyz    Ryd( 3d)     0.00029
   209    N   14  dx2y2  Ryd( 3d)     0.00070
   210    N   14  dz2    Ryd( 3d)     0.00065

   211    C   15  S      Cor( 1S)     1.99905
   212    C   15  S      Val( 2S)     0.96015
   213    C   15  S      Ryd( 3S)     0.00070
   214    C   15  S      Ryd( 4S)     0.00004
   215    C   15  px     Val( 2p)     1.06093
   216    C   15  px     Ryd( 3p)     0.00411
   217    C   15  py     Val( 2p)     1.16907
   218    C   15  py     Ryd( 3p)     0.00407
   219    C   15  pz     Val( 2p)     1.05182
   220    C   15  pz     Ryd( 3p)     0.00166
   221    C   15  dxy    Ryd( 3d)     0.00061
   222    C   15  dxz    Ryd( 3d)     0.00059
   223    C   15  dyz    Ryd( 3d)     0.00044
   224    C   15  dx2y2  Ryd( 3d)     0.00060
   225    C   15  dz2    Ryd( 3d)     0.00035

   226    C   16  S      Cor( 1S)     1.99908
   227    C   16  S      Val( 2S)     0.95417
   228    C   16  S      Ryd( 3S)     0.00074
   229    C   16  S      Ryd( 4S)     0.00005
   230    C   16  px     Val( 2p)     1.15136
   231    C   16  px     Ryd( 3p)     0.00409
   232    C   16  py     Val( 2p)     1.08703
   233    C   16  py     Ryd( 3p)     0.00398
   234    C   16  pz     Val( 2p)     1.03711
   235    C   16  pz     Ryd( 3p)     0.00186
   236    C   16  dxy    Ryd( 3d)     0.00063
   237    C   16  dxz    Ryd( 3d)     0.00056
   238    C   16  dyz    Ryd( 3d)     0.00050
   239    C   16  dx2y2  Ryd( 3d)     0.00061
   240    C   16  dz2    Ryd( 3d)     0.00034

   241    H   17  S      Val( 1S)     0.74532
   242    H   17  S      Ryd( 2S)     0.00241
   243    H   17  px     Ryd( 2p)     0.00008
   244    H   17  py     Ryd( 2p)     0.00037
   245    H   17  pz     Ryd( 2p)     0.00015

   246    H   18  S      Val( 1S)     0.75007
   247    H   18  S      Ryd( 2S)     0.00096
   248    H   18  px     Ryd( 2p)     0.00028
   249    H   18  py     Ryd( 2p)     0.00016
   250    H   18  pz     Ryd( 2p)     0.00016

   251    H   19  S      Val( 1S)     0.56840
   252    H   19  S      Ryd( 2S)     0.00128
   253    H   19  px     Ryd( 2p)     0.00042
   254    H   19  py     Ryd( 2p)     0.00024
   255    H   19  pz     Ryd( 2p)     0.00054

   256    H   20  S      Val( 1S)     0.56819
   257    H   20  S      Ryd( 2S)     0.00125
   258    H   20  px     Ryd( 2p)     0.00020
   259    H   20  py     Ryd( 2p)     0.00062
   260    H   20  pz     Ryd( 2p)     0.00039

   261    H   21  S      Val( 1S)     0.74915
   262    H   21  S      Ryd( 2S)     0.00096
   263    H   21  px     Ryd( 2p)     0.00006
   264    H   21  py     Ryd( 2p)     0.00036
   265    H   21  pz     Ryd( 2p)     0.00017

   266    H   22  S      Val( 1S)     0.74852
   267    H   22  S      Ryd( 2S)     0.00111
   268    H   22  px     Ryd( 2p)     0.00028
   269    H   22  py     Ryd( 2p)     0.00015
   270    H   22  pz     Ryd( 2p)     0.00016

   271    H   23  S      Val( 1S)     0.74532
   272    H   23  S      Ryd( 2S)     0.00241
   273    H   23  px     Ryd( 2p)     0.00008
   274    H   23  py     Ryd( 2p)     0.00037
   275    H   23  pz     Ryd( 2p)     0.00015

   276    H   24  S      Val( 1S)     0.75007
   277    H   24  S      Ryd( 2S)     0.00096
   278    H   24  px     Ryd( 2p)     0.00028
   279    H   24  py     Ryd( 2p)     0.00016
   280    H   24  pz     Ryd( 2p)     0.00016

   281    H   25  S      Val( 1S)     0.56819
   282    H   25  S      Ryd( 2S)     0.00125
   283    H   25  px     Ryd( 2p)     0.00020
   284    H   25  py     Ryd( 2p)     0.00062
   285    H   25  pz     Ryd( 2p)     0.00039

   286    H   26  S      Val( 1S)     0.56840
   287    H   26  S      Ryd( 2S)     0.00128
   288    H   26  px     Ryd( 2p)     0.00042
   289    H   26  py     Ryd( 2p)     0.00024
   290    H   26  pz     Ryd( 2p)     0.00054

   291    H   27  S      Val( 1S)     0.74915
   292    H   27  S      Ryd( 2S)     0.00096
   293    H   27  px     Ryd( 2p)     0.00006
   294    H   27  py     Ryd( 2p)     0.00036
   295    H   27  pz     Ryd( 2p)     0.00017

   296    H   28  S      Val( 1S)     0.74852
   297    H   28  S      Ryd( 2S)     0.00111
   298    H   28  px     Ryd( 2p)     0.00028
   299    H   28  py     Ryd( 2p)     0.00015
   300    H   28  pz     Ryd( 2p)     0.00016

 WARNING:  1 low occupancy (<1.9990e) core orbital  found on  C    3
           1 low occupancy (<1.9990e) core orbital  found on  C   10


 Summary of Natural Population Analysis:                  
                                                          
                                       Natural Population 
                Natural  -----------------------------------------------
    Atom  No    Charge         Core      Valence    Rydberg      Total
 -----------------------------------------------------------------------
      O    1   -0.72624      1.99982     6.71049    0.01593     8.72624
      C    2    0.33713      1.99921     3.62652    0.03714     5.66287
      C    3   -0.07483      1.99899     4.05933    0.01652     6.07483
      C    4   -0.23224      1.99908     4.21732    0.01584     6.23224
      C    5   -0.25499      1.99905     4.24321    0.01273     6.25499
      C    6    0.16344      1.99901     3.81958    0.01797     5.83656
      N    7   -0.76813      1.99948     5.75724    0.01141     7.76813
      C    8   -0.25419      1.99905     4.24197    0.01317     6.25419
      C    9   -0.24212      1.99908     4.22967    0.01336     6.24212
      C   10   -0.07483      1.99899     4.05933    0.01652     6.07483
      C   11   -0.23224      1.99908     4.21732    0.01584     6.23224
      C   12   -0.25499      1.99905     4.24321    0.01273     6.25499
      C   13    0.16343      1.99901     3.81958    0.01797     5.83657
      N   14   -0.76813      1.99948     5.75724    0.01141     7.76813
      C   15   -0.25419      1.99905     4.24197    0.01317     6.25419
      C   16   -0.24212      1.99908     4.22967    0.01336     6.24212
      H   17    0.25167      0.00000     0.74532    0.00301     0.74833
      H   18    0.24838      0.00000     0.75007    0.00155     0.75162
      H   19    0.42912      0.00000     0.56840    0.00248     0.57088
      H   20    0.42936      0.00000     0.56819    0.00245     0.57064
      H   21    0.24931      0.00000     0.74915    0.00155     0.75069
      H   22    0.24978      0.00000     0.74852    0.00170     0.75022
      H   23    0.25167      0.00000     0.74532    0.00301     0.74833
      H   24    0.24838      0.00000     0.75007    0.00155     0.75162
      H   25    0.42936      0.00000     0.56819    0.00245     0.57064
      H   26    0.42912      0.00000     0.56840    0.00248     0.57088
      H   27    0.24931      0.00000     0.74915    0.00155     0.75069
      H   28    0.24978      0.00000     0.74852    0.00170     0.75022
 =======================================================================
   * Total *    0.00000     31.98651    79.73291    0.28058   112.00000

                                 Natural Population      
 --------------------------------------------------------
   Core                      31.98651 ( 99.9578% of  32)
   Valence                   79.73291 ( 99.6661% of  80)
   Natural Minimal Basis    111.71942 ( 99.7495% of 112)
   Natural Rydberg Basis      0.28058 (  0.2505% of 112)
 --------------------------------------------------------

    Atom  No          Natural Electron Configuration
 ----------------------------------------------------------------------------
      O    1      [core]2S( 1.69)2p( 5.02)3d( 0.01)
      C    2      [core]2S( 0.80)2p( 2.83)3p( 0.03)3d( 0.01)
      C    3      [core]2S( 0.91)2p( 3.15)3p( 0.01)
      C    4      [core]2S( 0.95)2p( 3.26)3p( 0.01)
      C    5      [core]2S( 0.96)2p( 3.28)3p( 0.01)
      C    6      [core]2S( 0.85)2p( 2.97)3p( 0.01)
      N    7      [core]2S( 1.35)2p( 4.41)3p( 0.01)
      C    8      [core]2S( 0.96)2p( 3.28)3p( 0.01)
      C    9      [core]2S( 0.95)2p( 3.28)3p( 0.01)
      C   10      [core]2S( 0.91)2p( 3.15)3p( 0.01)
      C   11      [core]2S( 0.95)2p( 3.26)3p( 0.01)
      C   12      [core]2S( 0.96)2p( 3.28)3p( 0.01)
      C   13      [core]2S( 0.85)2p( 2.97)3p( 0.01)
      N   14      [core]2S( 1.35)2p( 4.41)3p( 0.01)
      C   15      [core]2S( 0.96)2p( 3.28)3p( 0.01)
      C   16      [core]2S( 0.95)2p( 3.28)3p( 0.01)
      H   17            1S( 0.75)
      H   18            1S( 0.75)
      H   19            1S( 0.57)
      H   20            1S( 0.57)
      H   21            1S( 0.75)
      H   22            1S( 0.75)
      H   23            1S( 0.75)
      H   24            1S( 0.75)
      H   25            1S( 0.57)
      H   26            1S( 0.57)
      H   27            1S( 0.75)
      H   28            1S( 0.75)


 NBO analysis skipped by request.
 1\1\GINC-DRG2-W012\SP\RB3LYP TD-FC\6-31G(d,p)\C13H12N2O1\QDUEZ\21-Jul-
 2024\0\\# TD(NStates=10, Root=1) B3LYP/6-31G** SCRF=(Solvent=water) vo
 lume pop=NPA density=current Geom=AllCheck Guess=Read\\ZLSMCQSGRWNEGX-
 UHFFFAOYSA-N_conf_2\\0,1\O,0,0.1553559528,-2.6324009446,-0.6116913719\
 C,0,0.0855018687,-1.4487705044,-0.2509409691\C,0,-1.2458424441,-0.8388
 940139,0.015026087\C,0,-2.3750793558,-1.3935918859,-0.6182010921\C,0,-
 3.6502592964,-0.9074474346,-0.3846274066\C,0,-3.8574132109,0.150722707
 ,0.5284831728\N,0,-5.1315129119,0.5988957954,0.8118355923\C,0,-2.73518
 64998,0.6930293469,1.188251991\C,0,-1.4595616581,0.2097716199,0.929234
 6316\C,0,1.3340021734,-0.6549120416,-0.0890734101\C,0,2.5365599085,-1.
 3425818311,0.1654998908\C,0,3.7436363377,-0.6747589891,0.2836357111\C,
 0,3.8055920094,0.7273523606,0.1203782878\N,0,5.0140496557,1.3914393332
 ,0.1760235346\C,0,2.6104630504,1.4203208285,-0.1628982975\C,0,1.403468
 6329,0.7406830306,-0.2583116458\H,0,-2.2263366337,-2.214775055,-1.3117
 585224\H,0,-4.5033800384,-1.3398229031,-0.9004932036\H,0,-5.844832247,
 0.4039875205,0.1230688968\H,0,-5.2099230151,1.5230967586,1.2130561642\
 H,0,-2.8764050219,1.4921882902,1.9106257222\H,0,-0.6211327775,0.636347
 5536,1.4689782632\H,0,2.4999266099,-2.4210141058,0.2800858016\H,0,4.65
 48123121,-1.2260868068,0.499684426\H,0,4.9792987646,2.3846715867,0.359
 2053725\H,0,5.7664203685,0.9246492552,0.6631155336\H,0,2.6410454378,2.
 4958122752,-0.3139094397\H,0,0.5067320284,1.3020882539,-0.4969344504\\
 Version=ES64L-G16RevA.03\State=1-A\HF=-687.3880473\RMSD=7.528e-09\Dipo
 le=-0.233221,3.9513788,1.2043157\Quadrupole=36.7160715,-17.736794,-18.
 9792775,1.1304582,6.7983295,0.837371\PG=C01 [X(C13H12N2O1)]\\@


 WE DON'T KNOW ONE MILLIONTH OF ONE PERCENT ABOUT
 ANYTHING.
                                     T. A. EDISON.
 Job cpu time:       0 days  0 hours 47 minutes  8.9 seconds.
 Elapsed time:       0 days  0 hours 16 minutes 17.7 seconds.
 File lengths (MBytes):  RWF=    766 Int=      0 D2E=      0 Chk=     47 Scr=      1
 Normal termination of Gaussian 16 at Sun Jul 21 13:50:11 2024.
