 Entering Gaussian System, Link 0=g16
 Initial command:
 /opt/sw/arch/manual/gaussian/G16_A03/g16/l1.exe "/scratch/1381402/Gau-248226.inp" -scrdir="/scratch/1381402/"
 Entering Link 1 = /opt/sw/arch/manual/gaussian/G16_A03/g16/l1.exe PID=    248229.
  
 Copyright (c) 1988,1990,1992,1993,1995,1998,2003,2009,2016,
            Gaussian, Inc.  All Rights Reserved.
  
 This is part of the Gaussian(R) 16 program.  It is based on
 the Gaussian(R) 09 system (copyright 2009, Gaussian, Inc.),
 the Gaussian(R) 03 system (copyright 2003, Gaussian, Inc.),
 the Gaussian(R) 98 system (copyright 1998, Gaussian, Inc.),
 the Gaussian(R) 94 system (copyright 1995, Gaussian, Inc.),
 the Gaussian 92(TM) system (copyright 1992, Gaussian, Inc.),
 the Gaussian 90(TM) system (copyright 1990, Gaussian, Inc.),
 the Gaussian 88(TM) system (copyright 1988, Gaussian, Inc.),
 the Gaussian 86(TM) system (copyright 1986, Carnegie Mellon
 University), and the Gaussian 82(TM) system (copyright 1983,
 Carnegie Mellon University). Gaussian is a federally registered
 trademark of Gaussian, Inc.
  
 This software contains proprietary and confidential information,
 including trade secrets, belonging to Gaussian, Inc.
  
 This software is provided under written license and may be
 used, copied, transmitted, or stored only in accord with that
 written license.
  
 The following legend is applicable only to US Government
 contracts under FAR:
  
                    RESTRICTED RIGHTS LEGEND
  
 Use, reproduction and disclosure by the US Government is
 subject to restrictions as set forth in subparagraphs (a)
 and (c) of the Commercial Computer Software - Restricted
 Rights clause in FAR 52.227-19.
  
 Gaussian, Inc.
 340 Quinnipiac St., Bldg. 40, Wallingford CT 06492
  
  
 ---------------------------------------------------------------
 Warning -- This program may not be used in any manner that
 competes with the business of Gaussian, Inc. or will provide
 assistance to any competitor of Gaussian, Inc.  The licensee
 of this program is prohibited from giving any competitor of
 Gaussian, Inc. access to this program.  By using this program,
 the user acknowledges that Gaussian, Inc. is engaged in the
 business of creating and licensing software in the field of
 computational chemistry and represents and warrants to the
 licensee that it is not a competitor of Gaussian, Inc. and that
 it will not use this program in any manner prohibited above.
 ---------------------------------------------------------------
  

 Cite this work as:
 Gaussian 16, Revision A.03,
 M. J. Frisch, G. W. Trucks, H. B. Schlegel, G. E. Scuseria, 
 M. A. Robb, J. R. Cheeseman, G. Scalmani, V. Barone, 
 G. A. Petersson, H. Nakatsuji, X. Li, M. Caricato, A. V. Marenich, 
 J. Bloino, B. G. Janesko, R. Gomperts, B. Mennucci, H. P. Hratchian, 
 J. V. Ortiz, A. F. Izmaylov, J. L. Sonnenberg, D. Williams-Young, 
 F. Ding, F. Lipparini, F. Egidi, J. Goings, B. Peng, A. Petrone, 
 T. Henderson, D. Ranasinghe, V. G. Zakrzewski, J. Gao, N. Rega, 
 G. Zheng, W. Liang, M. Hada, M. Ehara, K. Toyota, R. Fukuda, 
 J. Hasegawa, M. Ishida, T. Nakajima, Y. Honda, O. Kitao, H. Nakai, 
 T. Vreven, K. Throssell, J. A. Montgomery, Jr., J. E. Peralta, 
 F. Ogliaro, M. J. Bearpark, J. J. Heyd, E. N. Brothers, K. N. Kudin, 
 V. N. Staroverov, T. A. Keith, R. Kobayashi, J. Normand, 
 K. Raghavachari, A. P. Rendell, J. C. Burant, S. S. Iyengar, 
 J. Tomasi, M. Cossi, J. M. Millam, M. Klene, C. Adamo, R. Cammi, 
 J. W. Ochterski, R. L. Martin, K. Morokuma, O. Farkas, 
 J. B. Foresman, and D. J. Fox, Gaussian, Inc., Wallingford CT, 2016.
 
 ******************************************
 Gaussian 16:  ES64L-G16RevA.03 25-Dec-2016
                19-Jul-2024 
 ******************************************
 %nprocshared=3
 Will use up to    3 processors via shared memory.
 %mem=6GB
 %Chk=VOZKAJLKRJDJLL-UHFFFAOYSA-N_conf_0_0.chk
 -------------------------------------------------------
 # opt=CalcFc B3LYP/6-31G** SCRF=(Solvent=water) scf=xqc
 -------------------------------------------------------
 1/10=4,18=20,19=15,26=3,38=1/1,3;
 2/9=110,12=2,17=6,18=5,40=1/2;
 3/5=1,6=6,7=101,11=2,25=1,30=1,70=2201,71=2,72=1,74=-5,140=1/1,2,3;
 4//1;
 5/5=2,8=3,13=1,38=5,53=1/2,8;
 8/6=4,10=90,11=11/1;
 11/6=1,8=1,9=11,15=111,16=1/1,2,10;
 10/6=1,13=1/2;
 6/7=2,8=2,9=2,10=2,28=1/1;
 7/10=1,18=20,25=1/1,2,3,16;
 1/10=4,18=20,19=15,26=3/3(2);
 2/9=110/2;
 99//99;
 2/9=110/2;
 3/5=1,6=6,7=101,11=2,25=1,30=1,70=2205,71=1,72=1,74=-5/1,2,3;
 4/5=5,16=3,69=1/1;
 5/5=2,8=3,13=1,38=5,53=1/2,8;
 7//1,2,3,16;
 1/18=20,19=15,26=3/3(-5);
 2/9=110/2;
 6/7=2,8=2,9=2,10=2,19=2,28=1/1;
 99/9=1/99;
 ----------------------------------
 VOZKAJLKRJDJLL-UHFFFAOYSA-N_conf_0
 ----------------------------------
 Symbolic Z-matrix:
 Charge =  0 Multiplicity = 1
 C                    -2.39537   0.91731   0.2841 
 C                    -0.9504    0.51128   0.19588 
 C                     0.03488   1.38657   0.67806 
 C                     1.38953   1.06278   0.57806 
 C                     1.78851  -0.14796   0.01726 
 N                     3.1464   -0.40475  -0.21314 
 C                     0.80781  -0.98991  -0.51634 
 C                    -0.56157  -0.71445  -0.37094 
 N                    -1.49362  -1.56163  -0.99469 
 H                    -2.5095    1.9065    0.74025 
 H                    -2.83998   0.96264  -0.7153 
 H                    -2.95243   0.20454   0.90063 
 H                    -0.24464   2.34318   1.11341 
 H                     2.13038   1.77637   0.92764 
 H                     3.7667    0.05329   0.44668 
 H                     3.36208  -1.38968  -0.32833 
 H                     1.11427  -1.88344  -1.05311 
 H                    -2.42425  -1.51483  -0.59496 
 H                    -1.16881  -2.51781  -1.09514 
 

 GradGradGradGradGradGradGradGradGradGradGradGradGradGradGradGradGradGrad
 Berny optimization.
 Initialization pass.
                           ----------------------------
                           !    Initial Parameters    !
                           ! (Angstroms and Degrees)  !
 --------------------------                            --------------------------
 ! Name  Definition              Value          Derivative Info.                !
 --------------------------------------------------------------------------------
 ! R1    R(1,2)                  1.5035         calculate D2E/DX2 analytically  !
 ! R2    R(1,10)                 1.0953         calculate D2E/DX2 analytically  !
 ! R3    R(1,11)                 1.0948         calculate D2E/DX2 analytically  !
 ! R4    R(1,12)                 1.0947         calculate D2E/DX2 analytically  !
 ! R5    R(2,3)                  1.4034         calculate D2E/DX2 analytically  !
 ! R6    R(2,8)                  1.4053         calculate D2E/DX2 analytically  !
 ! R7    R(3,4)                  1.3964         calculate D2E/DX2 analytically  !
 ! R8    R(3,13)                 1.0875         calculate D2E/DX2 analytically  !
 ! R9    R(4,5)                  1.3927         calculate D2E/DX2 analytically  !
 ! R10   R(4,14)                 1.0864         calculate D2E/DX2 analytically  !
 ! R11   R(5,6)                  1.401          calculate D2E/DX2 analytically  !
 ! R12   R(5,7)                  1.3983         calculate D2E/DX2 analytically  !
 ! R13   R(6,15)                 1.0149         calculate D2E/DX2 analytically  !
 ! R14   R(6,16)                 1.0148         calculate D2E/DX2 analytically  !
 ! R15   R(7,8)                  1.4044         calculate D2E/DX2 analytically  !
 ! R16   R(7,17)                 1.0865         calculate D2E/DX2 analytically  !
 ! R17   R(8,9)                  1.4055         calculate D2E/DX2 analytically  !
 ! R18   R(9,18)                 1.0139         calculate D2E/DX2 analytically  !
 ! R19   R(9,19)                 1.0148         calculate D2E/DX2 analytically  !
 ! A1    A(2,1,10)             111.6216         calculate D2E/DX2 analytically  !
 ! A2    A(2,1,11)             110.3598         calculate D2E/DX2 analytically  !
 ! A3    A(2,1,12)             110.2581         calculate D2E/DX2 analytically  !
 ! A4    A(10,1,11)            107.4865         calculate D2E/DX2 analytically  !
 ! A5    A(10,1,12)            107.4853         calculate D2E/DX2 analytically  !
 ! A6    A(11,1,12)            109.5375         calculate D2E/DX2 analytically  !
 ! A7    A(1,2,3)              119.0879         calculate D2E/DX2 analytically  !
 ! A8    A(1,2,8)              121.6766         calculate D2E/DX2 analytically  !
 ! A9    A(3,2,8)              119.2313         calculate D2E/DX2 analytically  !
 ! A10   A(2,3,4)              120.7882         calculate D2E/DX2 analytically  !
 ! A11   A(2,3,13)             120.3784         calculate D2E/DX2 analytically  !
 ! A12   A(4,3,13)             118.8139         calculate D2E/DX2 analytically  !
 ! A13   A(3,4,5)              120.5538         calculate D2E/DX2 analytically  !
 ! A14   A(3,4,14)             119.0906         calculate D2E/DX2 analytically  !
 ! A15   A(5,4,14)             120.3466         calculate D2E/DX2 analytically  !
 ! A16   A(4,5,6)              120.2137         calculate D2E/DX2 analytically  !
 ! A17   A(4,5,7)              118.4361         calculate D2E/DX2 analytically  !
 ! A18   A(6,5,7)              120.4389         calculate D2E/DX2 analytically  !
 ! A19   A(5,6,15)             113.7504         calculate D2E/DX2 analytically  !
 ! A20   A(5,6,16)             113.737          calculate D2E/DX2 analytically  !
 ! A21   A(15,6,16)            112.4531         calculate D2E/DX2 analytically  !
 ! A22   A(5,7,8)              121.7524         calculate D2E/DX2 analytically  !
 ! A23   A(5,7,17)             119.0703         calculate D2E/DX2 analytically  !
 ! A24   A(8,7,17)             119.1766         calculate D2E/DX2 analytically  !
 ! A25   A(2,8,7)              118.8579         calculate D2E/DX2 analytically  !
 ! A26   A(2,8,9)              121.4156         calculate D2E/DX2 analytically  !
 ! A27   A(7,8,9)              118.8451         calculate D2E/DX2 analytically  !
 ! A28   A(8,9,18)             113.9457         calculate D2E/DX2 analytically  !
 ! A29   A(8,9,19)             113.5528         calculate D2E/DX2 analytically  !
 ! A30   A(18,9,19)            112.1041         calculate D2E/DX2 analytically  !
 ! D1    D(10,1,2,3)             0.0687         calculate D2E/DX2 analytically  !
 ! D2    D(10,1,2,8)          -179.1729         calculate D2E/DX2 analytically  !
 ! D3    D(11,1,2,3)           119.5311         calculate D2E/DX2 analytically  !
 ! D4    D(11,1,2,8)           -59.7104         calculate D2E/DX2 analytically  !
 ! D5    D(12,1,2,3)          -119.3247         calculate D2E/DX2 analytically  !
 ! D6    D(12,1,2,8)            61.4338         calculate D2E/DX2 analytically  !
 ! D7    D(1,2,3,4)           -178.0999         calculate D2E/DX2 analytically  !
 ! D8    D(1,2,3,13)             0.2738         calculate D2E/DX2 analytically  !
 ! D9    D(8,2,3,4)              1.1605         calculate D2E/DX2 analytically  !
 ! D10   D(8,2,3,13)           179.5342         calculate D2E/DX2 analytically  !
 ! D11   D(1,2,8,7)            175.1891         calculate D2E/DX2 analytically  !
 ! D12   D(1,2,8,9)              6.0614         calculate D2E/DX2 analytically  !
 ! D13   D(3,2,8,7)             -4.0514         calculate D2E/DX2 analytically  !
 ! D14   D(3,2,8,9)           -173.1791         calculate D2E/DX2 analytically  !
 ! D15   D(2,3,4,5)             -1.104          calculate D2E/DX2 analytically  !
 ! D16   D(2,3,4,14)           177.8054         calculate D2E/DX2 analytically  !
 ! D17   D(13,3,4,5)          -179.5028         calculate D2E/DX2 analytically  !
 ! D18   D(13,3,4,14)           -0.5933         calculate D2E/DX2 analytically  !
 ! D19   D(3,4,5,6)            173.0469         calculate D2E/DX2 analytically  !
 ! D20   D(3,4,5,7)              3.9226         calculate D2E/DX2 analytically  !
 ! D21   D(14,4,5,6)            -5.8489         calculate D2E/DX2 analytically  !
 ! D22   D(14,4,5,7)          -174.9731         calculate D2E/DX2 analytically  !
 ! D23   D(4,5,6,15)            30.4688         calculate D2E/DX2 analytically  !
 ! D24   D(4,5,6,16)           160.9593         calculate D2E/DX2 analytically  !
 ! D25   D(7,5,6,15)          -160.6264         calculate D2E/DX2 analytically  !
 ! D26   D(7,5,6,16)           -30.1359         calculate D2E/DX2 analytically  !
 ! D27   D(4,5,7,8)             -7.007          calculate D2E/DX2 analytically  !
 ! D28   D(4,5,7,17)           173.3155         calculate D2E/DX2 analytically  !
 ! D29   D(6,5,7,8)           -176.1059         calculate D2E/DX2 analytically  !
 ! D30   D(6,5,7,17)             4.2166         calculate D2E/DX2 analytically  !
 ! D31   D(5,7,8,2)              7.1061         calculate D2E/DX2 analytically  !
 ! D32   D(5,7,8,9)            176.5166         calculate D2E/DX2 analytically  !
 ! D33   D(17,7,8,2)          -173.2168         calculate D2E/DX2 analytically  !
 ! D34   D(17,7,8,9)            -3.8063         calculate D2E/DX2 analytically  !
 ! D35   D(2,8,9,18)           -31.5323         calculate D2E/DX2 analytically  !
 ! D36   D(2,8,9,19)          -161.528          calculate D2E/DX2 analytically  !
 ! D37   D(7,8,9,18)           159.3386         calculate D2E/DX2 analytically  !
 ! D38   D(7,8,9,19)            29.3429         calculate D2E/DX2 analytically  !
 --------------------------------------------------------------------------------
 Trust Radius=3.00D-01 FncErr=1.00D-07 GrdErr=1.00D-06 EigMax=2.50D+02 EigMin=1.00D-04
 Number of steps in this run=     97 maximum allowed number of steps=    114.
 GradGradGradGradGradGradGradGradGradGradGradGradGradGradGradGradGradGrad

                          Input orientation:                          
 ---------------------------------------------------------------------
 Center     Atomic      Atomic             Coordinates (Angstroms)
 Number     Number       Type             X           Y           Z
 ---------------------------------------------------------------------
      1          6           0       -2.395374    0.917309    0.284099
      2          6           0       -0.950401    0.511281    0.195875
      3          6           0        0.034879    1.386573    0.678057
      4          6           0        1.389525    1.062776    0.578056
      5          6           0        1.788510   -0.147959    0.017259
      6          7           0        3.146401   -0.404749   -0.213143
      7          6           0        0.807812   -0.989908   -0.516345
      8          6           0       -0.561568   -0.714450   -0.370942
      9          7           0       -1.493622   -1.561631   -0.994692
     10          1           0       -2.509496    1.906497    0.740250
     11          1           0       -2.839976    0.962643   -0.715299
     12          1           0       -2.952430    0.204540    0.900630
     13          1           0       -0.244642    2.343177    1.113409
     14          1           0        2.130385    1.776369    0.927644
     15          1           0        3.766700    0.053286    0.446684
     16          1           0        3.362084   -1.389677   -0.328332
     17          1           0        1.114268   -1.883440   -1.053111
     18          1           0       -2.424247   -1.514828   -0.594956
     19          1           0       -1.168808   -2.517809   -1.095143
 ---------------------------------------------------------------------
                    Distance matrix (angstroms):
                    1          2          3          4          5
     1  C    0.000000
     2  C    1.503525   0.000000
     3  C    2.506300   1.403357   0.000000
     4  C    3.799083   2.434227   1.396392   0.000000
     5  C    4.325608   2.822789   2.422120   1.392681   0.000000
     6  N    5.718947   4.217842   3.699276   2.422031   1.401033
     7  C    3.812950   2.419120   2.769780   2.397835   1.398349
     8  C    2.540583   1.405308   2.422900   2.804619   2.448362
     9  N    2.931486   2.451429   3.718375   4.203996   3.714149
    10  H    1.095257   2.161885   2.597697   3.992560   4.818336
    11  H    1.094771   2.145800   3.222723   4.423966   4.815907
    12  H    1.094743   2.144502   3.220366   4.437702   4.835402
    13  H    2.710443   2.166981   1.087545   2.143953   3.397207
    14  H    4.651304   3.409865   2.146015   1.086417   2.156089
    15  H    6.224478   4.745915   3.969594   2.585979   2.034242
    16  H    6.232622   4.741936   4.448671   3.275217   2.034067
    17  H    4.685073   3.399634   3.854219   3.378854   2.147600
    18  H    2.586283   2.627309   4.010734   4.750248   4.471069
    19  H    3.899591   3.299972   4.453908   4.707998   3.949602
                    6          7          8          9         10
     6  N    0.000000
     7  C    2.429679   0.000000
     8  C    3.724224   1.404357   0.000000
     9  N    4.845514   2.419149   1.405527   0.000000
    10  H    6.183848   4.579598   3.449425   4.008732   0.000000
    11  H    6.161057   4.142269   2.849976   2.874489   1.765984
    12  H    6.229563   4.192128   2.859661   2.973168   1.765947
    13  H    4.561799   3.856581   3.413623   4.609942   2.336557
    14  H    2.662886   3.389188   3.890644   5.288766   4.645486
    15  H    1.014859   3.281874   4.471222   5.688278   6.550664
    16  H    1.014826   2.592194   3.981556   4.904231   6.817776
    17  H    2.649838   1.086477   2.154139   2.628319   5.541789
    18  H    5.692993   3.275351   2.039696   1.013924   3.673622
    19  H    4.885077   2.564471   2.036004   1.014825   4.973991
                   11         12         13         14         15
    11  H    0.000000
    12  H    1.788461   0.000000
    13  H    3.462052   3.457045   0.000000
    14  H    5.297726   5.320375   2.448782   0.000000
    15  H    6.769438   6.736145   4.666796   2.424431   0.000000
    16  H    6.644448   6.627590   5.387141   3.621934   1.687159
    17  H    4.883681   4.971397   4.940115   4.283700   3.610497
    18  H    2.514989   2.339226   4.749041   5.821938   6.470843
    19  H    3.879513   3.817800   5.418576   5.780684   5.774685
                   16         17         18         19
    16  H    0.000000
    17  H    2.412837   0.000000
    18  H    5.793822   3.587041   0.000000
    19  H    4.731771   2.369942   1.682939   0.000000
 Stoichiometry    C7H10N2
 Framework group  C1[X(C7H10N2)]
 Deg. of freedom    51
 Full point group                 C1      NOp   1
 Largest Abelian subgroup         C1      NOp   1
 Largest concise Abelian subgroup C1      NOp   1
                         Standard orientation:                         
 ---------------------------------------------------------------------
 Center     Atomic      Atomic             Coordinates (Angstroms)
 Number     Number       Type             X           Y           Z
 ---------------------------------------------------------------------
      1          6           0       -2.591623   -0.896196    0.025289
      2          6           0       -1.129945   -0.546679   -0.018570
      3          6           0       -0.180809   -1.580369   -0.012449
      4          6           0        1.186224   -1.295534   -0.012513
      5          6           0        1.634742    0.022622   -0.041775
      6          7           0        2.998839    0.306623    0.104775
      7          6           0        0.687391    1.049699    0.013179
      8          6           0       -0.690923    0.787931   -0.049651
      9          7           0       -1.591336    1.858695    0.085354
     10          1           0       -2.746581   -1.979884    0.059887
     11          1           0       -3.058919   -0.468403    0.918122
     12          1           0       -3.098361   -0.519855   -0.869163
     13          1           0       -0.499684   -2.619638    0.019064
     14          1           0        1.896796   -2.116323    0.028658
     15          1           0        3.608648   -0.422438   -0.250949
     16          1           0        3.262167    1.228596   -0.227633
     17          1           0        1.027794    2.077672    0.101655
     18          1           0       -2.514508    1.669767   -0.288948
     19          1           0       -1.220204    2.744438   -0.242655
 ---------------------------------------------------------------------
 Rotational constants (GHZ):           3.0046460           1.3175711           0.9232650
 Standard basis: 6-31G(d,p) (6D, 7F)
 There are   185 symmetry adapted cartesian basis functions of A   symmetry.
 There are   185 symmetry adapted basis functions of A   symmetry.
   185 basis functions,   322 primitive gaussians,   185 cartesian basis functions
    33 alpha electrons       33 beta electrons
       nuclear repulsion energy       427.6871071813 Hartrees.
 NAtoms=   19 NActive=   19 NUniq=   19 SFac= 1.00D+00 NAtFMM=   60 NAOKFM=F Big=F
 Integral buffers will be    131072 words long.
 Raffenetti 2 integral format.
 Two-electron integral symmetry is turned on.
 Force inversion solution in PCM.
 ------------------------------------------------------------------------------
 Polarizable Continuum Model (PCM)
 =================================
 Model                : PCM.
 Atomic radii         : UFF (Universal Force Field).
 Polarization charges : Total charges.
 Charge compensation  : None.
 Solution method      : Matrix inversion.
 Cavity type          : Scaled VdW (van der Waals Surface) (Alpha=1.100).
 Cavity algorithm     : GePol (No added spheres)
                        Default sphere list used, NSphG=   19.
                        Lebedev-Laikov grids with approx.  5.0 points / Ang**2.
                        Smoothing algorithm: York/Karplus (Gamma=1.0000).
                        Polarization charges: spherical gaussians, with
                                              point-specific exponents (IZeta= 3).
                        Self-potential: point-specific (ISelfS= 7).
                        Self-field    : sphere-specific E.n sum rule (ISelfD= 2).
 1st derivatives      : Analytical E(r).r(x)/FMM algorithm (CHGder, D1EAlg=3).
                        Cavity 1st derivative terms included.
 2nd derivatives      : Analytical E(r).r(xy)/FMM algorithm (CHGder, D2EAlg=3).
                        Cavity 2nd derivative terms included.
 Solvent              : Water, Eps=  78.355300 Eps(inf)=   1.777849
 ------------------------------------------------------------------------------
 Spheres list:
 ISph  on   Nord     Re0    Alpha      Xe            Ye            Ze
    1   C      1    1.9255  1.100     -2.591623     -0.896196      0.025289
    2   C      2    1.9255  1.100     -1.129945     -0.546679     -0.018570
    3   C      3    1.9255  1.100     -0.180809     -1.580369     -0.012449
    4   C      4    1.9255  1.100      1.186224     -1.295534     -0.012513
    5   C      5    1.9255  1.100      1.634742      0.022622     -0.041775
    6   N      6    1.8300  1.100      2.998839      0.306623      0.104775
    7   C      7    1.9255  1.100      0.687391      1.049699      0.013179
    8   C      8    1.9255  1.100     -0.690923      0.787931     -0.049651
    9   N      9    1.8300  1.100     -1.591336      1.858695      0.085354
   10   H     10    1.4430  1.100     -2.746581     -1.979884      0.059887
   11   H     11    1.4430  1.100     -3.058919     -0.468403      0.918122
   12   H     12    1.4430  1.100     -3.098361     -0.519855     -0.869163
   13   H     13    1.4430  1.100     -0.499684     -2.619638      0.019064
   14   H     14    1.4430  1.100      1.896796     -2.116323      0.028658
   15   H     15    1.4430  1.100      3.608648     -0.422438     -0.250949
   16   H     16    1.4430  1.100      3.262167      1.228596     -0.227633
   17   H     17    1.4430  1.100      1.027794      2.077672      0.101655
   18   H     18    1.4430  1.100     -2.514508      1.669767     -0.288948
   19   H     19    1.4430  1.100     -1.220204      2.744438     -0.242655
 ------------------------------------------------------------------------------
 One-electron integrals computed using PRISM.
 NBasis=   185 RedAO= T EigKep=  4.24D-04  NBF=   185
 NBsUse=   185 1.00D-06 EigRej= -1.00D+00 NBFU=   185
 ExpMin= 1.61D-01 ExpMax= 4.17D+03 ExpMxC= 6.27D+02 IAcc=3 IRadAn=         5 AccDes= 0.00D+00
 Harris functional with IExCor=  402 and IRadAn=       5 diagonalized for initial guess.
 HarFok:  IExCor=  402 AccDes= 0.00D+00 IRadAn=         5 IDoV= 1 UseB2=F ITyADJ=14
 ICtDFT=  3500011 ScaDFX=  1.000000  1.000000  1.000000  1.000000
 FoFCou: FMM=F IPFlag=           0 FMFlag=      100000 FMFlg1=           0
         NFxFlg=           0 DoJE=T BraDBF=F KetDBF=T FulRan=T
         wScrn=  0.000000 ICntrl=       500 IOpCl=  0 I1Cent=   200000004 NGrid=           0
         NMat0=    1 NMatS0=      1 NMatT0=    0 NMatD0=    1 NMtDS0=    0 NMtDT0=    0
 Petite list used in FoFCou.
 Keep R1 ints in memory in canonical form, NReq=151233221.
 Requested convergence on RMS density matrix=1.00D-08 within  32 cycles.
 Requested convergence on MAX density matrix=1.00D-06.
 Requested convergence on             energy=1.00D-06.
 No special actions if energy rises.
 Inv3:  Mode=1 IEnd=     6651363.
 Iteration    1 A*A^-1 deviation from unit magnitude is 3.33D-15 for   1297.
 Iteration    1 A*A^-1 deviation from orthogonality  is 1.68D-15 for    720    364.
 Iteration    1 A^-1*A deviation from unit magnitude is 3.44D-15 for    562.
 Iteration    1 A^-1*A deviation from orthogonality  is 1.93D-15 for    777    161.
 Error on total polarization charges =  0.00797
 SCF Done:  E(RB3LYP) =  -382.301384606     A.U. after   12 cycles
            NFock= 12  Conv=0.39D-08     -V/T= 2.0097
 QCSCF skips out because SCF is already converged.
 DoSCS=F DFT=T ScalE2(SS,OS)=  1.000000  1.000000
 Range of M.O.s used for correlation:     1   185
 NBasis=   185 NAE=    33 NBE=    33 NFC=     0 NFV=     0
 NROrb=    185 NOA=    33 NOB=    33 NVA=   152 NVB=   152
 Symmetrizing basis deriv contribution to polar:
 IMax=3 JMax=2 DiffMx= 0.00D+00
 G2DrvN: will do    20 centers at a time, making    1 passes.
 Calling FoFCou, ICntrl=  3107 FMM=F I1Cent=   0 AccDes= 0.00D+00.
 NEqPCM:  Using equilibrium solvation (IEInf=0, Eps=  78.3553, EpsInf=   1.7778)
 G2PCM: DoFxE=T DoFxN=T DoGrad=T DoDP/DQ/DG/TGxP=FFFF NFrqRd=   0 IEInf=0 SqF1=F DoCFld=F IF1Alg=4.
 End of G2Drv F.D. properties file   721 does not exist.
 End of G2Drv F.D. properties file   722 does not exist.
 End of G2Drv F.D. properties file   788 does not exist.
          IDoAtm=1111111111111111111
 NEqPCM:  Using equilibrium solvation (IEInf=0, Eps=  78.3553, EpsInf=   1.7778)
          Differentiating once with respect to nuclear coordinates.
 Keep R1 ints in memory in canonical form, NReq=154424636.
          There are    60 degrees of freedom in the 1st order CPHF.  IDoFFX=6 NUNeed=     0.
     54 vectors produced by pass  0 Test12= 8.36D-15 1.67D-09 XBig12= 1.53D-01 2.34D-01.
 AX will form    54 AO Fock derivatives at one time.
     54 vectors produced by pass  1 Test12= 8.36D-15 1.67D-09 XBig12= 2.43D-02 3.46D-02.
     54 vectors produced by pass  2 Test12= 8.36D-15 1.67D-09 XBig12= 1.72D-04 2.58D-03.
     54 vectors produced by pass  3 Test12= 8.36D-15 1.67D-09 XBig12= 4.84D-07 8.87D-05.
     54 vectors produced by pass  4 Test12= 8.36D-15 1.67D-09 XBig12= 6.71D-10 3.46D-06.
     31 vectors produced by pass  5 Test12= 8.36D-15 1.67D-09 XBig12= 5.25D-13 7.93D-08.
      3 vectors produced by pass  6 Test12= 8.36D-15 1.67D-09 XBig12= 3.92D-16 2.46D-09.
 InvSVY:  IOpt=1 It=  1 EMax= 3.33D-16
 Solved reduced A of dimension   304 with    60 vectors.
 End of Minotr F.D. properties file   721 does not exist.
 End of Minotr F.D. properties file   722 does not exist.
 End of Minotr F.D. properties file   788 does not exist.

 **********************************************************************

            Population analysis using the SCF density.

 **********************************************************************

 Orbital symmetries:
       Occupied  (A) (A) (A) (A) (A) (A) (A) (A) (A) (A) (A) (A)
                 (A) (A) (A) (A) (A) (A) (A) (A) (A) (A) (A) (A)
                 (A) (A) (A) (A) (A) (A) (A) (A) (A)
       Virtual   (A) (A) (A) (A) (A) (A) (A) (A) (A) (A) (A) (A)
                 (A) (A) (A) (A) (A) (A) (A) (A) (A) (A) (A) (A)
                 (A) (A) (A) (A) (A) (A) (A) (A) (A) (A) (A) (A)
                 (A) (A) (A) (A) (A) (A) (A) (A) (A) (A) (A) (A)
                 (A) (A) (A) (A) (A) (A) (A) (A) (A) (A) (A) (A)
                 (A) (A) (A) (A) (A) (A) (A) (A) (A) (A) (A) (A)
                 (A) (A) (A) (A) (A) (A) (A) (A) (A) (A) (A) (A)
                 (A) (A) (A) (A) (A) (A) (A) (A) (A) (A) (A) (A)
                 (A) (A) (A) (A) (A) (A) (A) (A) (A) (A) (A) (A)
                 (A) (A) (A) (A) (A) (A) (A) (A) (A) (A) (A) (A)
                 (A) (A) (A) (A) (A) (A) (A) (A) (A) (A) (A) (A)
                 (A) (A) (A) (A) (A) (A) (A) (A) (A) (A) (A) (A)
                 (A) (A) (A) (A) (A) (A) (A) (A)
 The electronic state is 1-A.
 Alpha  occ. eigenvalues --  -14.33391 -14.33098 -10.21945 -10.21743 -10.17950
 Alpha  occ. eigenvalues --  -10.17617 -10.17588 -10.16964 -10.16621  -0.91392
 Alpha  occ. eigenvalues --   -0.90093  -0.81715  -0.74975  -0.71990  -0.66498
 Alpha  occ. eigenvalues --   -0.60514  -0.57558  -0.51672  -0.51052  -0.47690
 Alpha  occ. eigenvalues --   -0.45919  -0.43420  -0.41991  -0.41549  -0.40772
 Alpha  occ. eigenvalues --   -0.37640  -0.37317  -0.34125  -0.33859  -0.32638
 Alpha  occ. eigenvalues --   -0.27795  -0.20979  -0.18773
 Alpha virt. eigenvalues --    0.01280   0.03081   0.08825   0.09708   0.11911
 Alpha virt. eigenvalues --    0.12453   0.14369   0.15551   0.16299   0.17902
 Alpha virt. eigenvalues --    0.19965   0.20674   0.20988   0.24633   0.28105
 Alpha virt. eigenvalues --    0.30237   0.33172   0.35125   0.38039   0.39380
 Alpha virt. eigenvalues --    0.48956   0.50613   0.52393   0.53417   0.54929
 Alpha virt. eigenvalues --    0.55929   0.59461   0.60358   0.60618   0.61311
 Alpha virt. eigenvalues --    0.62412   0.63597   0.64832   0.67155   0.68681
 Alpha virt. eigenvalues --    0.70139   0.71413   0.71522   0.75397   0.77259
 Alpha virt. eigenvalues --    0.80441   0.81924   0.82403   0.84200   0.84892
 Alpha virt. eigenvalues --    0.86641   0.87424   0.88827   0.89277   0.89622
 Alpha virt. eigenvalues --    0.91475   0.93019   0.96957   0.98847   1.01012
 Alpha virt. eigenvalues --    1.01828   1.02737   1.06151   1.09517   1.15048
 Alpha virt. eigenvalues --    1.17505   1.20277   1.25541   1.28819   1.29492
 Alpha virt. eigenvalues --    1.31479   1.33827   1.37587   1.41133   1.42456
 Alpha virt. eigenvalues --    1.47789   1.52331   1.61454   1.68239   1.73013
 Alpha virt. eigenvalues --    1.75812   1.76216   1.79140   1.80752   1.83866
 Alpha virt. eigenvalues --    1.84024   1.86373   1.89499   1.91226   1.93327
 Alpha virt. eigenvalues --    1.97582   1.98462   1.99047   2.00305   2.04319
 Alpha virt. eigenvalues --    2.04617   2.09336   2.10506   2.14037   2.16926
 Alpha virt. eigenvalues --    2.18215   2.18945   2.20637   2.24096   2.25905
 Alpha virt. eigenvalues --    2.29308   2.31622   2.32819   2.33221   2.36097
 Alpha virt. eigenvalues --    2.40544   2.42831   2.45025   2.45577   2.47910
 Alpha virt. eigenvalues --    2.50648   2.51127   2.53583   2.55114   2.57422
 Alpha virt. eigenvalues --    2.61501   2.63363   2.67783   2.68619   2.69959
 Alpha virt. eigenvalues --    2.73970   2.75481   2.78665   2.85270   2.87944
 Alpha virt. eigenvalues --    2.89630   2.93176   2.98108   3.01092   3.07247
 Alpha virt. eigenvalues --    3.13111   3.19376   3.20768   3.28487   3.29705
 Alpha virt. eigenvalues --    3.31754   3.35800   3.42757   3.44304   3.46992
 Alpha virt. eigenvalues --    3.51068   3.55086   3.79281   4.02332   4.10359
 Alpha virt. eigenvalues --    4.13967   4.17100   4.17890   4.39074   4.45359
 Alpha virt. eigenvalues --    4.54764   4.84206
          Condensed to atoms (all electrons):
               1          2          3          4          5          6
     1  C    5.058247   0.353335  -0.059712   0.008282   0.000199   0.000002
     2  C    0.353335   4.820102   0.553336  -0.043348  -0.033593   0.000828
     3  C   -0.059712   0.553336   4.888175   0.507038  -0.016251   0.004396
     4  C    0.008282  -0.043348   0.507038   4.996073   0.536645  -0.070506
     5  C    0.000199  -0.033593  -0.016251   0.536645   4.573580   0.287510
     6  N    0.000002   0.000828   0.004396  -0.070506   0.287510   6.846573
     7  C    0.008351  -0.047748  -0.056246  -0.054199   0.529180  -0.065131
     8  C   -0.067883   0.523243  -0.001413  -0.049723  -0.003675   0.003535
     9  N   -0.013951  -0.076371   0.004987   0.000523   0.003674  -0.000066
    10  H    0.374434  -0.025220  -0.005320   0.000123   0.000021   0.000000
    11  H    0.370382  -0.033473   0.000921  -0.000285   0.000099   0.000000
    12  H    0.371166  -0.034394   0.000286  -0.000122  -0.000033  -0.000000
    13  H   -0.011240  -0.037616   0.363785  -0.040766   0.004031  -0.000127
    14  H   -0.000211   0.004304  -0.034375   0.359974  -0.044658  -0.007844
    15  H   -0.000000  -0.000008  -0.000035  -0.009404  -0.024726   0.343490
    16  H   -0.000000  -0.000006  -0.000174   0.005865  -0.023987   0.342013
    17  H   -0.000172   0.004657   0.000626   0.005743  -0.038306  -0.007832
    18  H    0.007231  -0.014602  -0.000094   0.000004  -0.000190   0.000001
    19  H   -0.000143   0.006443  -0.000098  -0.000016  -0.000225  -0.000004
               7          8          9         10         11         12
     1  C    0.008351  -0.067883  -0.013951   0.374434   0.370382   0.371166
     2  C   -0.047748   0.523243  -0.076371  -0.025220  -0.033473  -0.034394
     3  C   -0.056246  -0.001413   0.004987  -0.005320   0.000921   0.000286
     4  C   -0.054199  -0.049723   0.000523   0.000123  -0.000285  -0.000122
     5  C    0.529180  -0.003675   0.003674   0.000021   0.000099  -0.000033
     6  N   -0.065131   0.003535  -0.000066   0.000000   0.000000  -0.000000
     7  C    5.091997   0.490426  -0.072760  -0.000216  -0.000255   0.000062
     8  C    0.490426   4.683976   0.294394   0.003905  -0.004790  -0.003468
     9  N   -0.072760   0.294394   6.858102   0.000255   0.005121   0.000488
    10  H   -0.000216   0.003905   0.000255   0.586660  -0.028087  -0.027652
    11  H   -0.000255  -0.004790   0.005121  -0.028087   0.610637  -0.037907
    12  H    0.000062  -0.003468   0.000488  -0.027652  -0.037907   0.609876
    13  H    0.000736   0.005131  -0.000102   0.006496   0.000223   0.000189
    14  H    0.005492   0.000948   0.000006  -0.000015   0.000003   0.000004
    15  H    0.005353  -0.000143   0.000001   0.000000   0.000000  -0.000000
    16  H   -0.010355  -0.000195  -0.000004   0.000000   0.000000  -0.000000
    17  H    0.354156  -0.037162  -0.007788   0.000003  -0.000004   0.000002
    18  H    0.005745  -0.022346   0.339458  -0.000244  -0.000935   0.004394
    19  H   -0.011912  -0.023374   0.343102  -0.000001  -0.000088   0.000117
              13         14         15         16         17         18
     1  C   -0.011240  -0.000211  -0.000000  -0.000000  -0.000172   0.007231
     2  C   -0.037616   0.004304  -0.000008  -0.000006   0.004657  -0.014602
     3  C    0.363785  -0.034375  -0.000035  -0.000174   0.000626  -0.000094
     4  C   -0.040766   0.359974  -0.009404   0.005865   0.005743   0.000004
     5  C    0.004031  -0.044658  -0.024726  -0.023987  -0.038306  -0.000190
     6  N   -0.000127  -0.007844   0.343490   0.342013  -0.007832   0.000001
     7  C    0.000736   0.005492   0.005353  -0.010355   0.354156   0.005745
     8  C    0.005131   0.000948  -0.000143  -0.000195  -0.037162  -0.022346
     9  N   -0.000102   0.000006   0.000001  -0.000004  -0.007788   0.339458
    10  H    0.006496  -0.000015   0.000000   0.000000   0.000003  -0.000244
    11  H    0.000223   0.000003   0.000000   0.000000  -0.000004  -0.000935
    12  H    0.000189   0.000004  -0.000000  -0.000000   0.000002   0.004394
    13  H    0.628823  -0.006207  -0.000005   0.000003   0.000016  -0.000005
    14  H   -0.006207   0.641608   0.004924  -0.000048  -0.000204  -0.000000
    15  H   -0.000005   0.004924   0.435921  -0.028975  -0.000067  -0.000000
    16  H    0.000003  -0.000048  -0.028975   0.438444   0.004973   0.000000
    17  H    0.000016  -0.000204  -0.000067   0.004973   0.636278  -0.000009
    18  H   -0.000005  -0.000000  -0.000000   0.000000  -0.000009   0.435530
    19  H    0.000003  -0.000000   0.000000  -0.000004   0.005328  -0.028436
              19
     1  C   -0.000143
     2  C    0.006443
     3  C   -0.000098
     4  C   -0.000016
     5  C   -0.000225
     6  N   -0.000004
     7  C   -0.011912
     8  C   -0.023374
     9  N    0.343102
    10  H   -0.000001
    11  H   -0.000088
    12  H    0.000117
    13  H    0.000003
    14  H   -0.000000
    15  H    0.000000
    16  H   -0.000004
    17  H    0.005328
    18  H   -0.028436
    19  H    0.433728
 Mulliken charges:
               1
     1  C   -0.398315
     2  C    0.080130
     3  C   -0.149830
     4  C   -0.151903
     5  C    0.250706
     6  N   -0.676837
     7  C   -0.172674
     8  C    0.208616
     9  N   -0.679071
    10  H    0.114858
    11  H    0.118438
    12  H    0.116992
    13  H    0.086630
    14  H    0.076299
    15  H    0.273672
    16  H    0.272449
    17  H    0.079763
    18  H    0.274498
    19  H    0.275579
 Sum of Mulliken charges =  -0.00000
 Mulliken charges with hydrogens summed into heavy atoms:
               1
     1  C   -0.048027
     2  C    0.080130
     3  C   -0.063200
     4  C   -0.075604
     5  C    0.250706
     6  N   -0.130715
     7  C   -0.092912
     8  C    0.208616
     9  N   -0.128994
 APT charges:
               1
     1  C   -1.144917
     2  C   -0.140882
     3  C   -0.494678
     4  C   -0.506312
     5  C   -0.013214
     6  N   -1.233495
     7  C   -0.481429
     8  C   -0.123085
     9  N   -1.178911
    10  H    0.474076
    11  H    0.378285
    12  H    0.385750
    13  H    0.516432
    14  H    0.522606
    15  H    0.721711
    16  H    0.623298
    17  H    0.434569
    18  H    0.631727
    19  H    0.628469
 Sum of APT charges =  -0.00000
 APT charges with hydrogens summed into heavy atoms:
               1
     1  C    0.093194
     2  C   -0.140882
     3  C    0.021754
     4  C    0.016294
     5  C   -0.013214
     6  N    0.111514
     7  C   -0.046859
     8  C   -0.123085
     9  N    0.081285
 Electronic spatial extent (au):  <R**2>=           1261.0424
 Charge=             -0.0000 electrons
 Dipole moment (field-independent basis, Debye):
    X=              0.2086    Y=              1.4450    Z=             -2.4058  Tot=              2.8141
 Quadrupole moment (field-independent basis, Debye-Ang):
   XX=            -41.9154   YY=            -45.1217   ZZ=            -58.4085
   XY=             -0.5759   XZ=             -1.8163   YZ=             -3.2654
 Traceless Quadrupole moment (field-independent basis, Debye-Ang):
   XX=              6.5664   YY=              3.3602   ZZ=             -9.9266
   XY=             -0.5759   XZ=             -1.8163   YZ=             -3.2654
 Octapole moment (field-independent basis, Debye-Ang**2):
  XXX=             23.2847  YYY=             18.8527  ZZZ=             -1.8187  XYY=              2.6044
  XXY=              7.3323  XXZ=            -20.1206  XZZ=             -2.5029  YZZ=              1.7727
  YYZ=             -6.6149  XYZ=              3.6647
 Hexadecapole moment (field-independent basis, Debye-Ang**3):
 XXXX=           -918.8928 YYYY=           -434.7114 ZZZZ=            -67.9167 XXXY=            -21.8855
 XXXZ=            -40.5017 YYYX=             -8.1308 YYYZ=            -17.4400 ZZZX=             -1.5519
 ZZZY=             -2.7964 XXYY=           -226.6227 XXZZ=           -202.5545 YYZZ=           -105.9680
 XXYZ=            -15.0577 YYXZ=              8.3457 ZZXY=             -0.2498
 N-N= 4.276871071813D+02 E-N=-1.742923795305D+03  KE= 3.786311092863D+02
  Exact polarizability:   0.000   0.000   0.000   0.000   0.000   0.000
 Approx polarizability: 185.770  -7.004 161.685   0.527   0.790  58.155
 D2PCM: PCM CHGder 2nd derivatives, FixD1E=F FixD2E=F DoIter=F DoCFld=F I1PDM=0
 Calling FoFJK, ICntrl=    100147 FMM=F ISym2X=0 I1Cent= 0 IOpClX= 0 NMat=1 NMatS=1 NMatT=0.
 ***** Axes restored to original set *****
 -------------------------------------------------------------------
 Center     Atomic                   Forces (Hartrees/Bohr)
 Number     Number              X              Y              Z
 -------------------------------------------------------------------
      1        6           0.000401547   -0.001327254   -0.000062734
      2        6          -0.003183221    0.014765250    0.011506855
      3        6           0.006921986   -0.011907898   -0.006558798
      4        6          -0.003588499    0.012818882    0.011221844
      5        6           0.002629014    0.001998481   -0.015012631
      6        7          -0.000059252   -0.002469057    0.001490428
      7        6          -0.001322124   -0.007269837    0.005891533
      8        6           0.007892587    0.001343980   -0.014981035
      9        7           0.000014189    0.003347195    0.005153736
     10        1           0.001163676   -0.001698914   -0.000300908
     11        1          -0.004943140   -0.001778758    0.000116838
     12        1          -0.006036542   -0.000308153   -0.001422884
     13        1          -0.002019848   -0.001421971   -0.000553258
     14        1           0.001817150   -0.001136786    0.000995937
     15        1          -0.000211814   -0.003673778   -0.001296742
     16        1           0.002207588    0.002679105    0.002418968
     17        1          -0.000116879   -0.002453180    0.001094378
     18        1           0.001372083   -0.003125416   -0.000882573
     19        1          -0.002938501    0.001618110    0.001181044
 -------------------------------------------------------------------
 Cartesian Forces:  Max     0.015012631 RMS     0.005471585
 FormGI is forming the generalized inverse of G from B-inverse, IUseBI=4.

 GradGradGradGradGradGradGradGradGradGradGradGradGradGradGradGradGradGrad
 Berny optimization.
 Internal  Forces:  Max     0.010465877 RMS     0.003123958
 Search for a local minimum.
 Step number   1 out of a maximum of   97
 All quantities printed in internal units (Hartrees-Bohrs-Radians)
 Mixed Optimization -- RFO/linear search
 Second derivative matrix not updated -- analytic derivatives used.
 ITU=  0
     Eigenvalues ---    0.00181   0.00488   0.00564   0.01457   0.01596
     Eigenvalues ---    0.01614   0.01767   0.01859   0.01957   0.02028
     Eigenvalues ---    0.02228   0.02807   0.02877   0.02959   0.05916
     Eigenvalues ---    0.06006   0.11435   0.11810   0.12402   0.12623
     Eigenvalues ---    0.13409   0.13435   0.14689   0.14849   0.15135
     Eigenvalues ---    0.15939   0.18517   0.19100   0.19277   0.20330
     Eigenvalues ---    0.20982   0.23656   0.31841   0.33332   0.33402
     Eigenvalues ---    0.34042   0.34604   0.35470   0.35792   0.35898
     Eigenvalues ---    0.37671   0.38911   0.43315   0.45372   0.45588
     Eigenvalues ---    0.45709   0.46054   0.46297   0.47292   0.48100
     Eigenvalues ---    0.51547
 RFO step:  Lambda=-5.98960408D-03 EMin= 1.80738886D-03
 Linear search not attempted -- first point.
 Iteration  1 RMS(Cart)=  0.03497038 RMS(Int)=  0.00110277
 Iteration  2 RMS(Cart)=  0.00164461 RMS(Int)=  0.00054628
 Iteration  3 RMS(Cart)=  0.00000085 RMS(Int)=  0.00054628
 Variable       Old X    -DE/DX   Delta X   Delta X   Delta X     New X
                                 (Linear)    (Quad)   (Total)
    R1        2.84125   0.00757   0.00000   0.01044   0.01044   2.85169
    R2        2.06974  -0.00178   0.00000  -0.00393  -0.00393   2.06581
    R3        2.06882   0.00183   0.00000   0.00543   0.00543   2.07425
    R4        2.06876   0.00247   0.00000   0.00805   0.00805   2.07682
    R5        2.65196  -0.00246   0.00000  -0.01187  -0.01178   2.64018
    R6        2.65565   0.00516   0.00000   0.01827   0.01827   2.67391
    R7        2.63880  -0.00025   0.00000  -0.00367  -0.00358   2.63522
    R8        2.05516  -0.00095   0.00000   0.00048   0.00048   2.05564
    R9        2.63179   0.01047   0.00000   0.02157   0.02158   2.65337
   R10        2.05303   0.00081   0.00000   0.00010   0.00010   2.05313
   R11        2.64757   0.00208   0.00000  -0.00002  -0.00002   2.64755
   R12        2.64250   0.00317   0.00000   0.00729   0.00720   2.64970
   R13        1.91780  -0.00263   0.00000  -0.00436  -0.00436   1.91344
   R14        1.91774  -0.00240   0.00000  -0.00416  -0.00416   1.91358
   R15        2.65385   0.00069   0.00000  -0.00378  -0.00387   2.64998
   R16        2.05314   0.00144   0.00000   0.00303   0.00303   2.05618
   R17        2.65606  -0.00250   0.00000  -0.01073  -0.01073   2.64534
   R18        1.91604  -0.00175   0.00000  -0.00379  -0.00379   1.91225
   R19        1.91774  -0.00258   0.00000  -0.00460  -0.00460   1.91314
    A1        1.94816  -0.00303   0.00000  -0.01439  -0.01433   1.93384
    A2        1.92614   0.00444   0.00000   0.02674   0.02665   1.95279
    A3        1.92437   0.00640   0.00000   0.03563   0.03555   1.95991
    A4        1.87599  -0.00040   0.00000   0.00340   0.00345   1.87944
    A5        1.87597  -0.00142   0.00000  -0.00621  -0.00614   1.86984
    A6        1.91179  -0.00646   0.00000  -0.04804  -0.04825   1.86354
    A7        2.07848   0.00996   0.00000   0.04180   0.04179   2.12026
    A8        2.12366  -0.00407   0.00000  -0.01368  -0.01370   2.10996
    A9        2.08098  -0.00588   0.00000  -0.02804  -0.02803   2.05295
   A10        2.10815   0.00715   0.00000   0.03317   0.03318   2.14133
   A11        2.10100  -0.00596   0.00000  -0.03328  -0.03342   2.06758
   A12        2.07369  -0.00117   0.00000   0.00072   0.00057   2.07427
   A13        2.10406  -0.00347   0.00000  -0.01839  -0.01840   2.08566
   A14        2.07852   0.00356   0.00000   0.02331   0.02326   2.10178
   A15        2.10044  -0.00008   0.00000  -0.00465  -0.00470   2.09574
   A16        2.09812   0.00200   0.00000   0.01007   0.00837   2.10650
   A17        2.06710  -0.00077   0.00000   0.00759   0.00565   2.07275
   A18        2.10206  -0.00062   0.00000   0.00081  -0.00093   2.10112
   A19        1.98532   0.00132   0.00000   0.00386   0.00384   1.98916
   A20        1.98509   0.00232   0.00000   0.00896   0.00894   1.99403
   A21        1.96268  -0.00354   0.00000  -0.03382  -0.03385   1.92883
   A22        2.12498  -0.00169   0.00000  -0.00689  -0.00715   2.11783
   A23        2.07817   0.00137   0.00000   0.00686   0.00698   2.08515
   A24        2.08002   0.00032   0.00000   0.00005   0.00018   2.08020
   A25        2.07446   0.00495   0.00000   0.02293   0.02106   2.09553
   A26        2.11910  -0.00646   0.00000  -0.02150  -0.02327   2.09583
   A27        2.07424   0.00209   0.00000   0.01647   0.01488   2.08912
   A28        1.98873   0.00233   0.00000   0.01461   0.01461   2.00334
   A29        1.98187   0.00107   0.00000   0.01148   0.01148   1.99335
   A30        1.95659  -0.00310   0.00000  -0.02561  -0.02561   1.93097
    D1        0.00120   0.00024   0.00000   0.01080   0.01079   0.01199
    D2       -3.12716  -0.00014   0.00000   0.00359   0.00358  -3.12358
    D3        2.08621   0.00071   0.00000   0.02350   0.02340   2.10961
    D4       -1.04214   0.00033   0.00000   0.01629   0.01619  -1.02595
    D5       -2.08261  -0.00027   0.00000   0.00428   0.00439  -2.07821
    D6        1.07222  -0.00064   0.00000  -0.00293  -0.00282   1.06941
    D7       -3.10843  -0.00097   0.00000  -0.02189  -0.02144  -3.12986
    D8        0.00478  -0.00001   0.00000   0.00338   0.00341   0.00819
    D9        0.02025  -0.00060   0.00000  -0.01477  -0.01436   0.00589
   D10        3.13346   0.00036   0.00000   0.01050   0.01048  -3.13924
   D11        3.05763   0.00194   0.00000   0.06108   0.06100   3.11863
   D12        0.10579  -0.00184   0.00000  -0.05006  -0.04951   0.05628
   D13       -0.07071   0.00145   0.00000   0.05334   0.05355  -0.01716
   D14       -3.02255  -0.00234   0.00000  -0.05780  -0.05696  -3.07951
   D15       -0.01927   0.00050   0.00000   0.01484   0.01486  -0.00441
   D16        3.10329   0.00114   0.00000   0.03130   0.03142   3.13471
   D17       -3.13291  -0.00036   0.00000  -0.00948  -0.00953   3.14074
   D18       -0.01036   0.00028   0.00000   0.00697   0.00703  -0.00333
   D19        3.02024   0.00199   0.00000   0.05492   0.05509   3.07533
   D20        0.06846  -0.00155   0.00000  -0.05423  -0.05455   0.01392
   D21       -0.10208   0.00130   0.00000   0.03795   0.03829  -0.06380
   D22       -3.05386  -0.00223   0.00000  -0.07119  -0.07135  -3.12521
   D23        0.53178  -0.00112   0.00000  -0.04202  -0.04205   0.48973
   D24        2.80927  -0.00278   0.00000  -0.07884  -0.07886   2.73041
   D25       -2.80346   0.00248   0.00000   0.07010   0.07011  -2.73334
   D26       -0.52597   0.00082   0.00000   0.03327   0.03331  -0.49266
   D27       -0.12230   0.00276   0.00000   0.09655   0.09657  -0.02572
   D28        3.02493   0.00279   0.00000   0.09355   0.09375   3.11868
   D29       -3.07363  -0.00108   0.00000  -0.01390  -0.01376  -3.08739
   D30        0.07359  -0.00105   0.00000  -0.01689  -0.01658   0.05701
   D31        0.12402  -0.00245   0.00000  -0.09588  -0.09637   0.02765
   D32        3.08080   0.00028   0.00000   0.00815   0.00951   3.09031
   D33       -3.02320  -0.00248   0.00000  -0.09286  -0.09354  -3.11674
   D34       -0.06643   0.00025   0.00000   0.01117   0.01235  -0.05409
   D35       -0.55034   0.00132   0.00000   0.02363   0.02312  -0.52722
   D36       -2.81920   0.00259   0.00000   0.03598   0.03547  -2.78373
   D37        2.78098  -0.00277   0.00000  -0.08818  -0.08766   2.69332
   D38        0.51213  -0.00150   0.00000  -0.07583  -0.07531   0.43682
         Item               Value     Threshold  Converged?
 Maximum Force            0.010466     0.000450     NO 
 RMS     Force            0.003124     0.000300     NO 
 Maximum Displacement     0.102210     0.001800     NO 
 RMS     Displacement     0.034721     0.001200     NO 
 Predicted change in Energy=-3.322515D-03
 GradGradGradGradGradGradGradGradGradGradGradGradGradGradGradGradGradGrad

                          Input orientation:                          
 ---------------------------------------------------------------------
 Center     Atomic      Atomic             Coordinates (Angstroms)
 Number     Number       Type             X           Y           Z
 ---------------------------------------------------------------------
      1          6           0       -2.410996    0.901374    0.282523
      2          6           0       -0.949910    0.538838    0.177501
      3          6           0        0.049128    1.388672    0.658810
      4          6           0        1.406817    1.085250    0.562649
      5          6           0        1.804971   -0.121534   -0.034550
      6          7           0        3.162661   -0.416005   -0.215729
      7          6           0        0.819242   -0.983998   -0.535102
      8          6           0       -0.544373   -0.677094   -0.421830
      9          7           0       -1.497078   -1.532289   -0.988025
     10          1           0       -2.535332    1.879326    0.754950
     11          1           0       -2.894063    0.942955   -0.702232
     12          1           0       -2.978154    0.176954    0.883656
     13          1           0       -0.247469    2.326101    1.124173
     14          1           0        2.153369    1.776411    0.943924
     15          1           0        3.772737    0.021676    0.463610
     16          1           0        3.367270   -1.404859   -0.291294
     17          1           0        1.115788   -1.912132   -1.019403
     18          1           0       -2.409189   -1.499828   -0.551014
     19          1           0       -1.185418   -2.489817   -1.092619
 ---------------------------------------------------------------------
                    Distance matrix (angstroms):
                    1          2          3          4          5
     1  C    0.000000
     2  C    1.509051   0.000000
     3  C    2.535993   1.397123   0.000000
     4  C    3.832489   2.449707   1.394500   0.000000
     5  C    4.349857   2.840850   2.417531   1.404101   0.000000
     6  N    5.748860   4.240235   3.703480   2.437751   1.401021
     7  C    3.828521   2.440641   2.765513   2.414971   1.402162
     8  C    2.544004   1.414973   2.405705   2.807525   2.445005
     9  N    2.893484   2.438731   3.692537   4.205794   3.715222
    10  H    1.093178   2.154975   2.632378   4.025925   4.844066
    11  H    1.097645   2.171859   3.273144   4.485280   4.864140
    12  H    1.099005   2.177932   3.268525   4.489545   4.879599
    13  H    2.723797   2.141009   1.087798   2.142821   3.397950
    14  H    4.694312   3.427729   2.158578   1.086469   2.163559
    15  H    6.248617   4.759486   3.971403   2.595877   2.034889
    16  H    6.247906   4.757706   4.440335   3.282261   2.038043
    17  H    4.695639   3.421541   3.853501   3.401747   2.156653
    18  H    2.541763   2.610822   3.981260   4.741811   4.463808
    19  H    3.859175   3.292632   4.431059   4.716005   3.958624
                    6          7          8          9         10
     6  N    0.000000
     7  C    2.432329   0.000000
     8  C    3.721927   1.402307   0.000000
     9  N    4.853421   2.423036   1.399851   0.000000
    10  H    6.219155   4.595217   3.447320   3.969263   0.000000
    11  H    6.226344   4.186850   2.867792   2.856585   1.768858
    12  H    6.266567   4.216741   2.890845   2.935692   1.763725
    13  H    4.576404   3.853286   3.390790   4.572753   2.360137
    14  H    2.677714   3.404007   3.893941   5.292039   4.693636
    15  H    1.012551   3.275963   4.462031   5.682693   6.582360
    16  H    1.012623   2.594034   3.980908   4.915644   6.835291
    17  H    2.659695   1.088081   2.153728   2.640518   5.554652
    18  H    5.686176   3.269419   2.042332   1.011918   3.624933
    19  H    4.896471   2.568459   2.036385   1.012390   4.932058
                   11         12         13         14         15
    11  H    0.000000
    12  H    1.763198   0.000000
    13  H    3.500472   3.483292   0.000000
    14  H    5.374108   5.375354   2.469549   0.000000
    15  H    6.830385   6.765729   4.680681   2.435600   0.000000
    16  H    6.699656   6.644325   5.384231   3.622126   1.664117
    17  H    4.932649   4.974563   4.941255   4.305412   3.605319
    18  H    2.495027   2.278947   4.702873   5.812531   6.446755
    19  H    3.854322   3.772431   5.383956   5.787548   5.771720
                   16         17         18         19
    16  H    0.000000
    17  H    2.420050   0.000000
    18  H    5.783075   3.579783   0.000000
    19  H    4.748287   2.373737   1.664641   0.000000
 Stoichiometry    C7H10N2
 Framework group  C1[X(C7H10N2)]
 Deg. of freedom    51
 Full point group                 C1      NOp   1
 Largest Abelian subgroup         C1      NOp   1
 Largest concise Abelian subgroup C1      NOp   1
                         Standard orientation:                         
 ---------------------------------------------------------------------
 Center     Atomic      Atomic             Coordinates (Angstroms)
 Number     Number       Type             X           Y           Z
 ---------------------------------------------------------------------
      1          6           0       -2.613571   -0.871515    0.005859
      2          6           0       -1.137638   -0.557269   -0.004409
      3          6           0       -0.175904   -1.570680   -0.008710
      4          6           0        1.193839   -1.309118   -0.004415
      5          6           0        1.643743    0.020948   -0.000790
      6          7           0        3.011390    0.313053    0.083323
      7          6           0        0.695596    1.053813    0.015504
      8          6           0       -0.679921    0.781627   -0.002712
      9          7           0       -1.596734    1.836486    0.076724
     10          1           0       -2.780377   -1.951781    0.021320
     11          1           0       -3.116881   -0.443836    0.882554
     12          1           0       -3.130062   -0.476806   -0.880287
     13          1           0       -0.512692   -2.605023   -0.012307
     14          1           0        1.909963   -2.126169   -0.001551
     15          1           0        3.610344   -0.408014   -0.299531
     16          1           0        3.266499    1.220148   -0.287492
     17          1           0        1.031480    2.088460    0.040175
     18          1           0       -2.500772    1.644697   -0.335478
     19          1           0       -1.236954    2.724712   -0.249688
 ---------------------------------------------------------------------
 Rotational constants (GHZ):           3.0396202           1.3036596           0.9192605
 Standard basis: 6-31G(d,p) (6D, 7F)
 There are   185 symmetry adapted cartesian basis functions of A   symmetry.
 There are   185 symmetry adapted basis functions of A   symmetry.
   185 basis functions,   322 primitive gaussians,   185 cartesian basis functions
    33 alpha electrons       33 beta electrons
       nuclear repulsion energy       427.1561981879 Hartrees.
 NAtoms=   19 NActive=   19 NUniq=   19 SFac= 1.00D+00 NAtFMM=   60 NAOKFM=F Big=F
 Integral buffers will be    131072 words long.
 Raffenetti 2 integral format.
 Two-electron integral symmetry is turned on.
 ------------------------------------------------------------------------------
 Polarizable Continuum Model (PCM)
 =================================
 Model                : PCM.
 Atomic radii         : UFF (Universal Force Field).
 Polarization charges : Total charges.
 Charge compensation  : None.
 Solution method      : Matrix inversion.
 Cavity type          : Scaled VdW (van der Waals Surface) (Alpha=1.100).
 Cavity algorithm     : GePol (No added spheres)
                        Default sphere list used, NSphG=   19.
                        Lebedev-Laikov grids with approx.  5.0 points / Ang**2.
                        Smoothing algorithm: York/Karplus (Gamma=1.0000).
                        Polarization charges: spherical gaussians, with
                                              point-specific exponents (IZeta= 3).
                        Self-potential: point-specific (ISelfS= 7).
                        Self-field    : sphere-specific E.n sum rule (ISelfD= 2).
 1st derivatives      : Analytical E(r).r(x)/FMM algorithm (CHGder, D1EAlg=3).
                        Cavity 1st derivative terms included.
 Solvent              : Water, Eps=  78.355300 Eps(inf)=   1.777849
 ------------------------------------------------------------------------------
 Spheres list:
 ISph  on   Nord     Re0    Alpha      Xe            Ye            Ze
    1   C      1    1.9255  1.100     -2.613571     -0.871515      0.005859
    2   C      2    1.9255  1.100     -1.137638     -0.557269     -0.004409
    3   C      3    1.9255  1.100     -0.175904     -1.570680     -0.008710
    4   C      4    1.9255  1.100      1.193839     -1.309118     -0.004415
    5   C      5    1.9255  1.100      1.643743      0.020948     -0.000790
    6   N      6    1.8300  1.100      3.011390      0.313053      0.083323
    7   C      7    1.9255  1.100      0.695596      1.053813      0.015504
    8   C      8    1.9255  1.100     -0.679921      0.781627     -0.002712
    9   N      9    1.8300  1.100     -1.596734      1.836486      0.076724
   10   H     10    1.4430  1.100     -2.780377     -1.951781      0.021320
   11   H     11    1.4430  1.100     -3.116881     -0.443836      0.882554
   12   H     12    1.4430  1.100     -3.130062     -0.476806     -0.880287
   13   H     13    1.4430  1.100     -0.512692     -2.605023     -0.012307
   14   H     14    1.4430  1.100      1.909963     -2.126169     -0.001551
   15   H     15    1.4430  1.100      3.610344     -0.408014     -0.299531
   16   H     16    1.4430  1.100      3.266499      1.220148     -0.287492
   17   H     17    1.4430  1.100      1.031480      2.088460      0.040175
   18   H     18    1.4430  1.100     -2.500772      1.644697     -0.335478
   19   H     19    1.4430  1.100     -1.236954      2.724712     -0.249688
 ------------------------------------------------------------------------------
 One-electron integrals computed using PRISM.
 NBasis=   185 RedAO= T EigKep=  3.78D-04  NBF=   185
 NBsUse=   185 1.00D-06 EigRej= -1.00D+00 NBFU=   185
 Initial guess from the checkpoint file:  "VOZKAJLKRJDJLL-UHFFFAOYSA-N_conf_0_0.chk"
 B after Tr=     0.000000   -0.000000    0.000000
         Rot=    1.000000   -0.000065    0.000117    0.000629 Ang=  -0.07 deg.
 ExpMin= 1.61D-01 ExpMax= 4.17D+03 ExpMxC= 6.27D+02 IAcc=2 IRadAn=         4 AccDes= 0.00D+00
 Harris functional with IExCor=  402 and IRadAn=       4 diagonalized for initial guess.
 HarFok:  IExCor=  402 AccDes= 0.00D+00 IRadAn=         4 IDoV= 1 UseB2=F ITyADJ=14
 ICtDFT=  3500011 ScaDFX=  1.000000  1.000000  1.000000  1.000000
 FoFCou: FMM=F IPFlag=           0 FMFlag=      100000 FMFlg1=           0
         NFxFlg=           0 DoJE=T BraDBF=F KetDBF=T FulRan=T
         wScrn=  0.000000 ICntrl=       500 IOpCl=  0 I1Cent=   200000004 NGrid=           0
         NMat0=    1 NMatS0=      1 NMatT0=    0 NMatD0=    1 NMtDS0=    0 NMtDT0=    0
 Petite list used in FoFCou.
 Keep R1 ints in memory in canonical form, NReq=151233221.
 Requested convergence on RMS density matrix=1.00D-08 within  32 cycles.
 Requested convergence on MAX density matrix=1.00D-06.
 Requested convergence on             energy=1.00D-06.
 No special actions if energy rises.
 Inv3:  Mode=1 IEnd=     6822192.
 Iteration    1 A*A^-1 deviation from unit magnitude is 2.89D-15 for    368.
 Iteration    1 A*A^-1 deviation from orthogonality  is 1.85D-15 for    836    409.
 Iteration    1 A^-1*A deviation from unit magnitude is 2.66D-15 for    563.
 Iteration    1 A^-1*A deviation from orthogonality  is 1.60D-15 for   1463    589.
 Error on total polarization charges =  0.00798
 SCF Done:  E(RB3LYP) =  -382.304724769     A.U. after   10 cycles
            NFock= 10  Conv=0.93D-08     -V/T= 2.0098
 QCSCF skips out because SCF is already converged.
 D1PCM: PCM CHGder 1st derivatives, ID1Alg=3 FixD1E=F DoIter=F DoCFld=F I1PDM=0.
 Calling FoFJK, ICntrl=      2127 FMM=F ISym2X=0 I1Cent= 0 IOpClX= 0 NMat=1 NMatS=1 NMatT=0.
 ***** Axes restored to original set *****
 -------------------------------------------------------------------
 Center     Atomic                   Forces (Hartrees/Bohr)
 Number     Number              X              Y              Z
 -------------------------------------------------------------------
      1        6           0.000171902   -0.000102664    0.000053522
      2        6          -0.000249280    0.000488899    0.001251722
      3        6           0.000426481   -0.000184238   -0.000435693
      4        6          -0.000358577    0.000367124    0.001401222
      5        6           0.000231961    0.001117425   -0.002859724
      6        7           0.000171394   -0.000286312    0.000234337
      7        6           0.000009667   -0.001230564    0.001689641
      8        6           0.000221703    0.001122525   -0.002684241
      9        7          -0.000273010   -0.000242548    0.000420210
     10        1           0.000000336   -0.000012365   -0.000035916
     11        1          -0.000250083   -0.000140401    0.000028015
     12        1          -0.000296918    0.000017165   -0.000022888
     13        1          -0.000037665   -0.000007455    0.000092333
     14        1           0.000092854   -0.000162646    0.000196168
     15        1           0.000050826   -0.000137665    0.000059780
     16        1           0.000105994   -0.000009435    0.000202921
     17        1          -0.000033325   -0.000278379    0.000412566
     18        1           0.000056370   -0.000300611    0.000105249
     19        1          -0.000040631   -0.000017855   -0.000109223
 -------------------------------------------------------------------
 Cartesian Forces:  Max     0.002859724 RMS     0.000701948

 GradGradGradGradGradGradGradGradGradGradGradGradGradGradGradGradGradGrad
 Berny optimization.
 Using GEDIIS/GDIIS optimizer.
 FormGI is forming the generalized inverse of G from B-inverse, IUseBI=4.
 Internal  Forces:  Max     0.000734776 RMS     0.000266617
 Search for a local minimum.
 Step number   2 out of a maximum of   97
 All quantities printed in internal units (Hartrees-Bohrs-Radians)
 Mixed Optimization -- En-DIIS/RFO-DIIS
 Update second derivatives using D2CorX and points    1    2
 DE= -3.34D-03 DEPred=-3.32D-03 R= 1.01D+00
 TightC=F SS=  1.41D+00  RLast= 3.31D-01 DXNew= 5.0454D-01 9.9252D-01
 Trust test= 1.01D+00 RLast= 3.31D-01 DXMaxT set to 5.05D-01
 ITU=  1  0
 Use linear search instead of GDIIS.
     Eigenvalues ---    0.00181   0.00488   0.00564   0.01457   0.01596
     Eigenvalues ---    0.01615   0.01767   0.01859   0.01955   0.02023
     Eigenvalues ---    0.02227   0.02806   0.02859   0.02959   0.05916
     Eigenvalues ---    0.06009   0.11433   0.11809   0.12399   0.12610
     Eigenvalues ---    0.13412   0.13459   0.14707   0.14848   0.15113
     Eigenvalues ---    0.15922   0.18447   0.19023   0.19269   0.20323
     Eigenvalues ---    0.20874   0.23602   0.31813   0.33329   0.33384
     Eigenvalues ---    0.34005   0.34576   0.35465   0.35792   0.35887
     Eigenvalues ---    0.37668   0.38898   0.43301   0.45408   0.45577
     Eigenvalues ---    0.45733   0.46055   0.46297   0.47300   0.48058
     Eigenvalues ---    0.51255
 RFO step:  Lambda=-1.03579629D-04 EMin= 1.80764645D-03
 Quartic linear search produced a step of  0.13544.
 Iteration  1 RMS(Cart)=  0.01558804 RMS(Int)=  0.00025806
 Iteration  2 RMS(Cart)=  0.00025502 RMS(Int)=  0.00010209
 Iteration  3 RMS(Cart)=  0.00000005 RMS(Int)=  0.00010209
 Variable       Old X    -DE/DX   Delta X   Delta X   Delta X     New X
                                 (Linear)    (Quad)   (Total)
    R1        2.85169   0.00031   0.00141  -0.00120   0.00022   2.85191
    R2        2.06581  -0.00003  -0.00053   0.00053   0.00000   2.06581
    R3        2.07425   0.00008   0.00074  -0.00070   0.00004   2.07429
    R4        2.07682   0.00013   0.00109  -0.00040   0.00069   2.07751
    R5        2.64018   0.00022  -0.00160   0.00157  -0.00000   2.64018
    R6        2.67391   0.00071   0.00247  -0.00097   0.00150   2.67541
    R7        2.63522  -0.00001  -0.00048   0.00043  -0.00003   2.63520
    R8        2.05564   0.00004   0.00006   0.00018   0.00025   2.05589
    R9        2.65337   0.00073   0.00292  -0.00171   0.00122   2.65458
   R10        2.05313   0.00003   0.00001  -0.00002  -0.00000   2.05312
   R11        2.64755   0.00034  -0.00000   0.00056   0.00056   2.64811
   R12        2.64970   0.00030   0.00098  -0.00053   0.00042   2.65012
   R13        1.91344   0.00001  -0.00059   0.00079   0.00020   1.91364
   R14        1.91358   0.00001  -0.00056   0.00076   0.00020   1.91378
   R15        2.64998   0.00030  -0.00052   0.00066   0.00011   2.65008
   R16        2.05618   0.00004   0.00041  -0.00025   0.00016   2.05634
   R17        2.64534   0.00035  -0.00145   0.00178   0.00032   2.64566
   R18        1.91225  -0.00002  -0.00051   0.00071   0.00020   1.91245
   R19        1.91314   0.00002  -0.00062   0.00071   0.00009   1.91323
    A1        1.93384  -0.00007  -0.00194   0.00197   0.00004   1.93387
    A2        1.95279   0.00020   0.00361  -0.00275   0.00084   1.95363
    A3        1.95991   0.00031   0.00481  -0.00317   0.00163   1.96155
    A4        1.87944  -0.00004   0.00047   0.00018   0.00065   1.88010
    A5        1.86984  -0.00010  -0.00083   0.00046  -0.00036   1.86947
    A6        1.86354  -0.00033  -0.00654   0.00359  -0.00297   1.86056
    A7        2.12026   0.00037   0.00566  -0.00299   0.00267   2.12293
    A8        2.10996  -0.00018  -0.00185   0.00020  -0.00165   2.10831
    A9        2.05295  -0.00019  -0.00380   0.00281  -0.00101   2.05194
   A10        2.14133   0.00027   0.00449  -0.00325   0.00124   2.14258
   A11        2.06758  -0.00016  -0.00453   0.00370  -0.00084   2.06674
   A12        2.07427  -0.00011   0.00008  -0.00045  -0.00040   2.07387
   A13        2.08566  -0.00007  -0.00249   0.00190  -0.00061   2.08505
   A14        2.10178   0.00015   0.00315  -0.00184   0.00131   2.10309
   A15        2.09574  -0.00008  -0.00064  -0.00007  -0.00070   2.09504
   A16        2.10650   0.00012   0.00113   0.00009   0.00090   2.10740
   A17        2.07275  -0.00005   0.00077  -0.00020   0.00013   2.07289
   A18        2.10112  -0.00002  -0.00013   0.00108   0.00062   2.10175
   A19        1.98916   0.00002   0.00052  -0.00149  -0.00098   1.98818
   A20        1.99403   0.00004   0.00121  -0.00190  -0.00069   1.99334
   A21        1.92883  -0.00017  -0.00458   0.00194  -0.00266   1.92617
   A22        2.11783   0.00002  -0.00097   0.00110   0.00004   2.11787
   A23        2.08515   0.00002   0.00095  -0.00096   0.00003   2.08518
   A24        2.08020  -0.00004   0.00002  -0.00013  -0.00006   2.08014
   A25        2.09553   0.00004   0.00285  -0.00195   0.00051   2.09603
   A26        2.09583   0.00016  -0.00315   0.00274  -0.00073   2.09511
   A27        2.08912  -0.00015   0.00202  -0.00001   0.00172   2.09084
   A28        2.00334   0.00012   0.00198  -0.00121   0.00077   2.00411
   A29        1.99335   0.00005   0.00155  -0.00245  -0.00089   1.99245
   A30        1.93097  -0.00017  -0.00347   0.00205  -0.00142   1.92955
    D1        0.01199   0.00008   0.00146   0.03466   0.03612   0.04811
    D2       -3.12358   0.00002   0.00048   0.03323   0.03371  -3.08987
    D3        2.10961   0.00011   0.00317   0.03439   0.03755   2.14716
    D4       -1.02595   0.00006   0.00219   0.03295   0.03513  -0.99082
    D5       -2.07821   0.00005   0.00060   0.03485   0.03546  -2.04275
    D6        1.06941  -0.00001  -0.00038   0.03341   0.03304   1.10245
    D7       -3.12986  -0.00013  -0.00290  -0.00104  -0.00388  -3.13374
    D8        0.00819   0.00004   0.00046   0.00100   0.00147   0.00965
    D9        0.00589  -0.00008  -0.00195   0.00035  -0.00154   0.00435
   D10       -3.13924   0.00009   0.00142   0.00239   0.00380  -3.13544
   D11        3.11863   0.00038   0.00826   0.00874   0.01699   3.13562
   D12        0.05628  -0.00029  -0.00671  -0.00268  -0.00930   0.04699
   D13       -0.01716   0.00033   0.00725   0.00738   0.01465  -0.00251
   D14       -3.07951  -0.00034  -0.00772  -0.00404  -0.01163  -3.09114
   D15       -0.00441   0.00011   0.00201   0.00175   0.00377  -0.00064
   D16        3.13471   0.00020   0.00426   0.00020   0.00447   3.13918
   D17        3.14074  -0.00006  -0.00129  -0.00030  -0.00159   3.13914
   D18       -0.00333   0.00003   0.00095  -0.00185  -0.00089  -0.00422
   D19        3.07533   0.00034   0.00746   0.00247   0.00996   3.08529
   D20        0.01392  -0.00039  -0.00739  -0.01140  -0.01882  -0.00491
   D21       -0.06380   0.00026   0.00519   0.00403   0.00926  -0.05454
   D22       -3.12521  -0.00047  -0.00966  -0.00984  -0.01953   3.13845
   D23        0.48973  -0.00031  -0.00570  -0.00483  -0.01053   0.47920
   D24        2.73041  -0.00050  -0.01068  -0.00518  -0.01587   2.71454
   D25       -2.73334   0.00043   0.00950   0.00921   0.01871  -2.71463
   D26       -0.49266   0.00024   0.00451   0.00885   0.01337  -0.47929
   D27       -0.02572   0.00064   0.01308   0.01938   0.03247   0.00674
   D28        3.11868   0.00059   0.01270   0.01556   0.02828  -3.13622
   D29       -3.08739  -0.00009  -0.00186   0.00560   0.00376  -3.08363
   D30        0.05701  -0.00015  -0.00225   0.00178  -0.00042   0.05659
   D31        0.02765  -0.00062  -0.01305  -0.01754  -0.03066  -0.00301
   D32        3.09031   0.00006   0.00129  -0.00604  -0.00455   3.08575
   D33       -3.11674  -0.00056  -0.01267  -0.01373  -0.02649   3.13995
   D34       -0.05409   0.00012   0.00167  -0.00223  -0.00038  -0.05447
   D35       -0.52722   0.00013   0.00313  -0.03092  -0.02786  -0.55509
   D36       -2.78373   0.00021   0.00480  -0.03040  -0.02567  -2.80940
   D37        2.69332  -0.00054  -0.01187  -0.04221  -0.05401   2.63931
   D38        0.43682  -0.00047  -0.01020  -0.04169  -0.05182   0.38500
         Item               Value     Threshold  Converged?
 Maximum Force            0.000735     0.000450     NO 
 RMS     Force            0.000267     0.000300     YES
 Maximum Displacement     0.061812     0.001800     NO 
 RMS     Displacement     0.015598     0.001200     NO 
 Predicted change in Energy=-9.911074D-05
 GradGradGradGradGradGradGradGradGradGradGradGradGradGradGradGradGradGrad

                          Input orientation:                          
 ---------------------------------------------------------------------
 Center     Atomic      Atomic             Coordinates (Angstroms)
 Number     Number       Type             X           Y           Z
 ---------------------------------------------------------------------
      1          6           0       -2.412090    0.902587    0.283073
      2          6           0       -0.950217    0.544114    0.173498
      3          6           0        0.050092    1.389822    0.659408
      4          6           0        1.407700    1.086362    0.562425
      5          6           0        1.805252   -0.116004   -0.045501
      6          7           0        3.162993   -0.416995   -0.217650
      7          6           0        0.818005   -0.983653   -0.534590
      8          6           0       -0.544826   -0.668633   -0.434203
      9          7           0       -1.500076   -1.526175   -0.992933
     10          1           0       -2.536680    1.892324    0.730215
     11          1           0       -2.906011    0.914201   -0.697120
     12          1           0       -2.971663    0.192329    0.908397
     13          1           0       -0.246222    2.322719    1.134267
     14          1           0        2.155180    1.772353    0.951141
     15          1           0        3.769711    0.017001    0.467196
     16          1           0        3.363122   -1.407224   -0.288469
     17          1           0        1.112934   -1.920467   -1.003101
     18          1           0       -2.400350   -1.518211   -0.530724
     19          1           0       -1.176854   -2.476451   -1.125328
 ---------------------------------------------------------------------
                    Distance matrix (angstroms):
                    1          2          3          4          5
     1  C    0.000000
     2  C    1.509166   0.000000
     3  C    2.537985   1.397121   0.000000
     4  C    3.834397   2.450524   1.394486   0.000000
     5  C    4.351030   2.841888   2.417642   1.404745   0.000000
     6  N    5.750962   4.242078   3.704587   2.439192   1.401318
     7  C    3.828836   2.441735   2.765628   2.415811   1.402383
     8  C    2.543598   1.415768   2.405649   2.808137   2.445272
     9  N    2.891167   2.439058   3.692735   4.207095   3.716369
    10  H    1.093178   2.155103   2.636080   4.029375   4.846390
    11  H    1.097666   2.172572   3.287085   4.497131   4.866408
    12  H    1.099372   2.179466   3.259906   4.483058   4.880974
    13  H    2.726223   2.140589   1.087929   2.142670   3.398201
    14  H    4.697101   3.428817   2.159359   1.086467   2.163709
    15  H    6.247625   4.758343   3.969527   2.594552   2.034613
    16  H    6.246195   4.756682   4.438254   3.281108   2.037950
    17  H    4.695707   3.422738   3.853775   3.402761   2.156940
    18  H    2.553951   2.617632   3.984687   4.741309   4.459676
    19  H    3.863586   3.295775   4.431563   4.714029   3.953567
                    6          7          8          9         10
     6  N    0.000000
     7  C    2.433212   0.000000
     8  C    3.722652   1.402363   0.000000
     9  N    4.855467   2.424440   1.400022   0.000000
    10  H    6.222353   4.596182   3.447007   3.966097   0.000000
    11  H    6.231756   4.182889   2.854765   2.831889   1.769298
    12  H    6.266838   4.222171   2.904027   2.955315   1.763786
    13  H    4.577823   3.853538   3.390789   4.572867   2.365311
    14  H    2.678620   3.404556   3.894563   5.293449   4.698591
    15  H    1.012657   3.273752   4.460700   5.681903   6.584572
    16  H    1.012729   2.591835   3.979800   4.915395   6.836110
    17  H    2.660847   1.088167   2.153811   2.642610   5.555308
    18  H    5.679918   3.262449   2.043054   1.012024   3.638723
    19  H    4.888713   2.560641   2.036006   1.012435   4.937445
                   11         12         13         14         15
    11  H    0.000000
    12  H    1.761560   0.000000
    13  H    3.523120   3.466642   0.000000
    14  H    5.391553   5.364962   2.470459   0.000000
    15  H    6.835632   6.758071   4.678572   2.433551   0.000000
    16  H    6.697614   6.642330   5.381822   3.620147   1.662757
    17  H    4.927564   4.980127   4.941687   4.306072   3.601947
    18  H    2.489982   2.307253   4.707993   5.811763   6.436021
    19  H    3.830127   3.805229   5.385525   5.785025   5.763848
                   16         17         18         19
    16  H    0.000000
    17  H    2.416085   0.000000
    18  H    5.769628   3.567648   0.000000
    19  H    4.738667   2.359488   1.663947   0.000000
 Stoichiometry    C7H10N2
 Framework group  C1[X(C7H10N2)]
 Deg. of freedom    51
 Full point group                 C1      NOp   1
 Largest Abelian subgroup         C1      NOp   1
 Largest concise Abelian subgroup C1      NOp   1
                         Standard orientation:                         
 ---------------------------------------------------------------------
 Center     Atomic      Atomic             Coordinates (Angstroms)
 Number     Number       Type             X           Y           Z
 ---------------------------------------------------------------------
      1          6           0       -2.614747   -0.870475    0.003599
      2          6           0       -1.138146   -0.558688   -0.000956
      3          6           0       -0.175427   -1.571139   -0.008863
      4          6           0        1.194373   -1.309961   -0.003997
      5          6           0        1.644013    0.020818    0.008611
      6          7           0        3.012380    0.313983    0.081528
      7          6           0        0.695448    1.053727    0.009941
      8          6           0       -0.680121    0.780919    0.007069
      9          7           0       -1.598610    1.835264    0.076309
     10          1           0       -2.783557   -1.949585    0.049030
     11          1           0       -3.127199   -0.415729    0.861193
     12          1           0       -3.123480   -0.501146   -0.898291
     13          1           0       -0.512113   -2.605589   -0.020974
     14          1           0        1.911363   -2.126245   -0.008219
     15          1           0        3.607968   -0.407298   -0.306420
     16          1           0        3.263815    1.219420   -0.296074
     17          1           0        1.031082    2.088829    0.014567
     18          1           0       -2.489035    1.653048   -0.368814
     19          1           0       -1.227594    2.728363   -0.223268
 ---------------------------------------------------------------------
[...]
    13  H    0.001086   0.005650  -0.000136   0.007211   0.000168   0.000185
    14  H    0.005164   0.000792   0.000006  -0.000014   0.000002   0.000002
    15  H    0.004921  -0.000091   0.000002   0.000000   0.000000  -0.000000
    16  H   -0.008453  -0.000019  -0.000004   0.000000  -0.000000   0.000000
    17  H    0.354654  -0.036995  -0.009547   0.000003  -0.000002  -0.000000
    18  H    0.005385  -0.024656   0.337821  -0.000263  -0.000444   0.003796
    19  H   -0.010351  -0.028251   0.332103  -0.000002  -0.000080   0.000134
              13         14         15         16         17         18
     1  C   -0.012098  -0.000164  -0.000000  -0.000000  -0.000159   0.007009
     2  C   -0.038662   0.004108  -0.000018  -0.000026   0.005262  -0.014211
     3  C    0.362077  -0.033637  -0.000023  -0.000091   0.000383  -0.000001
     4  C   -0.042310   0.359431  -0.007989   0.005236   0.005977  -0.000014
     5  C    0.004110  -0.043545  -0.024474  -0.026088  -0.041064  -0.000115
     6  N   -0.000140  -0.007527   0.339064   0.328355  -0.008988   0.000001
     7  C    0.001086   0.005164   0.004921  -0.008453   0.354654   0.005385
     8  C    0.005650   0.000792  -0.000091  -0.000019  -0.036995  -0.024656
     9  N   -0.000136   0.000006   0.000002  -0.000004  -0.009547   0.337821
    10  H    0.007211  -0.000014   0.000000   0.000000   0.000003  -0.000263
    11  H    0.000168   0.000002   0.000000  -0.000000  -0.000002  -0.000444
    12  H    0.000185   0.000002  -0.000000   0.000000  -0.000000   0.003796
    13  H    0.660857  -0.006463  -0.000006   0.000004   0.000016  -0.000006
    14  H   -0.006463   0.636427   0.004723  -0.000087  -0.000193  -0.000000
    15  H   -0.000006   0.004723   0.426539  -0.030776  -0.000087  -0.000000
    16  H    0.000004  -0.000087  -0.030776   0.442100   0.005357   0.000000
    17  H    0.000016  -0.000193  -0.000087   0.005357   0.659289  -0.000032
    18  H   -0.000006  -0.000000  -0.000000   0.000000  -0.000032   0.432267
    19  H    0.000004  -0.000000  -0.000000   0.000023   0.006101  -0.027913
              19
     1  C   -0.000219
     2  C    0.006261
     3  C   -0.000067
     4  C   -0.000030
     5  C    0.000043
     6  N   -0.000010
     7  C   -0.010351
     8  C   -0.028251
     9  N    0.332103
    10  H   -0.000002
    11  H   -0.000080
    12  H    0.000134
    13  H    0.000004
    14  H   -0.000000
    15  H   -0.000000
    16  H    0.000023
    17  H    0.006101
    18  H   -0.027913
    19  H    0.444062
 Mulliken charges:
               1
     1  C   -0.406566
     2  C    0.129062
     3  C   -0.228548
     4  C   -0.121674
     5  C    0.225017
     6  N   -0.626984
     7  C   -0.206868
     8  C    0.176481
     9  N   -0.646814
    10  H    0.119706
    11  H    0.128708
    12  H    0.126775
    13  H    0.058452
    14  H    0.080974
    15  H    0.288216
    16  H    0.284468
    17  H    0.060025
    18  H    0.281377
    19  H    0.278193
 Sum of Mulliken charges =  -0.00000
 Mulliken charges with hydrogens summed into heavy atoms:
               1
     1  C   -0.031376
     2  C    0.129062
     3  C   -0.170096
     4  C   -0.040700
     5  C    0.225017
     6  N   -0.054300
     7  C   -0.146844
     8  C    0.176481
     9  N   -0.087244
 Electronic spatial extent (au):  <R**2>=           1264.1929
 Charge=             -0.0000 electrons
 Dipole moment (field-independent basis, Debye):
    X=              0.5708    Y=              1.9966    Z=             -2.4796  Tot=              3.2343
 Quadrupole moment (field-independent basis, Debye-Ang):
   XX=            -36.8781   YY=            -47.1075   ZZ=            -58.4107
   XY=             -1.5794   XZ=             -1.8801   YZ=             -3.1259
 Traceless Quadrupole moment (field-independent basis, Debye-Ang):
   XX=             10.5873   YY=              0.3580   ZZ=            -10.9453
   XY=             -1.5794   XZ=             -1.8801   YZ=             -3.1259
 Octapole moment (field-independent basis, Debye-Ang**2):
  XXX=             30.2691  YYY=             23.5645  ZZZ=             -2.1031  XYY=              1.5354
  XXY=              8.0618  XXZ=            -21.6831  XZZ=             -2.0539  YZZ=              2.4483
  YYZ=             -7.1322  XYZ=              3.4855
 Hexadecapole moment (field-independent basis, Debye-Ang**3):
 XXXX=           -873.5144 YYYY=           -444.6186 ZZZZ=            -68.1199 XXXY=            -18.1823
 XXXZ=            -42.9940 YYYX=            -15.3241 YYYZ=            -15.9224 ZZZX=             -1.3876
 ZZZY=             -2.6301 XXYY=           -225.6588 XXZZ=           -199.0672 YYZZ=           -106.5368
 XXYZ=            -15.9930 YYXZ=              7.1413 ZZXY=             -1.3726
 N-N= 4.270540260446D+02 E-N=-1.741681558175D+03  KE= 3.787462375962D+02
 Evaluate density.
 Using the total density.
 Monte-Carlo method of calculating molar volume:
 based on  0.001 e/bohr**3 density envelope.
 Number of points per bohr**3 =   20 CutOff= 1.00D-04
 Using the CI density.
 There are       351 points.  Will hold       351 in memory.
 LenV=   805205619 MDV=   805306368.
 Box volume = 5448.862 fraction occupied=0.205
 Integrated density= 3.6950623353223321D+01 error=-2.9049376646776679D+01
 Molar volume = 1117.715 bohr**3/mol ( 99.744 cm**3/mol)
 Recommended a0 for SCRF calculation =  4.25 angstrom (  8.03 bohr)
 ******************************Gaussian NBO Version 3.1******************************
             N A T U R A L   A T O M I C   O R B I T A L   A N D
          N A T U R A L   B O N D   O R B I T A L   A N A L Y S I S
 ******************************Gaussian NBO Version 3.1******************************
       /RESON  / : Allow strongly delocalized NBO set

 Analyzing the CI density

 Job title: VOZKAJLKRJDJLL-UHFFFAOYSA-N_conf_0                              

 Storage needed:    103962 in NPA ( 805304373 available)
 GSVD:  LWork=       19441 too small for GESVD, short by        9371 words or        9371 for optimal perf.


 NATURAL POPULATIONS:  Natural atomic orbital occupancies 
                                                          
   NAO  Atom  No  lang   Type(AO)    Occupancy
 --------------------------------------------
     1    C    1  S      Cor( 1S)     1.99940
     2    C    1  S      Val( 2S)     1.10076
     3    C    1  S      Ryd( 3S)     0.00027
     4    C    1  S      Ryd( 4S)     0.00001
     5    C    1  px     Val( 2p)     1.10713
     6    C    1  px     Ryd( 3p)     0.00114
     7    C    1  py     Val( 2p)     1.25991
     8    C    1  py     Ryd( 3p)     0.00285
     9    C    1  pz     Val( 2p)     1.24476
    10    C    1  pz     Ryd( 3p)     0.00042
    11    C    1  dxy    Ryd( 3d)     0.00037
    12    C    1  dxz    Ryd( 3d)     0.00084
    13    C    1  dyz    Ryd( 3d)     0.00041
    14    C    1  dx2y2  Ryd( 3d)     0.00075
    15    C    1  dz2    Ryd( 3d)     0.00052

    16    C    2  S      Cor( 1S)     1.99899
    17    C    2  S      Val( 2S)     0.88287
    18    C    2  S      Ryd( 3S)     0.00042
    19    C    2  S      Ryd( 4S)     0.00005
    20    C    2  px     Val( 2p)     1.05983
    21    C    2  px     Ryd( 3p)     0.00404
    22    C    2  py     Val( 2p)     1.07402
    23    C    2  py     Ryd( 3p)     0.00411
    24    C    2  pz     Val( 2p)     0.98681
    25    C    2  pz     Ryd( 3p)     0.00366
    26    C    2  dxy    Ryd( 3d)     0.00074
    27    C    2  dxz    Ryd( 3d)     0.00059
    28    C    2  dyz    Ryd( 3d)     0.00093
    29    C    2  dx2y2  Ryd( 3d)     0.00072
    30    C    2  dz2    Ryd( 3d)     0.00034

    31    C    3  S      Cor( 1S)     1.99909
    32    C    3  S      Val( 2S)     0.93906
    33    C    3  S      Ryd( 3S)     0.00067
    34    C    3  S      Ryd( 4S)     0.00004
    35    C    3  px     Val( 2p)     1.06393
    36    C    3  px     Ryd( 3p)     0.00479
    37    C    3  py     Val( 2p)     1.17265
    38    C    3  py     Ryd( 3p)     0.00472
    39    C    3  pz     Val( 2p)     1.16966
    40    C    3  pz     Ryd( 3p)     0.00701
    41    C    3  dxy    Ryd( 3d)     0.00064
    42    C    3  dxz    Ryd( 3d)     0.00054
    43    C    3  dyz    Ryd( 3d)     0.00038
    44    C    3  dx2y2  Ryd( 3d)     0.00065
    45    C    3  dz2    Ryd( 3d)     0.00037

    46    C    4  S      Cor( 1S)     1.99905
    47    C    4  S      Val( 2S)     0.95760
    48    C    4  S      Ryd( 3S)     0.00057
    49    C    4  S      Ryd( 4S)     0.00004
    50    C    4  px     Val( 2p)     1.12770
    51    C    4  px     Ryd( 3p)     0.00428
    52    C    4  py     Val( 2p)     1.11809
    53    C    4  py     Ryd( 3p)     0.00431
    54    C    4  pz     Val( 2p)     1.04346
    55    C    4  pz     Ryd( 3p)     0.00507
    56    C    4  dxy    Ryd( 3d)     0.00072
    57    C    4  dxz    Ryd( 3d)     0.00067
    58    C    4  dyz    Ryd( 3d)     0.00050
    59    C    4  dx2y2  Ryd( 3d)     0.00061
    60    C    4  dz2    Ryd( 3d)     0.00038

    61    C    5  S      Cor( 1S)     1.99899
    62    C    5  S      Val( 2S)     0.84593
    63    C    5  S      Ryd( 3S)     0.00120
    64    C    5  S      Ryd( 4S)     0.00010
    65    C    5  px     Val( 2p)     0.90244
    66    C    5  px     Ryd( 3p)     0.00559
    67    C    5  py     Val( 2p)     1.08706
    68    C    5  py     Ryd( 3p)     0.00473
    69    C    5  pz     Val( 2p)     0.99667
    70    C    5  pz     Ryd( 3p)     0.00272
    71    C    5  dxy    Ryd( 3d)     0.00091
    72    C    5  dxz    Ryd( 3d)     0.00138
    73    C    5  dyz    Ryd( 3d)     0.00117
    74    C    5  dx2y2  Ryd( 3d)     0.00113
    75    C    5  dz2    Ryd( 3d)     0.00040

    76    N    6  S      Cor( 1S)     1.99950
    77    N    6  S      Val( 2S)     1.37535
    78    N    6  S      Ryd( 3S)     0.00018
    79    N    6  S      Ryd( 4S)     0.00001
    80    N    6  px     Val( 2p)     1.32761
    81    N    6  px     Ryd( 3p)     0.00223
    82    N    6  py     Val( 2p)     1.41458
    83    N    6  py     Ryd( 3p)     0.00207
    84    N    6  pz     Val( 2p)     1.64357
    85    N    6  pz     Ryd( 3p)     0.00383
    86    N    6  dxy    Ryd( 3d)     0.00039
    87    N    6  dxz    Ryd( 3d)     0.00096
    88    N    6  dyz    Ryd( 3d)     0.00090
    89    N    6  dx2y2  Ryd( 3d)     0.00046
    90    N    6  dz2    Ryd( 3d)     0.00072

    91    C    7  S      Cor( 1S)     1.99901
    92    C    7  S      Val( 2S)     0.93506
    93    C    7  S      Ryd( 3S)     0.00074
    94    C    7  S      Ryd( 4S)     0.00004
    95    C    7  px     Val( 2p)     1.06184
    96    C    7  px     Ryd( 3p)     0.00423
    97    C    7  py     Val( 2p)     1.17085
    98    C    7  py     Ryd( 3p)     0.00362
    99    C    7  pz     Val( 2p)     1.24886
   100    C    7  pz     Ryd( 3p)     0.00852
   101    C    7  dxy    Ryd( 3d)     0.00056
   102    C    7  dxz    Ryd( 3d)     0.00047
   103    C    7  dyz    Ryd( 3d)     0.00041
   104    C    7  dx2y2  Ryd( 3d)     0.00056
   105    C    7  dz2    Ryd( 3d)     0.00040

   106    C    8  S      Cor( 1S)     1.99894
   107    C    8  S      Val( 2S)     0.83517
   108    C    8  S      Ryd( 3S)     0.00119
   109    C    8  S      Ryd( 4S)     0.00010
   110    C    8  px     Val( 2p)     1.00828
   111    C    8  px     Ryd( 3p)     0.00471
   112    C    8  py     Val( 2p)     0.97496
   113    C    8  py     Ryd( 3p)     0.00537
   114    C    8  pz     Val( 2p)     1.02984
   115    C    8  pz     Ryd( 3p)     0.00299
   116    C    8  dxy    Ryd( 3d)     0.00115
   117    C    8  dxz    Ryd( 3d)     0.00130
   118    C    8  dyz    Ryd( 3d)     0.00108
   119    C    8  dx2y2  Ryd( 3d)     0.00085
   120    C    8  dz2    Ryd( 3d)     0.00040

   121    N    9  S      Cor( 1S)     1.99951
   122    N    9  S      Val( 2S)     1.36913
   123    N    9  S      Ryd( 3S)     0.00023
   124    N    9  S      Ryd( 4S)     0.00001
   125    N    9  px     Val( 2p)     1.38625
   126    N    9  px     Ryd( 3p)     0.00220
   127    N    9  py     Val( 2p)     1.35930
   128    N    9  py     Ryd( 3p)     0.00207
   129    N    9  pz     Val( 2p)     1.67258
   130    N    9  pz     Ryd( 3p)     0.00426
   131    N    9  dxy    Ryd( 3d)     0.00048
   132    N    9  dxz    Ryd( 3d)     0.00098
   133    N    9  dyz    Ryd( 3d)     0.00086
   134    N    9  dx2y2  Ryd( 3d)     0.00037
   135    N    9  dz2    Ryd( 3d)     0.00075

   136    H   10  S      Val( 1S)     0.74810
   137    H   10  S      Ryd( 2S)     0.00083
   138    H   10  px     Ryd( 2p)     0.00008
   139    H   10  py     Ryd( 2p)     0.00033
   140    H   10  pz     Ryd( 2p)     0.00008

   141    H   11  S      Val( 1S)     0.74804
   142    H   11  S      Ryd( 2S)     0.00145
   143    H   11  px     Ryd( 2p)     0.00015
   144    H   11  py     Ryd( 2p)     0.00013
   145    H   11  pz     Ryd( 2p)     0.00026

   146    H   12  S      Val( 1S)     0.75226
   147    H   12  S      Ryd( 2S)     0.00131
   148    H   12  px     Ryd( 2p)     0.00016
   149    H   12  py     Ryd( 2p)     0.00012
   150    H   12  pz     Ryd( 2p)     0.00028

   151    H   13  S      Val( 1S)     0.77286
   152    H   13  S      Ryd( 2S)     0.00092
   153    H   13  px     Ryd( 2p)     0.00009
   154    H   13  py     Ryd( 2p)     0.00036
   155    H   13  pz     Ryd( 2p)     0.00024

   156    H   14  S      Val( 1S)     0.76531
   157    H   14  S      Ryd( 2S)     0.00113
   158    H   14  px     Ryd( 2p)     0.00021
   159    H   14  py     Ryd( 2p)     0.00026
   160    H   14  pz     Ryd( 2p)     0.00017

   161    H   15  S      Val( 1S)     0.57994
   162    H   15  S      Ryd( 2S)     0.00150
   163    H   15  px     Ryd( 2p)     0.00036
   164    H   15  py     Ryd( 2p)     0.00040
   165    H   15  pz     Ryd( 2p)     0.00050

   166    H   16  S      Val( 1S)     0.58170
   167    H   16  S      Ryd( 2S)     0.00276
   168    H   16  px     Ryd( 2p)     0.00024
   169    H   16  py     Ryd( 2p)     0.00052
   170    H   16  pz     Ryd( 2p)     0.00050

   171    H   17  S      Val( 1S)     0.77325
   172    H   17  S      Ryd( 2S)     0.00117
   173    H   17  px     Ryd( 2p)     0.00008
   174    H   17  py     Ryd( 2p)     0.00034
   175    H   17  pz     Ryd( 2p)     0.00026

   176    H   18  S      Val( 1S)     0.58323
   177    H   18  S      Ryd( 2S)     0.00114
   178    H   18  px     Ryd( 2p)     0.00051
   179    H   18  py     Ryd( 2p)     0.00022
   180    H   18  pz     Ryd( 2p)     0.00054

   181    H   19  S      Val( 1S)     0.58392
   182    H   19  S      Ryd( 2S)     0.00238
   183    H   19  px     Ryd( 2p)     0.00025
   184    H   19  py     Ryd( 2p)     0.00050
   185    H   19  pz     Ryd( 2p)     0.00048

 WARNING:  1 low occupancy (<1.9990e) core orbital  found on  C    2
           1 low occupancy (<1.9990e) core orbital  found on  C    5
           1 low occupancy (<1.9990e) core orbital  found on  C    8


 Summary of Natural Population Analysis:                  
                                                          
                                       Natural Population 
                Natural  -----------------------------------------------
    Atom  No    Charge         Core      Valence    Rydberg      Total
 -----------------------------------------------------------------------
      C    1   -0.71957      1.99940     4.71256    0.00761     6.71957
      C    2   -0.01812      1.99899     4.00353    0.01560     6.01812
      C    3   -0.36418      1.99909     4.34529    0.01979     6.36418
      C    4   -0.26305      1.99905     4.24686    0.01714     6.26305
      C    5    0.14960      1.99899     3.83210    0.01931     5.85040
      N    6   -0.77236      1.99950     5.76112    0.01175     7.77236
      C    7   -0.43516      1.99901     4.41661    0.01955     6.43516
      C    8    0.13365      1.99894     3.84826    0.01914     5.86635
      N    9   -0.79899      1.99951     5.78726    0.01222     7.79899
      H   10    0.25057      0.00000     0.74810    0.00132     0.74943
      H   11    0.24998      0.00000     0.74804    0.00199     0.75002
      H   12    0.24588      0.00000     0.75226    0.00186     0.75412
      H   13    0.22554      0.00000     0.77286    0.00160     0.77446
      H   14    0.23292      0.00000     0.76531    0.00177     0.76708
      H   15    0.41730      0.00000     0.57994    0.00276     0.58270
      H   16    0.41428      0.00000     0.58170    0.00401     0.58572
      H   17    0.22490      0.00000     0.77325    0.00185     0.77510
      H   18    0.41436      0.00000     0.58323    0.00241     0.58564
      H   19    0.41246      0.00000     0.58392    0.00362     0.58754
 =======================================================================
   * Total *   -0.00000     17.99248    47.84221    0.16531    66.00000

                                 Natural Population      
 --------------------------------------------------------
   Core                      17.99248 ( 99.9582% of  18)
   Valence                   47.84221 ( 99.6713% of  48)
   Natural Minimal Basis     65.83469 ( 99.7495% of  66)
   Natural Rydberg Basis      0.16531 (  0.2505% of  66)
 --------------------------------------------------------

    Atom  No          Natural Electron Configuration
 ----------------------------------------------------------------------------
      C    1      [core]2S( 1.10)2p( 3.61)
      C    2      [core]2S( 0.88)2p( 3.12)3p( 0.01)
      C    3      [core]2S( 0.94)2p( 3.41)3p( 0.02)
      C    4      [core]2S( 0.96)2p( 3.29)3p( 0.01)
      C    5      [core]2S( 0.85)2p( 2.99)3p( 0.01)
      N    6      [core]2S( 1.38)2p( 4.39)3p( 0.01)
      C    7      [core]2S( 0.94)2p( 3.48)3p( 0.02)
      C    8      [core]2S( 0.84)2p( 3.01)3p( 0.01)
      N    9      [core]2S( 1.37)2p( 4.42)3p( 0.01)
      H   10            1S( 0.75)
      H   11            1S( 0.75)
      H   12            1S( 0.75)
      H   13            1S( 0.77)
      H   14            1S( 0.77)
      H   15            1S( 0.58)
      H   16            1S( 0.58)
      H   17            1S( 0.77)
      H   18            1S( 0.58)
      H   19            1S( 0.58)


 NBO analysis skipped by request.
 1\1\GINC-DRG2-W002\SP\RB3LYP TD-FC\6-31G(d,p)\C7H10N2\QDUEZ\19-Jul-202
 4\0\\# TD(NStates=10, Root=1) B3LYP/6-31G** SCRF=(Solvent=water) volum
 e pop=NPA density=current Geom=AllCheck Guess=Read\\VOZKAJLKRJDJLL-UHF
 FFAOYSA-N_conf_0\\0,1\C,0,-2.4120710016,0.9027159789,0.2828149921\C,0,
 -0.9502290087,0.5440756645,0.173497508\C,0,0.0500743272,1.3900150644,0
 .6591448596\C,0,1.4076178297,1.0865008423,0.5620891536\C,0,1.805437272
 9,-0.1158655931,-0.0459653217\N,0,3.1633223457,-0.4169878994,-0.217832
 3394\C,0,0.8180876217,-0.9838373671,-0.5346183525\C,0,-0.5448448632,-0
 .6686459345,-0.4342580386\N,0,-1.5002048724,-1.5268652334,-0.992518628
 7\H,0,-2.537076069,1.8903675342,0.7344420373\H,0,-2.9043427728,0.91904
 93649,-0.6981037409\H,0,-2.9728105036,0.1897160383,0.9039498026\H,0,-0
 .2462252554,2.3228617851,1.1340972349\H,0,2.1550587521,1.7725941676,0.
 9507371946\H,0,3.7700065922,0.0173843178,0.4668073778\H,0,3.3633462846
 ,-1.4072768338,-0.2880717625\H,0,1.1128661865,-1.9204657995,-1.0035623
 234\H,0,-2.4008013495,-1.5176439559,-0.530840981\H,0,-1.1772115165,-2.
 4776921415,-1.1218086718\\Version=ES64L-G16RevA.03\State=1-A\HF=-382.3
 04824\RMSD=6.440e-09\Dipole=0.1533809,-1.1530332,0.5159293\Quadrupole=
 7.8164495,0.3926021,-8.2090517,-0.025089,2.19133,1.9329646\PG=C01 [X(C
 7H10N2)]\\@


 ONE OF THE BENEFITS OF A COLLEGE EDUCATION
 IS TO SHOW THE BOY ITS LITTLE AVAIL 
                                    EMERSON IN 'CULTURE'
 Job cpu time:       0 days  0 hours 15 minutes 22.5 seconds.
 Elapsed time:       0 days  0 hours  5 minutes 11.8 seconds.
 File lengths (MBytes):  RWF=    335 Int=      0 D2E=      0 Chk=     21 Scr=      1
 Normal termination of Gaussian 16 at Fri Jul 19 09:48:47 2024.
