 Entering Gaussian System, Link 0=g16
 Initial command:
 /opt/sw/arch/manual/gaussian/G16_A03/g16/l1.exe "/scratch/1380787/Gau-172227.inp" -scrdir="/scratch/1380787/"
 Entering Link 1 = /opt/sw/arch/manual/gaussian/G16_A03/g16/l1.exe PID=    172228.
  
 Copyright (c) 1988,1990,1992,1993,1995,1998,2003,2009,2016,
            Gaussian, Inc.  All Rights Reserved.
  
 This is part of the Gaussian(R) 16 program.  It is based on
 the Gaussian(R) 09 system (copyright 2009, Gaussian, Inc.),
 the Gaussian(R) 03 system (copyright 2003, Gaussian, Inc.),
 the Gaussian(R) 98 system (copyright 1998, Gaussian, Inc.),
 the Gaussian(R) 94 system (copyright 1995, Gaussian, Inc.),
 the Gaussian 92(TM) system (copyright 1992, Gaussian, Inc.),
 the Gaussian 90(TM) system (copyright 1990, Gaussian, Inc.),
 the Gaussian 88(TM) system (copyright 1988, Gaussian, Inc.),
 the Gaussian 86(TM) system (copyright 1986, Carnegie Mellon
 University), and the Gaussian 82(TM) system (copyright 1983,
 Carnegie Mellon University). Gaussian is a federally registered
 trademark of Gaussian, Inc.
  
 This software contains proprietary and confidential information,
 including trade secrets, belonging to Gaussian, Inc.
  
 This software is provided under written license and may be
 used, copied, transmitted, or stored only in accord with that
 written license.
  
 The following legend is applicable only to US Government
 contracts under FAR:
  
                    RESTRICTED RIGHTS LEGEND
  
 Use, reproduction and disclosure by the US Government is
 subject to restrictions as set forth in subparagraphs (a)
 and (c) of the Commercial Computer Software - Restricted
 Rights clause in FAR 52.227-19.
  
 Gaussian, Inc.
 340 Quinnipiac St., Bldg. 40, Wallingford CT 06492
  
  
 ---------------------------------------------------------------
 Warning -- This program may not be used in any manner that
 competes with the business of Gaussian, Inc. or will provide
 assistance to any competitor of Gaussian, Inc.  The licensee
 of this program is prohibited from giving any competitor of
 Gaussian, Inc. access to this program.  By using this program,
 the user acknowledges that Gaussian, Inc. is engaged in the
 business of creating and licensing software in the field of
 computational chemistry and represents and warrants to the
 licensee that it is not a competitor of Gaussian, Inc. and that
 it will not use this program in any manner prohibited above.
 ---------------------------------------------------------------
  

 Cite this work as:
 Gaussian 16, Revision A.03,
 M. J. Frisch, G. W. Trucks, H. B. Schlegel, G. E. Scuseria, 
 M. A. Robb, J. R. Cheeseman, G. Scalmani, V. Barone, 
 G. A. Petersson, H. Nakatsuji, X. Li, M. Caricato, A. V. Marenich, 
 J. Bloino, B. G. Janesko, R. Gomperts, B. Mennucci, H. P. Hratchian, 
 J. V. Ortiz, A. F. Izmaylov, J. L. Sonnenberg, D. Williams-Young, 
 F. Ding, F. Lipparini, F. Egidi, J. Goings, B. Peng, A. Petrone, 
 T. Henderson, D. Ranasinghe, V. G. Zakrzewski, J. Gao, N. Rega, 
 G. Zheng, W. Liang, M. Hada, M. Ehara, K. Toyota, R. Fukuda, 
 J. Hasegawa, M. Ishida, T. Nakajima, Y. Honda, O. Kitao, H. Nakai, 
 T. Vreven, K. Throssell, J. A. Montgomery, Jr., J. E. Peralta, 
 F. Ogliaro, M. J. Bearpark, J. J. Heyd, E. N. Brothers, K. N. Kudin, 
 V. N. Staroverov, T. A. Keith, R. Kobayashi, J. Normand, 
 K. Raghavachari, A. P. Rendell, J. C. Burant, S. S. Iyengar, 
 J. Tomasi, M. Cossi, J. M. Millam, M. Klene, C. Adamo, R. Cammi, 
 J. W. Ochterski, R. L. Martin, K. Morokuma, O. Farkas, 
 J. B. Foresman, and D. J. Fox, Gaussian, Inc., Wallingford CT, 2016.
 
 ******************************************
 Gaussian 16:  ES64L-G16RevA.03 25-Dec-2016
                17-Jul-2024 
 ******************************************
 %nprocshared=3
 Will use up to    3 processors via shared memory.
 %mem=6GB
 %Chk=AHLPHDHHMVZTML-BYPYZUCNSA-N_conf_0_0.chk
 -------------------------------------------------------
 # opt=CalcFc B3LYP/6-31G** SCRF=(Solvent=water) scf=xqc
 -------------------------------------------------------
 1/10=4,18=20,19=15,26=3,38=1/1,3;
 2/9=110,12=2,17=6,18=5,40=1/2;
 3/5=1,6=6,7=101,11=2,25=1,30=1,70=2201,71=2,72=1,74=-5,140=1/1,2,3;
 4//1;
 5/5=2,8=3,13=1,38=5,53=1/2,8;
 8/6=4,10=90,11=11/1;
 11/6=1,8=1,9=11,15=111,16=1/1,2,10;
 10/6=1,13=1/2;
 6/7=2,8=2,9=2,10=2,28=1/1;
 7/10=1,18=20,25=1/1,2,3,16;
 1/10=4,18=20,19=15,26=3/3(2);
 2/9=110/2;
 99//99;
 2/9=110/2;
 3/5=1,6=6,7=101,11=2,25=1,30=1,70=2205,71=1,72=1,74=-5/1,2,3;
 4/5=5,16=3,69=1/1;
 5/5=2,8=3,13=1,38=5,53=1/2,8;
 7//1,2,3,16;
 1/18=20,19=15,26=3/3(-5);
 2/9=110/2;
 6/7=2,8=2,9=2,10=2,19=2,28=1/1;
 99/9=1/99;
 ----------------------------------
 AHLPHDHHMVZTML-BYPYZUCNSA-N_conf_0
 ----------------------------------
 Symbolic Z-matrix:
 Charge =  0 Multiplicity = 1
 N                    -2.54684  -0.54708  -1.28015 
 C                    -1.61135  -0.41569  -0.13878 
 C                    -0.17958  -0.20898  -0.6503 
 C                     0.86039  -0.23643   0.47603 
 C                     2.27858  -0.12541  -0.08353 
 N                     3.25031  -0.12259   1.00144 
 C                    -2.05026   0.75237   0.75218 
 O                    -2.44142   1.84191   0.05014 
 O                    -2.02904   0.78143   1.97235 
 H                    -2.14269  -1.15188  -1.99186 
 H                    -2.6489    0.37763  -1.70662 
 H                    -1.68193  -1.33536   0.45215 
 H                     0.0662   -1.00022  -1.37071 
 H                    -0.10271   0.74571  -1.18701 
 H                     0.67751   0.59077   1.17239 
 H                     0.7581   -1.16893   1.04527 
 H                     2.48727  -0.96442  -0.75634 
 H                     2.38486   0.79962  -0.66021 
 H                     4.19347  -0.10774   0.61545 
 H                     3.17456  -0.98505   1.53956 
 H                    -2.69656   2.48033   0.74855 
 

 GradGradGradGradGradGradGradGradGradGradGradGradGradGradGradGradGradGrad
 Berny optimization.
 Initialization pass.
                           ----------------------------
                           !    Initial Parameters    !
                           ! (Angstroms and Degrees)  !
 --------------------------                            --------------------------
 ! Name  Definition              Value          Derivative Info.                !
 --------------------------------------------------------------------------------
 ! R1    R(1,2)                  1.4816         calculate D2E/DX2 analytically  !
 ! R2    R(1,10)                 1.0177         calculate D2E/DX2 analytically  !
 ! R3    R(1,11)                 1.0234         calculate D2E/DX2 analytically  !
 ! R4    R(2,3)                  1.5344         calculate D2E/DX2 analytically  !
 ! R5    R(2,7)                  1.5332         calculate D2E/DX2 analytically  !
 ! R6    R(2,12)                 1.0954         calculate D2E/DX2 analytically  !
 ! R7    R(3,4)                  1.5333         calculate D2E/DX2 analytically  !
 ! R8    R(3,13)                 1.0979         calculate D2E/DX2 analytically  !
 ! R9    R(3,14)                 1.0979         calculate D2E/DX2 analytically  !
 ! R10   R(4,5)                  1.5286         calculate D2E/DX2 analytically  !
 ! R11   R(4,15)                 1.0966         calculate D2E/DX2 analytically  !
 ! R12   R(4,16)                 1.0973         calculate D2E/DX2 analytically  !
 ! R13   R(5,6)                  1.4565         calculate D2E/DX2 analytically  !
 ! R14   R(5,17)                 1.0955         calculate D2E/DX2 analytically  !
 ! R15   R(5,18)                 1.0952         calculate D2E/DX2 analytically  !
 ! R16   R(6,19)                 1.0192         calculate D2E/DX2 analytically  !
 ! R17   R(6,20)                 1.0194         calculate D2E/DX2 analytically  !
 ! R18   R(7,8)                  1.3539         calculate D2E/DX2 analytically  !
 ! R19   R(7,9)                  1.2207         calculate D2E/DX2 analytically  !
 ! R20   R(8,21)                 0.98           calculate D2E/DX2 analytically  !
 ! A1    A(2,1,10)             109.9201         calculate D2E/DX2 analytically  !
 ! A2    A(2,1,11)             107.6895         calculate D2E/DX2 analytically  !
 ! A3    A(10,1,11)            106.5685         calculate D2E/DX2 analytically  !
 ! A4    A(1,2,3)              110.1393         calculate D2E/DX2 analytically  !
 ! A5    A(1,2,7)              109.5402         calculate D2E/DX2 analytically  !
 ! A6    A(1,2,12)             107.4836         calculate D2E/DX2 analytically  !
 ! A7    A(3,2,7)              110.9902         calculate D2E/DX2 analytically  !
 ! A8    A(3,2,12)             110.6747         calculate D2E/DX2 analytically  !
 ! A9    A(7,2,12)             107.9195         calculate D2E/DX2 analytically  !
 ! A10   A(2,3,4)              112.6813         calculate D2E/DX2 analytically  !
 ! A11   A(2,3,13)             109.3014         calculate D2E/DX2 analytically  !
 ! A12   A(2,3,14)             110.2088         calculate D2E/DX2 analytically  !
 ! A13   A(4,3,13)             108.4979         calculate D2E/DX2 analytically  !
 ! A14   A(4,3,14)             109.0978         calculate D2E/DX2 analytically  !
 ! A15   A(13,3,14)            106.8716         calculate D2E/DX2 analytically  !
 ! A16   A(3,4,5)              111.0432         calculate D2E/DX2 analytically  !
 ! A17   A(3,4,15)             109.8678         calculate D2E/DX2 analytically  !
 ! A18   A(3,4,16)             109.455          calculate D2E/DX2 analytically  !
 ! A19   A(5,4,15)             109.413          calculate D2E/DX2 analytically  !
 ! A20   A(5,4,16)             109.7611         calculate D2E/DX2 analytically  !
 ! A21   A(15,4,16)            107.2209         calculate D2E/DX2 analytically  !
 ! A22   A(4,5,6)              110.2692         calculate D2E/DX2 analytically  !
 ! A23   A(4,5,17)             110.2379         calculate D2E/DX2 analytically  !
 ! A24   A(4,5,18)             110.1274         calculate D2E/DX2 analytically  !
 ! A25   A(6,5,17)             109.3827         calculate D2E/DX2 analytically  !
 ! A26   A(6,5,18)             109.017          calculate D2E/DX2 analytically  !
 ! A27   A(17,5,18)            107.7569         calculate D2E/DX2 analytically  !
 ! A28   A(5,6,19)             109.591          calculate D2E/DX2 analytically  !
 ! A29   A(5,6,20)             109.9996         calculate D2E/DX2 analytically  !
 ! A30   A(19,6,20)            106.3209         calculate D2E/DX2 analytically  !
 ! A31   A(2,7,8)              113.2331         calculate D2E/DX2 analytically  !
 ! A32   A(2,7,9)              126.4414         calculate D2E/DX2 analytically  !
 ! A33   A(8,7,9)              120.2773         calculate D2E/DX2 analytically  !
 ! A34   A(7,8,21)             103.2925         calculate D2E/DX2 analytically  !
 ! D1    D(10,1,2,3)            43.4356         calculate D2E/DX2 analytically  !
 ! D2    D(10,1,2,7)           165.78           calculate D2E/DX2 analytically  !
 ! D3    D(10,1,2,12)          -77.2137         calculate D2E/DX2 analytically  !
 ! D4    D(11,1,2,3)           -72.2825         calculate D2E/DX2 analytically  !
 ! D5    D(11,1,2,7)            50.062          calculate D2E/DX2 analytically  !
 ! D6    D(11,1,2,12)          167.0682         calculate D2E/DX2 analytically  !
 ! D7    D(1,2,3,4)           -173.0124         calculate D2E/DX2 analytically  !
 ! D8    D(1,2,3,13)           -52.3014         calculate D2E/DX2 analytically  !
 ! D9    D(1,2,3,14)            64.8667         calculate D2E/DX2 analytically  !
 ! D10   D(7,2,3,4)             65.5029         calculate D2E/DX2 analytically  !
 ! D11   D(7,2,3,13)          -173.7861         calculate D2E/DX2 analytically  !
 ! D12   D(7,2,3,14)           -56.618          calculate D2E/DX2 analytically  !
 ! D13   D(12,2,3,4)           -54.2999         calculate D2E/DX2 analytically  !
 ! D14   D(12,2,3,13)           66.4111         calculate D2E/DX2 analytically  !
 ! D15   D(12,2,3,14)         -176.4208         calculate D2E/DX2 analytically  !
 ! D16   D(1,2,7,8)            -42.1075         calculate D2E/DX2 analytically  !
 ! D17   D(1,2,7,9)            140.4348         calculate D2E/DX2 analytically  !
 ! D18   D(3,2,7,8)             79.7277         calculate D2E/DX2 analytically  !
 ! D19   D(3,2,7,9)            -97.73           calculate D2E/DX2 analytically  !
 ! D20   D(12,2,7,8)          -158.8392         calculate D2E/DX2 analytically  !
 ! D21   D(12,2,7,9)            23.7031         calculate D2E/DX2 analytically  !
 ! D22   D(2,3,4,5)            176.029          calculate D2E/DX2 analytically  !
 ! D23   D(2,3,4,15)           -62.7935         calculate D2E/DX2 analytically  !
 ! D24   D(2,3,4,16)            54.6904         calculate D2E/DX2 analytically  !
 ! D25   D(13,3,4,5)            54.8591         calculate D2E/DX2 analytically  !
 ! D26   D(13,3,4,15)          176.0365         calculate D2E/DX2 analytically  !
 ! D27   D(13,3,4,16)          -66.4795         calculate D2E/DX2 analytically  !
 ! D28   D(14,3,4,5)           -61.2257         calculate D2E/DX2 analytically  !
 ! D29   D(14,3,4,15)           59.9518         calculate D2E/DX2 analytically  !
 ! D30   D(14,3,4,16)          177.4357         calculate D2E/DX2 analytically  !
 ! D31   D(3,4,5,6)            178.7144         calculate D2E/DX2 analytically  !
 ! D32   D(3,4,5,17)           -60.4073         calculate D2E/DX2 analytically  !
 ! D33   D(3,4,5,18)            58.3634         calculate D2E/DX2 analytically  !
 ! D34   D(15,4,5,6)            57.2701         calculate D2E/DX2 analytically  !
 ! D35   D(15,4,5,17)          178.1484         calculate D2E/DX2 analytically  !
 ! D36   D(15,4,5,18)          -63.0808         calculate D2E/DX2 analytically  !
 ! D37   D(16,4,5,6)           -60.1267         calculate D2E/DX2 analytically  !
 ! D38   D(16,4,5,17)           60.7516         calculate D2E/DX2 analytically  !
 ! D39   D(16,4,5,18)          179.5223         calculate D2E/DX2 analytically  !
 ! D40   D(4,5,6,19)           176.4474         calculate D2E/DX2 analytically  !
 ! D41   D(4,5,6,20)            59.8984         calculate D2E/DX2 analytically  !
 ! D42   D(17,5,6,19)           55.0591         calculate D2E/DX2 analytically  !
 ! D43   D(17,5,6,20)          -61.4899         calculate D2E/DX2 analytically  !
 ! D44   D(18,5,6,19)          -62.5363         calculate D2E/DX2 analytically  !
 ! D45   D(18,5,6,20)         -179.0853         calculate D2E/DX2 analytically  !
 ! D46   D(2,7,8,21)           179.282          calculate D2E/DX2 analytically  !
 ! D47   D(9,7,8,21)            -3.0861         calculate D2E/DX2 analytically  !
 --------------------------------------------------------------------------------
 Trust Radius=3.00D-01 FncErr=1.00D-07 GrdErr=1.00D-06 EigMax=2.50D+02 EigMin=1.00D-04
 Number of steps in this run=    111 maximum allowed number of steps=    126.
 GradGradGradGradGradGradGradGradGradGradGradGradGradGradGradGradGradGrad

                          Input orientation:                          
 ---------------------------------------------------------------------
 Center     Atomic      Atomic             Coordinates (Angstroms)
 Number     Number       Type             X           Y           Z
 ---------------------------------------------------------------------
      1          7           0       -2.546836   -0.547079   -1.280152
      2          6           0       -1.611350   -0.415689   -0.138777
      3          6           0       -0.179575   -0.208979   -0.650299
      4          6           0        0.860392   -0.236426    0.476026
      5          6           0        2.278582   -0.125409   -0.083526
      6          7           0        3.250311   -0.122591    1.001442
      7          6           0       -2.050261    0.752370    0.752177
      8          8           0       -2.441417    1.841909    0.050137
      9          8           0       -2.029043    0.781426    1.972347
     10          1           0       -2.142686   -1.151884   -1.991860
     11          1           0       -2.648895    0.377629   -1.706620
     12          1           0       -1.681934   -1.335362    0.452147
     13          1           0        0.066200   -1.000221   -1.370708
     14          1           0       -0.102707    0.745709   -1.187007
     15          1           0        0.677512    0.590771    1.172392
     16          1           0        0.758102   -1.168927    1.045266
     17          1           0        2.487270   -0.964416   -0.756336
     18          1           0        2.384863    0.799623   -0.660211
     19          1           0        4.193472   -0.107742    0.615449
     20          1           0        3.174559   -0.985045    1.539559
     21          1           0       -2.696560    2.480333    0.748555
 ---------------------------------------------------------------------
                    Distance matrix (angstroms):
                    1          2          3          4          5
     1  N    0.000000
     2  C    1.481598   0.000000
     3  C    2.472842   1.534394   0.000000
     4  C    3.845760   2.553357   1.533263   0.000000
     5  C    4.989426   3.901139   2.524035   1.528622   0.000000
     6  N    6.244419   5.002175   3.807865   2.449639   1.456511
     7  C    2.462826   1.533233   2.527963   3.086403   4.495306
     8  O    2.736429   2.412768   3.132521   3.924641   5.115330
     9  O    3.551308   2.462599   3.358527   3.409375   4.858456
    10  H    1.017671   2.063545   2.557862   3.993370   4.923717
    11  H    1.023414   2.040585   2.749084   4.178051   5.212246
    12  H    2.090528   1.095432   2.177431   2.769774   4.175717
    13  H    2.653581   2.161830   1.097934   2.150477   2.704952
    14  H    2.766540   2.173393   1.097904   2.158200   2.765330
    15  H    4.207861   2.823299   2.167119   1.096644   2.157237
    16  H    4.088628   2.753839   2.162332   1.097294   2.162165
    17  H    5.078462   4.181049   2.773805   2.166891   1.095517
    18  H    5.149717   4.209346   2.755671   2.165281   1.095237
    19  H    7.015560   5.861711   4.553671   3.338476   2.038550
    20  H    6.393508   5.103519   4.080193   2.654600   2.043564
    21  H    3.647368   3.217449   3.940102   4.484079   5.677524
                    6          7          8          9         10
     6  N    0.000000
     7  C    5.378081   0.000000
     8  O    6.095901   1.353868   0.000000
     9  O    5.443480   1.220701   2.233735   0.000000
    10  H    6.253296   3.341327   3.636178   4.411977   0.000000
    11  H    6.510335   2.558217   2.296379   3.752608   1.636160
    12  H    5.108774   2.141099   3.291425   2.629122   2.493818
    13  H    4.066435   3.472409   4.047796   4.329010   2.299567
    14  H    4.097070   2.748354   2.863869   3.700482   2.900028
    15  H    2.675333   2.764677   3.542954   2.828730   4.582887
    16  H    2.703302   3.415288   4.504703   3.525838   4.199880
    17  H    2.093009   5.080566   5.728684   5.557945   4.795639
    18  H    2.088198   4.654825   4.988380   5.139383   5.106894
    19  H    1.019198   6.304181   6.938478   6.430512   6.930743
    20  H    1.019379   5.562134   6.461366   5.512277   6.385284
    21  H    6.496494   1.844877   0.980036   2.197620   4.583629
                   11         12         13         14         15
    11  H    0.000000
    12  H    2.920553   0.000000
    13  H    3.063177   2.547762   0.000000
    14  H    2.624606   3.084094   1.763674   0.000000
    15  H    4.404444   3.129812   3.061425   2.489882   0.000000
    16  H    4.644604   2.516598   2.518754   3.064289   1.766124
    17  H    5.392988   4.356637   2.498063   3.133367   3.068196
    18  H    5.158660   4.725921   3.020007   2.543310   2.513384
    19  H    7.241933   6.004508   4.666446   4.736495   3.627683
    20  H    6.804938   4.989059   4.258143   4.601103   2.975442
    21  H    3.232881   3.959400   4.923249   3.671974   3.890301
                   16         17         18         19         20
    16  H    0.000000
    17  H    2.505517   0.000000
    18  H    3.070861   1.769622   0.000000
    19  H    3.621136   2.350917   2.392005   0.000000
    20  H    2.473338   2.396649   2.940688   1.631509   0.000000
    21  H    5.033868   6.403365   5.534462   7.361277   6.863277
                   21
    21  H    0.000000
 Stoichiometry    C5H12N2O2
 Framework group  C1[X(C5H12N2O2)]
 Deg. of freedom    57
 Full point group                 C1      NOp   1
 Largest Abelian subgroup         C1      NOp   1
 Largest concise Abelian subgroup C1      NOp   1
                         Standard orientation:                         
 ---------------------------------------------------------------------
 Center     Atomic      Atomic             Coordinates (Angstroms)
 Number     Number       Type             X           Y           Z
 ---------------------------------------------------------------------
      1          7           0       -2.071682    1.689646   -0.273149
      2          6           0       -1.087606    0.619702   -0.559417
      3          6           0        0.242942    0.924400    0.141416
      4          6           0        1.355914   -0.054199   -0.251689
      5          6           0        2.685957    0.340739    0.389944
      6          7           0        3.723495   -0.616132    0.030311
      7          6           0       -1.651687   -0.731177   -0.103632
      8          8           0       -2.278472   -0.671222    1.094911
      9          8           0       -1.541531   -1.797287   -0.687914
     10          1           0       -1.625284    2.600942   -0.350108
     11          1           0       -2.364791    1.589697    0.702286
     12          1           0       -0.952168    0.579182   -1.645689
     13          1           0        0.565403    1.941261   -0.118335
     14          1           0        0.111812    0.900313    1.231195
     15          1           0        1.087131   -1.069966    0.062321
     16          1           0        1.460761   -0.068847   -1.343865
     17          1           0        2.983945    1.341655    0.058994
     18          1           0        2.585746    0.365504    1.480306
     19          1           0        4.617164   -0.311593    0.414208
     20          1           0        3.839879   -0.640108   -0.982119
     21          1           0       -2.585402   -1.591357    1.234964
 ---------------------------------------------------------------------
 Rotational constants (GHZ):           2.6156460           0.7790924           0.6741226
 Standard basis: 6-31G(d,p) (6D, 7F)
 There are   195 symmetry adapted cartesian basis functions of A   symmetry.
 There are   195 symmetry adapted basis functions of A   symmetry.
   195 basis functions,   336 primitive gaussians,   195 cartesian basis functions
    36 alpha electrons       36 beta electrons
       nuclear repulsion energy       471.6407616208 Hartrees.
 NAtoms=   21 NActive=   21 NUniq=   21 SFac= 1.00D+00 NAtFMM=   60 NAOKFM=F Big=F
 Integral buffers will be    131072 words long.
 Raffenetti 2 integral format.
 Two-electron integral symmetry is turned on.
 Force inversion solution in PCM.
 ------------------------------------------------------------------------------
 Polarizable Continuum Model (PCM)
 =================================
 Model                : PCM.
 Atomic radii         : UFF (Universal Force Field).
 Polarization charges : Total charges.
 Charge compensation  : None.
 Solution method      : Matrix inversion.
 Cavity type          : Scaled VdW (van der Waals Surface) (Alpha=1.100).
 Cavity algorithm     : GePol (No added spheres)
                        Default sphere list used, NSphG=   21.
                        Lebedev-Laikov grids with approx.  5.0 points / Ang**2.
                        Smoothing algorithm: York/Karplus (Gamma=1.0000).
                        Polarization charges: spherical gaussians, with
                                              point-specific exponents (IZeta= 3).
                        Self-potential: point-specific (ISelfS= 7).
                        Self-field    : sphere-specific E.n sum rule (ISelfD= 2).
 1st derivatives      : Analytical E(r).r(x)/FMM algorithm (CHGder, D1EAlg=3).
                        Cavity 1st derivative terms included.
 2nd derivatives      : Analytical E(r).r(xy)/FMM algorithm (CHGder, D2EAlg=3).
                        Cavity 2nd derivative terms included.
 Solvent              : Water, Eps=  78.355300 Eps(inf)=   1.777849
 ------------------------------------------------------------------------------
 One-electron integrals computed using PRISM.
 NBasis=   195 RedAO= T EigKep=  2.55D-03  NBF=   195
 NBsUse=   195 1.00D-06 EigRej= -1.00D+00 NBFU=   195
 ExpMin= 1.61D-01 ExpMax= 5.48D+03 ExpMxC= 8.25D+02 IAcc=3 IRadAn=         5 AccDes= 0.00D+00
 Harris functional with IExCor=  402 and IRadAn=       5 diagonalized for initial guess.
 HarFok:  IExCor=  402 AccDes= 0.00D+00 IRadAn=         5 IDoV= 1 UseB2=F ITyADJ=14
 ICtDFT=  3500011 ScaDFX=  1.000000  1.000000  1.000000  1.000000
 FoFCou: FMM=F IPFlag=           0 FMFlag=      100000 FMFlg1=           0
         NFxFlg=           0 DoJE=T BraDBF=F KetDBF=T FulRan=T
         wScrn=  0.000000 ICntrl=       500 IOpCl=  0 I1Cent=   200000004 NGrid=           0
         NMat0=    1 NMatS0=      1 NMatT0=    0 NMatD0=    1 NMtDS0=    0 NMtDT0=    0
 Petite list used in FoFCou.
 Keep R1 ints in memory in canonical form, NReq=186371640.
 Requested convergence on RMS density matrix=1.00D-08 within  32 cycles.
 Requested convergence on MAX density matrix=1.00D-06.
 Requested convergence on             energy=1.00D-06.
 No special actions if energy rises.
 Inv3:  Mode=1 IEnd=     7394700.
 Iteration    1 A*A^-1 deviation from unit magnitude is 2.66D-15 for    183.
 Iteration    1 A*A^-1 deviation from orthogonality  is 1.73D-15 for    730     65.
 Iteration    1 A^-1*A deviation from unit magnitude is 2.66D-15 for    183.
 Iteration    1 A^-1*A deviation from orthogonality  is 2.22D-15 for   1273    611.
 Error on total polarization charges =  0.00641
 SCF Done:  E(RB3LYP) =  -457.738697430     A.U. after   12 cycles
            NFock= 12  Conv=0.58D-08     -V/T= 2.0092
 QCSCF skips out because SCF is already converged.
 DoSCS=F DFT=T ScalE2(SS,OS)=  1.000000  1.000000
 Range of M.O.s used for correlation:     1   195
 NBasis=   195 NAE=    36 NBE=    36 NFC=     0 NFV=     0
 NROrb=    195 NOA=    36 NOB=    36 NVA=   159 NVB=   159
 Symmetrizing basis deriv contribution to polar:
 IMax=3 JMax=2 DiffMx= 0.00D+00
 G2DrvN: will do    22 centers at a time, making    1 passes.
 Calling FoFCou, ICntrl=  3107 FMM=F I1Cent=   0 AccDes= 0.00D+00.
 NEqPCM:  Using equilibrium solvation (IEInf=0, Eps=  78.3553, EpsInf=   1.7778)
 G2PCM: DoFxE=T DoFxN=T DoGrad=T DoDP/DQ/DG/TGxP=FFFF NFrqRd=   0 IEInf=0 SqF1=F DoCFld=F IF1Alg=4.
 End of G2Drv F.D. properties file   721 does not exist.
 End of G2Drv F.D. properties file   722 does not exist.
 End of G2Drv F.D. properties file   788 does not exist.
          IDoAtm=111111111111111111111
 NEqPCM:  Using equilibrium solvation (IEInf=0, Eps=  78.3553, EpsInf=   1.7778)
          Differentiating once with respect to nuclear coordinates.
 Keep R1 ints in memory in canonical form, NReq=189561357.
          There are    66 degrees of freedom in the 1st order CPHF.  IDoFFX=6 NUNeed=     0.
     60 vectors produced by pass  0 Test12= 8.67D-15 1.52D-09 XBig12= 1.36D-01 9.38D-02.
 AX will form    60 AO Fock derivatives at one time.
     60 vectors produced by pass  1 Test12= 8.67D-15 1.52D-09 XBig12= 1.23D-02 3.73D-02.
     60 vectors produced by pass  2 Test12= 8.67D-15 1.52D-09 XBig12= 9.92D-05 1.73D-03.
     60 vectors produced by pass  3 Test12= 8.67D-15 1.52D-09 XBig12= 6.52D-07 1.63D-04.
     60 vectors produced by pass  4 Test12= 8.67D-15 1.52D-09 XBig12= 1.14D-09 4.66D-06.
     31 vectors produced by pass  5 Test12= 8.67D-15 1.52D-09 XBig12= 8.18D-13 8.32D-08.
      3 vectors produced by pass  6 Test12= 8.67D-15 1.52D-09 XBig12= 5.11D-16 2.26D-09.
 InvSVY:  IOpt=1 It=  1 EMax= 3.61D-16
 Solved reduced A of dimension   334 with    66 vectors.
 End of Minotr F.D. properties file   721 does not exist.
 End of Minotr F.D. properties file   722 does not exist.
 End of Minotr F.D. properties file   788 does not exist.

 **********************************************************************

            Population analysis using the SCF density.

 **********************************************************************

 Orbital symmetries:
       Occupied  (A) (A) (A) (A) (A) (A) (A) (A) (A) (A) (A) (A)
                 (A) (A) (A) (A) (A) (A) (A) (A) (A) (A) (A) (A)
                 (A) (A) (A) (A) (A) (A) (A) (A) (A) (A) (A) (A)
       Virtual   (A) (A) (A) (A) (A) (A) (A) (A) (A) (A) (A) (A)
                 (A) (A) (A) (A) (A) (A) (A) (A) (A) (A) (A) (A)
                 (A) (A) (A) (A) (A) (A) (A) (A) (A) (A) (A) (A)
                 (A) (A) (A) (A) (A) (A) (A) (A) (A) (A) (A) (A)
                 (A) (A) (A) (A) (A) (A) (A) (A) (A) (A) (A) (A)
                 (A) (A) (A) (A) (A) (A) (A) (A) (A) (A) (A) (A)
                 (A) (A) (A) (A) (A) (A) (A) (A) (A) (A) (A) (A)
                 (A) (A) (A) (A) (A) (A) (A) (A) (A) (A) (A) (A)
                 (A) (A) (A) (A) (A) (A) (A) (A) (A) (A) (A) (A)
                 (A) (A) (A) (A) (A) (A) (A) (A) (A) (A) (A) (A)
                 (A) (A) (A) (A) (A) (A) (A) (A) (A) (A) (A) (A)
                 (A) (A) (A) (A) (A) (A) (A) (A) (A) (A) (A) (A)
                 (A) (A) (A) (A) (A) (A) (A) (A) (A) (A) (A) (A)
                 (A) (A) (A)
 The electronic state is 1-A.
 Alpha  occ. eigenvalues --  -19.20451 -19.14902 -14.31684 -14.30542 -10.32985
 Alpha  occ. eigenvalues --  -10.23267 -10.20097 -10.18824 -10.17906  -1.11361
 Alpha  occ. eigenvalues --   -1.01741  -0.89158  -0.87573  -0.78013  -0.71037
 Alpha  occ. eigenvalues --   -0.65176  -0.59752  -0.58622  -0.51075  -0.49297
 Alpha  occ. eigenvalues --   -0.48019  -0.47064  -0.46501  -0.44655  -0.43367
 Alpha  occ. eigenvalues --   -0.41266  -0.40494  -0.38958  -0.37422  -0.34866
 Alpha  occ. eigenvalues --   -0.34441  -0.33703  -0.32302  -0.28264  -0.24104
 Alpha  occ. eigenvalues --   -0.22988
 Alpha virt. eigenvalues --   -0.00432   0.07167   0.08923   0.10485   0.11695
 Alpha virt. eigenvalues --    0.12127   0.14470   0.15654   0.16978   0.17720
 Alpha virt. eigenvalues --    0.19112   0.19808   0.20745   0.21225   0.22186
 Alpha virt. eigenvalues --    0.24428   0.25069   0.28246   0.30213   0.32130
 Alpha virt. eigenvalues --    0.35955   0.50325   0.52072   0.53607   0.55560
 Alpha virt. eigenvalues --    0.56549   0.58326   0.59725   0.63287   0.64738
 Alpha virt. eigenvalues --    0.66418   0.67724   0.69986   0.70495   0.71756
 Alpha virt. eigenvalues --    0.73042   0.74269   0.76349   0.78814   0.79691
 Alpha virt. eigenvalues --    0.79817   0.81265   0.85225   0.85777   0.87207
 Alpha virt. eigenvalues --    0.88512   0.89147   0.90010   0.90695   0.91516
 Alpha virt. eigenvalues --    0.94089   0.94418   0.95138   0.97187   0.98913
 Alpha virt. eigenvalues --    1.00173   1.04226   1.06235   1.07523   1.09504
 Alpha virt. eigenvalues --    1.16766   1.18987   1.25390   1.30871   1.33356
 Alpha virt. eigenvalues --    1.35439   1.38511   1.40214   1.44201   1.47993
 Alpha virt. eigenvalues --    1.49329   1.53611   1.57451   1.61813   1.64183
 Alpha virt. eigenvalues --    1.66354   1.71312   1.73701   1.74953   1.76096
 Alpha virt. eigenvalues --    1.80408   1.80871   1.81658   1.84016   1.85901
 Alpha virt. eigenvalues --    1.87684   1.89076   1.90190   1.93251   1.95684
 Alpha virt. eigenvalues --    2.01829   2.02863   2.06566   2.07497   2.08052
 Alpha virt. eigenvalues --    2.10562   2.12645   2.14719   2.22235   2.23333
 Alpha virt. eigenvalues --    2.23906   2.25154   2.28250   2.29098   2.31936
 Alpha virt. eigenvalues --    2.32146   2.33171   2.36763   2.38594   2.39966
 Alpha virt. eigenvalues --    2.41963   2.42643   2.45653   2.49392   2.52606
 Alpha virt. eigenvalues --    2.53338   2.55867   2.58195   2.63563   2.64761
 Alpha virt. eigenvalues --    2.68760   2.69080   2.71239   2.72410   2.76832
 Alpha virt. eigenvalues --    2.77832   2.81742   2.85169   2.87827   2.88580
 Alpha virt. eigenvalues --    2.89511   2.91183   2.93201   2.96909   2.98028
 Alpha virt. eigenvalues --    2.98750   3.01493   3.13945   3.23777   3.28700
 Alpha virt. eigenvalues --    3.29261   3.30527   3.31617   3.37590   3.39597
 Alpha virt. eigenvalues --    3.43791   3.49221   3.54132   3.55656   3.58003
 Alpha virt. eigenvalues --    3.92929   3.97975   4.04965   4.17285   4.32091
 Alpha virt. eigenvalues --    4.38230   4.54967   4.67810   4.78675
          Condensed to atoms (all electrons):
               1          2          3          4          5          6
     1  N    6.820163   0.277349  -0.064105   0.005798  -0.000113   0.000000
     2  C    0.277349   4.993642   0.349133  -0.037304   0.003321  -0.000072
     3  C   -0.064105   0.349133   5.015870   0.313152  -0.028597   0.002911
     4  C    0.005798  -0.037304   0.313152   4.994790   0.360873  -0.053117
     5  C   -0.000113   0.003321  -0.028597   0.360873   4.795613   0.290567
     6  N    0.000000  -0.000072   0.002911  -0.053117   0.290567   6.823502
     7  C   -0.028690   0.321444  -0.028085  -0.001125   0.000189  -0.000004
     8  O   -0.003374  -0.089058   0.000082  -0.000154  -0.000002   0.000000
     9  O    0.001352  -0.060897  -0.001836   0.000868   0.000060   0.000000
    10  H    0.341685  -0.036781  -0.003862   0.000083  -0.000013   0.000000
    11  H    0.336794  -0.036957  -0.001204  -0.000024   0.000002  -0.000000
    12  H   -0.042866   0.391157  -0.042871  -0.002870  -0.000005   0.000001
    13  H   -0.005864  -0.032269   0.384426  -0.038519  -0.004770   0.000009
    14  H    0.000440  -0.033947   0.375975  -0.034095  -0.004544   0.000034
    15  H    0.000024  -0.005851  -0.032773   0.371638  -0.035515   0.005911
    16  H    0.000085  -0.003200  -0.041347   0.387950  -0.038150  -0.002874
    17  H   -0.000001  -0.000053  -0.000784  -0.048382   0.388190  -0.053811
    18  H   -0.000001   0.000048  -0.004709  -0.031861   0.386803  -0.042145
    19  H   -0.000000   0.000002  -0.000218   0.005749  -0.032106   0.337515
    20  H   -0.000000  -0.000002  -0.000093  -0.006353  -0.037982   0.341469
    21  H   -0.000211   0.009556  -0.000297  -0.000037  -0.000001   0.000000
               7          8          9         10         11         12
     1  N   -0.028690  -0.003374   0.001352   0.341685   0.336794  -0.042866
     2  C    0.321444  -0.089058  -0.060897  -0.036781  -0.036957   0.391157
     3  C   -0.028085   0.000082  -0.001836  -0.003862  -0.001204  -0.042871
     4  C   -0.001125  -0.000154   0.000868   0.000083  -0.000024  -0.002870
     5  C    0.000189  -0.000002   0.000060  -0.000013   0.000002  -0.000005
     6  N   -0.000004   0.000000   0.000000   0.000000  -0.000000   0.000001
     7  C    4.390046   0.261015   0.552575   0.004284  -0.014695  -0.043763
     8  O    0.261015   8.119321  -0.091499   0.000104   0.012556   0.002927
     9  O    0.552575  -0.091499   8.094073  -0.000085   0.000195   0.001550
    10  H    0.004284   0.000104  -0.000085   0.459801  -0.029088  -0.001705
    11  H   -0.014695   0.012556   0.000195  -0.029088   0.462287   0.005996
    12  H   -0.043763   0.002927   0.001550  -0.001705   0.005996   0.596506
    13  H    0.003984  -0.000019  -0.000089   0.006551  -0.000323  -0.004542
    14  H   -0.011325   0.004426  -0.000081  -0.000172   0.003867   0.005634
    15  H    0.006721  -0.000183   0.002653   0.000010   0.000007  -0.000242
    16  H   -0.001376   0.000009   0.000226   0.000013   0.000009   0.005196
    17  H   -0.000008   0.000000  -0.000001  -0.000003   0.000000   0.000011
    18  H   -0.000005  -0.000002   0.000001   0.000001  -0.000001   0.000001
    19  H    0.000000  -0.000000   0.000000  -0.000000   0.000000   0.000000
    20  H    0.000001  -0.000000  -0.000000   0.000000  -0.000000  -0.000002
    21  H   -0.010707   0.271190   0.011955   0.000026  -0.000430  -0.000248
              13         14         15         16         17         18
     1  N   -0.005864   0.000440   0.000024   0.000085  -0.000001  -0.000001
     2  C   -0.032269  -0.033947  -0.005851  -0.003200  -0.000053   0.000048
     3  C    0.384426   0.375975  -0.032773  -0.041347  -0.000784  -0.004709
     4  C   -0.038519  -0.034095   0.371638   0.387950  -0.048382  -0.031861
     5  C   -0.004770  -0.004544  -0.035515  -0.038150   0.388190   0.386803
     6  N    0.000009   0.000034   0.005911  -0.002874  -0.053811  -0.042145
     7  C    0.003984  -0.011325   0.006721  -0.001376  -0.000008  -0.000005
     8  O   -0.000019   0.004426  -0.000183   0.000009   0.000000  -0.000002
     9  O   -0.000089  -0.000081   0.002653   0.000226  -0.000001   0.000001
    10  H    0.006551  -0.000172   0.000010   0.000013  -0.000003   0.000001
    11  H   -0.000323   0.003867   0.000007   0.000009   0.000000  -0.000001
    12  H   -0.004542   0.005634  -0.000242   0.005196   0.000011   0.000001
    13  H    0.606925  -0.035375   0.005782  -0.005109   0.006043  -0.000714
    14  H   -0.035375   0.613833  -0.005924   0.005717  -0.000510   0.004456
    15  H    0.005782  -0.005924   0.622452  -0.038996   0.006704  -0.007141
    16  H   -0.005109   0.005717  -0.038996   0.626123  -0.007637   0.005736
    17  H    0.006043  -0.000510   0.006704  -0.007637   0.683385  -0.049752
    18  H   -0.000714   0.004456  -0.007141   0.005736  -0.049752   0.632576
    19  H   -0.000003   0.000001  -0.000083  -0.000011  -0.004104  -0.003149
    20  H   -0.000003   0.000013  -0.000772   0.005553  -0.004966   0.006596
    21  H    0.000015  -0.000170   0.000042   0.000000   0.000000   0.000000
              19         20         21
     1  N   -0.000000  -0.000000  -0.000211
     2  C    0.000002  -0.000002   0.009556
     3  C   -0.000218  -0.000093  -0.000297
     4  C    0.005749  -0.006353  -0.000037
     5  C   -0.032106  -0.037982  -0.000001
     6  N    0.337515   0.341469   0.000000
     7  C    0.000000   0.000001  -0.010707
     8  O   -0.000000  -0.000000   0.271190
     9  O    0.000000  -0.000000   0.011955
    10  H   -0.000000   0.000000   0.000026
    11  H    0.000000  -0.000000  -0.000430
    12  H    0.000000  -0.000002  -0.000248
    13  H   -0.000003  -0.000003   0.000015
    14  H    0.000001   0.000013  -0.000170
    15  H   -0.000083  -0.000772   0.000042
    16  H   -0.000011   0.005553   0.000000
    17  H   -0.004104  -0.004966   0.000000
    18  H   -0.003149   0.006596   0.000000
    19  H    0.479113  -0.032112  -0.000000
    20  H   -0.032112   0.479958   0.000000
    21  H   -0.000000   0.000000   0.371764
 Mulliken charges:
               1
     1  N   -0.638465
     2  C   -0.009262
     3  C   -0.190769
     4  C   -0.187062
     5  C   -0.043820
     6  N   -0.649897
     7  C    0.599524
     8  O   -0.487339
     9  O   -0.511020
    10  H    0.259151
    11  H    0.261008
    12  H    0.130136
    13  H    0.113860
    14  H    0.111748
    15  H    0.105535
    16  H    0.102083
    17  H    0.085679
    18  H    0.103260
    19  H    0.249404
    20  H    0.248695
    21  H    0.347552
 Sum of Mulliken charges =  -0.00000
 Mulliken charges with hydrogens summed into heavy atoms:
               1
     1  N   -0.118306
     2  C    0.120874
     3  C    0.034839
     4  C    0.020556
     5  C    0.145119
     6  N   -0.151798
     7  C    0.599524
     8  O   -0.139787
     9  O   -0.511020
 APT charges:
               1
     1  N   -1.048586
     2  C   -0.372497
     3  C   -0.659089
     4  C   -0.556881
     5  C   -0.563540
     6  N   -1.598595
     7  C   -0.091667
     8  O   -0.676833
     9  O   -0.040909
    10  H    0.537460
    11  H    0.442496
    12  H    0.388224
    13  H    0.413418
    14  H    0.295246
    15  H    0.228624
    16  H    0.333013
    17  H    0.426860
    18  H    0.323404
    19  H    0.921594
    20  H    0.494740
    21  H    0.803518
 Sum of APT charges =  -0.00000
 APT charges with hydrogens summed into heavy atoms:
               1
     1  N   -0.068630
     2  C    0.015727
     3  C    0.049575
     4  C    0.004756
     5  C    0.186725
     6  N   -0.182261
     7  C   -0.091667
     8  O    0.126684
     9  O   -0.040909
 Electronic spatial extent (au):  <R**2>=           1725.4822
 Charge=             -0.0000 electrons
 Dipole moment (field-independent basis, Debye):
    X=              1.7108    Y=              3.1404    Z=              1.5937  Tot=              3.9152
 Quadrupole moment (field-independent basis, Debye-Ang):
   XX=            -52.1603   YY=            -56.5063   ZZ=            -53.3748
   XY=              7.2807   XZ=             -8.1680   YZ=             -2.7385
 Traceless Quadrupole moment (field-independent basis, Debye-Ang):
   XX=              1.8535   YY=             -2.4925   ZZ=              0.6390
   XY=              7.2807   XZ=             -8.1680   YZ=             -2.7385
 Octapole moment (field-independent basis, Debye-Ang**2):
  XXX=             33.2985  YYY=             13.8835  ZZZ=              2.6613  XYY=            -14.5700
  XXY=             -2.0463  XXZ=              9.7837  XZZ=              1.4116  YZZ=             -3.1624
  YYZ=             12.1767  XYZ=              8.6391
 Hexadecapole moment (field-independent basis, Debye-Ang**3):
 XXXX=          -1345.2296 YYYY=           -392.6970 ZZZZ=           -164.1818 XXXY=            119.9882
 XXXZ=            -74.1231 YYYX=             11.7918 YYYZ=            -18.9749 ZZZX=            -19.1050
 ZZZY=             -4.7008 XXYY=           -354.1821 XXZZ=           -265.1403 YYZZ=            -94.7808
 XXYZ=              5.8390 YYXZ=            -38.9747 ZZXY=              7.3603
 N-N= 4.716407616208D+02 E-N=-2.011339538286D+03  KE= 4.535473938409D+02
  Exact polarizability:   0.000   0.000   0.000   0.000   0.000   0.000
 Approx polarizability:  92.631  -0.971 104.475  -7.991   7.878 100.409
 D2PCM: PCM CHGder 2nd derivatives, FixD1E=F FixD2E=F DoIter=F DoCFld=F I1PDM=0
 Calling FoFJK, ICntrl=    100147 FMM=F ISym2X=0 I1Cent= 0 IOpClX= 0 NMat=1 NMatS=1 NMatT=0.
 ***** Axes restored to original set *****
 -------------------------------------------------------------------
 Center     Atomic                   Forces (Hartrees/Bohr)
 Number     Number              X              Y              Z
 -------------------------------------------------------------------
      1        7          -0.010491333    0.008310879    0.005176168
      2        6          -0.008930254    0.001034688   -0.018990777
      3        6           0.011149770    0.001218657    0.012769876
      4        6           0.002239634    0.003389144   -0.007391940
      5        6           0.001388586   -0.006981011    0.005861608
      6        7           0.008402796    0.008472203    0.010436387
      7        6           0.000475438    0.000365543    0.006501085
      8        8          -0.000864186   -0.002161341    0.005902405
      9        8           0.001703207   -0.007380296   -0.008427977
     10        1           0.001776735    0.000269616    0.002004966
     11        1           0.000777926   -0.005641758   -0.000734641
     12        1           0.002595101    0.002851493    0.002939447
     13        1          -0.004133183   -0.000356728    0.000499617
     14        1          -0.003024917   -0.000847110   -0.000474616
     15        1           0.001758045   -0.000892980    0.000794467
     16        1           0.000690747   -0.000333237    0.000722948
     17        1          -0.006117790   -0.001722129   -0.008580074
     18        1           0.000129797    0.000847162   -0.000370986
     19        1          -0.001101269   -0.001199960    0.001418562
     20        1           0.000572316    0.000007421   -0.002689900
     21        1           0.001002834    0.000749744   -0.007366626
 -------------------------------------------------------------------
 Cartesian Forces:  Max     0.018990777 RMS     0.005396767
 FormGI is forming the generalized inverse of G from B-inverse, IUseBI=4.

 GradGradGradGradGradGradGradGradGradGradGradGradGradGradGradGradGradGrad
 Berny optimization.
 Internal  Forces:  Max     0.012092816 RMS     0.003861360
 Search for a local minimum.
 Step number   1 out of a maximum of  111
 All quantities printed in internal units (Hartrees-Bohrs-Radians)
 Mixed Optimization -- RFO/linear search
 Second derivative matrix not updated -- analytic derivatives used.
 ITU=  0
     Eigenvalues ---    0.00086   0.00158   0.00183   0.00233   0.00317
     Eigenvalues ---    0.00377   0.02013   0.03172   0.03277   0.03492
     Eigenvalues ---    0.03877   0.03948   0.04047   0.04463   0.04638
     Eigenvalues ---    0.04795   0.05297   0.05423   0.05767   0.06738
     Eigenvalues ---    0.07096   0.08301   0.09918   0.12046   0.13552
     Eigenvalues ---    0.14278   0.14803   0.15078   0.15434   0.16554
     Eigenvalues ---    0.16980   0.17946   0.18992   0.20368   0.21728
     Eigenvalues ---    0.23531   0.24419   0.27285   0.28946   0.31190
     Eigenvalues ---    0.32236   0.32698   0.32905   0.33018   0.33354
     Eigenvalues ---    0.33467   0.33787   0.34132   0.36106   0.38424
     Eigenvalues ---    0.39674   0.43208   0.43944   0.44242   0.44729
     Eigenvalues ---    0.48748   0.84222
 RFO step:  Lambda=-8.04253874D-03 EMin= 8.64965192D-04
 Linear search not attempted -- first point.
 Iteration  1 RMS(Cart)=  0.04012484 RMS(Int)=  0.00115173
 Iteration  2 RMS(Cart)=  0.00126168 RMS(Int)=  0.00040860
 Iteration  3 RMS(Cart)=  0.00000227 RMS(Int)=  0.00040859
 Iteration  4 RMS(Cart)=  0.00000000 RMS(Int)=  0.00040859
 Variable       Old X    -DE/DX   Delta X   Delta X   Delta X     New X
                                 (Linear)    (Quad)   (Total)
    R1        2.79982  -0.00022   0.00000  -0.02335  -0.02335   2.77646
    R2        1.92312  -0.00086   0.00000   0.00122   0.00122   1.92434
    R3        1.93397  -0.00487   0.00000  -0.00971  -0.00971   1.92426
    R4        2.89958   0.00704   0.00000   0.02739   0.02739   2.92697
    R5        2.89739  -0.00905   0.00000  -0.02238  -0.02238   2.87501
    R6        2.07007  -0.00098   0.00000  -0.00045  -0.00045   2.06962
    R7        2.89745   0.00552   0.00000   0.00061   0.00061   2.89806
    R8        2.07479  -0.00100   0.00000  -0.00062  -0.00062   2.07417
    R9        2.07474  -0.00072   0.00000  -0.00039  -0.00039   2.07435
   R10        2.88868   0.00077   0.00000   0.00251   0.00251   2.89118
   R11        2.07236  -0.00046   0.00000  -0.00118  -0.00118   2.07118
   R12        2.07359   0.00059   0.00000   0.00342   0.00342   2.07701
   R13        2.75241   0.01209   0.00000   0.02551   0.02551   2.77791
   R14        2.07023   0.00542   0.00000   0.01515   0.01515   2.08538
   R15        2.06970   0.00092   0.00000   0.00384   0.00384   2.07354
   R16        1.92601  -0.00157   0.00000  -0.00171  -0.00171   1.92429
   R17        1.92635  -0.00147   0.00000  -0.00019  -0.00019   1.92616
   R18        2.55844  -0.00042   0.00000  -0.00811  -0.00811   2.55033
   R19        2.30679  -0.00857   0.00000  -0.01160  -0.01160   2.29519
   R20        1.85200  -0.00502   0.00000  -0.01305  -0.01305   1.83894
    A1        1.91847  -0.00512   0.00000  -0.02407  -0.02403   1.89444
    A2        1.87954   0.00394   0.00000   0.01748   0.01752   1.89706
    A3        1.85997  -0.00049   0.00000  -0.01191  -0.01182   1.84815
    A4        1.92229   0.01197   0.00000   0.06914   0.06912   1.99142
    A5        1.91184  -0.00435   0.00000   0.00456   0.00452   1.91635
    A6        1.87594  -0.00103   0.00000   0.01508   0.01555   1.89149
    A7        1.93715  -0.00397   0.00000  -0.01906  -0.02045   1.91669
    A8        1.93164  -0.00330   0.00000  -0.03309  -0.03474   1.89690
    A9        1.88355   0.00049   0.00000  -0.03751  -0.03858   1.84497
   A10        1.96666   0.00949   0.00000   0.03777   0.03791   2.00457
   A11        1.90767  -0.00544   0.00000  -0.04366  -0.04422   1.86345
   A12        1.92351  -0.00445   0.00000  -0.02729  -0.02810   1.89540
   A13        1.89365  -0.00053   0.00000   0.01623   0.01679   1.91044
   A14        1.90412  -0.00119   0.00000   0.01689   0.01714   1.92126
   A15        1.86526   0.00179   0.00000  -0.00125  -0.00245   1.86281
   A16        1.93807   0.00622   0.00000   0.02492   0.02487   1.96294
   A17        1.91756  -0.00033   0.00000   0.01133   0.01137   1.92893
   A18        1.91035  -0.00165   0.00000  -0.00287  -0.00277   1.90758
   A19        1.90962  -0.00296   0.00000  -0.01289  -0.01320   1.89642
   A20        1.91569  -0.00216   0.00000  -0.01102  -0.01111   1.90458
   A21        1.87136   0.00065   0.00000  -0.01078  -0.01093   1.86043
   A22        1.92456   0.00213   0.00000   0.00734   0.00710   1.93166
   A23        1.92402  -0.00505   0.00000  -0.02200  -0.02287   1.90114
   A24        1.92208  -0.00051   0.00000  -0.01240  -0.01265   1.90944
   A25        1.90909   0.00655   0.00000   0.06387   0.06401   1.97310
   A26        1.90271  -0.00253   0.00000  -0.01769  -0.01755   1.88516
   A27        1.88071  -0.00057   0.00000  -0.01913  -0.01941   1.86130
   A28        1.91272   0.00140   0.00000  -0.00821  -0.00843   1.90430
   A29        1.91985  -0.00263   0.00000  -0.02276  -0.02298   1.89688
   A30        1.85565  -0.00069   0.00000  -0.01907  -0.01956   1.83609
   A31        1.97629  -0.00439   0.00000  -0.01653  -0.01653   1.95976
   A32        2.20682  -0.00632   0.00000  -0.02373  -0.02373   2.18309
   A33        2.09923   0.01070   0.00000   0.04015   0.04015   2.13938
   A34        1.80279   0.01006   0.00000   0.06780   0.06780   1.87060
    D1        0.75809   0.00087   0.00000   0.05790   0.05793   0.81602
    D2        2.89341   0.00085   0.00000   0.08221   0.08271   2.97612
    D3       -1.34763  -0.00147   0.00000   0.04850   0.04790  -1.29973
    D4       -1.26157   0.00197   0.00000   0.07505   0.07513  -1.18644
    D5        0.87375   0.00195   0.00000   0.09936   0.09991   0.97366
    D6        2.91589  -0.00037   0.00000   0.06566   0.06510   2.98099
    D7       -3.01964  -0.00155   0.00000  -0.00622  -0.00593  -3.02557
    D8       -0.91283   0.00023   0.00000   0.00879   0.00845  -0.90438
    D9        1.13214  -0.00341   0.00000  -0.03454  -0.03379   1.09834
   D10        1.14324  -0.00150   0.00000  -0.04594  -0.04554   1.09770
   D11       -3.03314   0.00028   0.00000  -0.03092  -0.03116  -3.06430
   D12       -0.98817  -0.00336   0.00000  -0.07426  -0.07340  -1.06157
   D13       -0.94771   0.00266   0.00000   0.03541   0.03490  -0.91282
   D14        1.15909   0.00444   0.00000   0.05042   0.04928   1.20837
   D15       -3.07912   0.00080   0.00000   0.00709   0.00704  -3.07209
   D16       -0.73492  -0.00429   0.00000  -0.03007  -0.02982  -0.76473
   D17        2.45105  -0.00446   0.00000  -0.02829  -0.02807   2.42298
   D18        1.39151   0.00521   0.00000   0.04734   0.04690   1.43841
   D19       -1.70571   0.00504   0.00000   0.04912   0.04865  -1.65706
   D20       -2.77227  -0.00098   0.00000  -0.02947  -0.02923  -2.80150
   D21        0.41370  -0.00115   0.00000  -0.02769  -0.02748   0.38621
   D22        3.07229  -0.00024   0.00000  -0.00645  -0.00656   3.06573
   D23       -1.09595  -0.00010   0.00000   0.00126   0.00132  -1.09464
   D24        0.95453  -0.00048   0.00000  -0.00688  -0.00696   0.94757
   D25        0.95747   0.00087   0.00000   0.01306   0.01286   0.97033
   D26        3.07242   0.00100   0.00000   0.02077   0.02073   3.09315
   D27       -1.16029   0.00063   0.00000   0.01263   0.01246  -1.14783
   D28       -1.06859  -0.00033   0.00000  -0.00351  -0.00340  -1.07199
   D29        1.04636  -0.00019   0.00000   0.00419   0.00447   1.05083
   D30        3.09684  -0.00057   0.00000  -0.00395  -0.00380   3.09304
   D31        3.11916  -0.00239   0.00000  -0.02141  -0.02130   3.09785
   D32       -1.05431   0.00388   0.00000   0.04881   0.04850  -1.00580
   D33        1.01863  -0.00027   0.00000   0.00386   0.00398   1.02262
   D34        0.99955  -0.00404   0.00000  -0.04316  -0.04292   0.95663
   D35        3.10928   0.00223   0.00000   0.02706   0.02688   3.13616
   D36       -1.10097  -0.00193   0.00000  -0.01790  -0.01764  -1.11860
   D37       -1.04941  -0.00183   0.00000  -0.01610  -0.01605  -1.06546
   D38        1.06032   0.00444   0.00000   0.05412   0.05375   1.11407
   D39        3.13326   0.00028   0.00000   0.00917   0.00923  -3.14069
   D40        3.07959  -0.00044   0.00000   0.01723   0.01770   3.09729
   D41        1.04542   0.00110   0.00000   0.05833   0.05854   1.10396
   D42        0.96096   0.00024   0.00000  -0.00147  -0.00178   0.95918
   D43       -1.07320   0.00178   0.00000   0.03964   0.03906  -1.03415
   D44       -1.09146  -0.00136   0.00000  -0.00480  -0.00455  -1.09602
   D45       -3.12563   0.00017   0.00000   0.03631   0.03628  -3.08935
   D46        3.12906   0.00109   0.00000   0.03249   0.03254  -3.12158
   D47       -0.05386   0.00079   0.00000   0.02914   0.02909  -0.02478
         Item               Value     Threshold  Converged?
 Maximum Force            0.012093     0.000450     NO 
 RMS     Force            0.003861     0.000300     NO 
 Maximum Displacement     0.183998     0.001800     NO 
 RMS     Displacement     0.040083     0.001200     NO 
 Predicted change in Energy=-4.438425D-03
 GradGradGradGradGradGradGradGradGradGradGradGradGradGradGradGradGradGrad

                          Input orientation:                          
 ---------------------------------------------------------------------
 Center     Atomic      Atomic             Coordinates (Angstroms)
 Number     Number       Type             X           Y           Z
 ---------------------------------------------------------------------
      1          7           0       -2.608889   -0.527776   -1.273795
      2          6           0       -1.637249   -0.404696   -0.178608
      3          6           0       -0.175761   -0.201541   -0.649598
      4          6           0        0.872143   -0.230859    0.469744
      5          6           0        2.302072   -0.131644   -0.065235
      6          7           0        3.269425   -0.103319    1.041268
      7          6           0       -2.044135    0.733045    0.745844
      8          8           0       -2.435647    1.830584    0.065045
      9          8           0       -1.985222    0.702172    1.958586
     10          1           0       -2.240054   -1.181443   -1.962015
     11          1           0       -2.678581    0.369263   -1.750607
     12          1           0       -1.686481   -1.313637    0.430370
     13          1           0        0.038103   -0.999997   -1.371722
     14          1           0       -0.113662    0.746595   -1.199251
     15          1           0        0.703893    0.590949    1.175140
     16          1           0        0.765817   -1.162891    1.042493
     17          1           0        2.478171   -0.960667   -0.771987
     18          1           0        2.413571    0.798064   -0.637256
     19          1           0        4.212842   -0.079780    0.658738
     20          1           0        3.209293   -0.984417    1.550168
     21          1           0       -2.659650    2.511995    0.722678
 ---------------------------------------------------------------------
                    Distance matrix (angstroms):
                    1          2          3          4          5
     1  N    0.000000
     2  C    1.469240   0.000000
     3  C    2.533015   1.548886   0.000000
     4  C    3.904571   2.597620   1.533587   0.000000
     5  C    5.072975   3.950400   2.546767   1.529948   0.000000
     6  N    6.332003   5.065015   3.839008   2.467766   1.470008
     7  C    2.446949   1.521389   2.512276   3.083832   4.505003
     8  O    2.717420   2.386060   3.122072   3.918521   5.129649
     9  O    3.514260   2.431839   3.300525   3.354360   4.813729
    10  H    1.018316   2.036479   2.635137   4.062367   5.032967
    11  H    1.018276   2.038275   2.793232   4.230573   5.281884
    12  H    2.091075   1.095195   2.164570   2.778582   4.189426
    13  H    2.690567   2.141193   1.097603   2.162913   2.754360
    14  H    2.802809   2.165295   1.097697   2.170892   2.809460
    15  H    4.268883   2.881821   2.175201   1.096020   2.148219
    16  H    4.142125   2.800120   2.161928   1.099104   2.156528
    17  H    5.130047   4.194983   2.763079   2.157276   1.103534
    18  H    5.233368   4.250428   2.775609   2.158734   1.097268
    19  H    7.104322   5.918639   4.581092   3.349449   2.043983
    20  H    6.483404   5.178196   4.112232   2.682803   2.039558
    21  H    3.637126   3.219426   3.926337   4.478927   5.676999
                    6          7          8          9         10
     6  N    0.000000
     7  C    5.387086   0.000000
     8  O    6.102527   1.349578   0.000000
     9  O    5.394590   1.214565   2.249821   0.000000
    10  H    6.366822   3.322070   3.635869   4.357070   0.000000
    11  H    6.587616   2.601371   2.343303   3.788099   1.625328
    12  H    5.138003   2.101511   3.252821   2.547190   2.459151
    13  H    4.131343   3.438494   4.024417   4.252314   2.360375
    14  H    4.145788   2.740494   2.857463   3.671055   2.969964
    15  H    2.661180   2.784986   3.553269   2.803123   4.652949
    16  H    2.718594   3.402705   4.490620   3.447593   4.250019
    17  H    2.156159   5.061988   5.712907   5.490258   4.870990
    18  H    2.088641   4.667798   5.007419   5.108520   5.227778
    19  H    1.018292   6.310153   6.942937   6.380991   7.051373
    20  H    1.019278   5.585259   6.480368   5.476711   6.486110
    21  H    6.488089   1.882566   0.973128   2.292986   4.585316
                   11         12         13         14         15
    11  H    0.000000
    12  H    2.927982   0.000000
    13  H    3.065747   2.513980   0.000000
    14  H    2.650507   3.061696   1.761636   0.000000
    15  H    4.477754   3.145794   3.075856   2.516020   0.000000
    16  H    4.691778   2.532031   2.526763   3.073277   1.759939
    17  H    5.414656   4.349089   2.512998   3.132873   3.057266
    18  H    5.230051   4.733871   3.068438   2.589477   2.500135
    19  H    7.314253   6.031299   4.732653   4.780549   3.609608
    20  H    6.884375   5.032985   4.312090   4.647336   2.983194
    21  H    3.272430   3.958278   4.898823   3.645889   3.899816
                   16         17         18         19         20
    16  H    0.000000
    17  H    2.503075   0.000000
    18  H    3.063005   1.765067   0.000000
    19  H    3.633508   2.414957   2.384866   0.000000
    20  H    2.502032   2.434647   2.931763   1.618680   0.000000
    21  H    5.033974   6.378918   5.524903   7.345239   6.881433
                   21
    21  H    0.000000
 Stoichiometry    C5H12N2O2
 Framework group  C1[X(C5H12N2O2)]
 Deg. of freedom    57
 Full point group                 C1      NOp   1
 Largest Abelian subgroup         C1      NOp   1
 Largest concise Abelian subgroup C1      NOp   1
                         Standard orientation:                         
 ---------------------------------------------------------------------
 Center     Atomic      Atomic             Coordinates (Angstroms)
 Number     Number       Type             X           Y           Z
 ---------------------------------------------------------------------
      1          7           0       -2.169453    1.634057   -0.270918
      2          6           0       -1.134509    0.624070   -0.530699
      3          6           0        0.225738    0.923625    0.146830
      4          6           0        1.362446   -0.030397   -0.239982
      5          6           0        2.702626    0.376995    0.375398
      6          7           0        3.749698   -0.594853    0.028880
      7          6           0       -1.633650   -0.747483   -0.101371
      8          8           0       -2.257861   -0.713634    1.094696
      9          8           0       -1.459966   -1.778489   -0.719455
     10          1           0       -1.764313    2.557222   -0.414426
     11          1           0       -2.426408    1.592307    0.713520
     12          1           0       -0.980413    0.558132   -1.612993
     13          1           0        0.498890    1.949666   -0.131307
     14          1           0        0.083375    0.918527    1.235244
     15          1           0        1.128816   -1.053937    0.074729
     16          1           0        1.460859   -0.053240   -1.334433
     17          1           0        2.945010    1.405329    0.056702
     18          1           0        2.609738    0.400371    1.468478
     19          1           0        4.637971   -0.279367    0.414053
     20          1           0        3.879441   -0.588477   -0.982087
     21          1           0       -2.527961   -1.624842    1.303800
 ---------------------------------------------------------------------
 Rotational constants (GHZ):           2.6464321           0.7719028           0.6710892
 Standard basis: 6-31G(d,p) (6D, 7F)
 There are   195 symmetry adapted cartesian basis functions of A   symmetry.
 There are   195 symmetry adapted basis functions of A   symmetry.
   195 basis functions,   336 primitive gaussians,   195 cartesian basis functions
    36 alpha electrons       36 beta electrons
       nuclear repulsion energy       471.3035695290 Hartrees.
 NAtoms=   21 NActive=   21 NUniq=   21 SFac= 1.00D+00 NAtFMM=   60 NAOKFM=F Big=F
 Integral buffers will be    131072 words long.
 Raffenetti 2 integral format.
 Two-electron integral symmetry is turned on.
 ------------------------------------------------------------------------------
 Polarizable Continuum Model (PCM)
 =================================
 Model                : PCM.
 Atomic radii         : UFF (Universal Force Field).
 Polarization charges : Total charges.
 Charge compensation  : None.
 Solution method      : Matrix inversion.
 Cavity type          : Scaled VdW (van der Waals Surface) (Alpha=1.100).
 Cavity algorithm     : GePol (No added spheres)
                        Default sphere list used, NSphG=   21.
                        Lebedev-Laikov grids with approx.  5.0 points / Ang**2.
                        Smoothing algorithm: York/Karplus (Gamma=1.0000).
                        Polarization charges: spherical gaussians, with
                                              point-specific exponents (IZeta= 3).
                        Self-potential: point-specific (ISelfS= 7).
                        Self-field    : sphere-specific E.n sum rule (ISelfD= 2).
 1st derivatives      : Analytical E(r).r(x)/FMM algorithm (CHGder, D1EAlg=3).
                        Cavity 1st derivative terms included.
 Solvent              : Water, Eps=  78.355300 Eps(inf)=   1.777849
 ------------------------------------------------------------------------------
 One-electron integrals computed using PRISM.
 NBasis=   195 RedAO= T EigKep=  2.72D-03  NBF=   195
 NBsUse=   195 1.00D-06 EigRej= -1.00D+00 NBFU=   195
 Initial guess from the checkpoint file:  "AHLPHDHHMVZTML-BYPYZUCNSA-N_conf_0_0.chk"
 B after Tr=    -0.000000   -0.000000    0.000000
         Rot=    0.999958   -0.002627   -0.000480   -0.008738 Ang=  -1.05 deg.
 ExpMin= 1.61D-01 ExpMax= 5.48D+03 ExpMxC= 8.25D+02 IAcc=2 IRadAn=         4 AccDes= 0.00D+00
 Harris functional with IExCor=  402 and IRadAn=       4 diagonalized for initial guess.
 HarFok:  IExCor=  402 AccDes= 0.00D+00 IRadAn=         4 IDoV= 1 UseB2=F ITyADJ=14
 ICtDFT=  3500011 ScaDFX=  1.000000  1.000000  1.000000  1.000000
 FoFCou: FMM=F IPFlag=           0 FMFlag=      100000 FMFlg1=           0
         NFxFlg=           0 DoJE=T BraDBF=F KetDBF=T FulRan=T
         wScrn=  0.000000 ICntrl=       500 IOpCl=  0 I1Cent=   200000004 NGrid=           0
         NMat0=    1 NMatS0=      1 NMatT0=    0 NMatD0=    1 NMtDS0=    0 NMtDT0=    0
 Petite list used in FoFCou.
 Keep R1 ints in memory in canonical form, NReq=186371640.
 Requested convergence on RMS density matrix=1.00D-08 within  32 cycles.
 Requested convergence on MAX density matrix=1.00D-06.
 Requested convergence on             energy=1.00D-06.
 No special actions if energy rises.
 Inv3:  Mode=1 IEnd=     7441875.
 Iteration    1 A*A^-1 deviation from unit magnitude is 3.33D-15 for    187.
 Iteration    1 A*A^-1 deviation from orthogonality  is 1.94D-15 for   1190    437.
 Iteration    1 A^-1*A deviation from unit magnitude is 2.89D-15 for    187.
 Iteration    1 A^-1*A deviation from orthogonality  is 1.87D-15 for   1227    475.
 Error on total polarization charges =  0.00642
 SCF Done:  E(RB3LYP) =  -457.743148340     A.U. after   10 cycles
            NFock= 10  Conv=0.80D-08     -V/T= 2.0092
 QCSCF skips out because SCF is already converged.
 D1PCM: PCM CHGder 1st derivatives, ID1Alg=3 FixD1E=F DoIter=F DoCFld=F I1PDM=0.
 Calling FoFJK, ICntrl=      2127 FMM=F ISym2X=0 I1Cent= 0 IOpClX= 0 NMat=1 NMatS=1 NMatT=0.
 ***** Axes restored to original set *****
 -------------------------------------------------------------------
 Center     Atomic                   Forces (Hartrees/Bohr)
 Number     Number              X              Y              Z
 -------------------------------------------------------------------
      1        7          -0.001349341    0.001109554    0.000416777
      2        6          -0.000309333   -0.000117668   -0.001832219
      3        6           0.001102634    0.000565706    0.001108501
      4        6           0.000051474    0.000777771   -0.000764493
      5        6           0.000289152   -0.001417603    0.000296713
      6        7          -0.000002050    0.000880673    0.001194766
      7        6          -0.000018595   -0.000708830    0.000448080
      8        8          -0.000350653   -0.000159464    0.000190655
      9        8          -0.000121875   -0.000296366    0.000549959
     10        1          -0.000353571   -0.000553363    0.000375531
     11        1           0.000579536   -0.000366731   -0.000753048
     12        1           0.000410343    0.000096314    0.000113751
     13        1          -0.000116588   -0.000081333    0.000055023
     14        1          -0.000049473   -0.000213208   -0.000361839
     15        1           0.000006976   -0.000197873    0.000240743
     16        1           0.000052152    0.000074485    0.000191864
     17        1          -0.000528295    0.000222877   -0.000804915
     18        1           0.000111799    0.000000166   -0.000101605
     19        1           0.000030071    0.000040883    0.000035477
     20        1           0.000412524   -0.000209107   -0.000331271
     21        1           0.000153111    0.000553119   -0.000268450
 -------------------------------------------------------------------
 Cartesian Forces:  Max     0.001832219 RMS     0.000566239

 GradGradGradGradGradGradGradGradGradGradGradGradGradGradGradGradGradGrad
 Berny optimization.
 Using GEDIIS/GDIIS optimizer.
 FormGI is forming the generalized inverse of G from B-inverse, IUseBI=4.
 Internal  Forces:  Max     0.001113604 RMS     0.000339860
 Search for a local minimum.
 Step number   2 out of a maximum of  111
 All quantities printed in internal units (Hartrees-Bohrs-Radians)
 Mixed Optimization -- En-DIIS/RFO-DIIS
 Update second derivatives using D2CorX and points    1    2
 DE= -4.45D-03 DEPred=-4.44D-03 R= 1.00D+00
 TightC=F SS=  1.41D+00  RLast= 3.22D-01 DXNew= 5.0454D-01 9.6633D-01
 Trust test= 1.00D+00 RLast= 3.22D-01 DXMaxT set to 5.05D-01
 ITU=  1  0
 Use linear search instead of GDIIS.
     Eigenvalues ---    0.00086   0.00159   0.00183   0.00233   0.00317
     Eigenvalues ---    0.00377   0.02012   0.03174   0.03277   0.03493
     Eigenvalues ---    0.03876   0.03949   0.04048   0.04458   0.04639
     Eigenvalues ---    0.04841   0.05273   0.05421   0.05743   0.06740
     Eigenvalues ---    0.07133   0.08303   0.09912   0.12034   0.13547
     Eigenvalues ---    0.14266   0.14784   0.15068   0.15363   0.16489
     Eigenvalues ---    0.16983   0.17940   0.18990   0.20345   0.21702
     Eigenvalues ---    0.23463   0.24446   0.27299   0.28835   0.31208
     Eigenvalues ---    0.32227   0.32688   0.32879   0.32949   0.33332
     Eigenvalues ---    0.33460   0.33780   0.33978   0.36263   0.38063
     Eigenvalues ---    0.39651   0.43218   0.43947   0.44241   0.44724
     Eigenvalues ---    0.48808   0.84388
 RFO step:  Lambda=-8.84332222D-04 EMin= 8.64879063D-04
 Quartic linear search produced a step of  0.12319.
 Iteration  1 RMS(Cart)=  0.05720246 RMS(Int)=  0.01324836
 Iteration  2 RMS(Cart)=  0.01333497 RMS(Int)=  0.00036746
 Iteration  3 RMS(Cart)=  0.00036295 RMS(Int)=  0.00005422
 Iteration  4 RMS(Cart)=  0.00000020 RMS(Int)=  0.00005422
 Variable       Old X    -DE/DX   Delta X   Delta X   Delta X     New X
                                 (Linear)    (Quad)   (Total)
    R1        2.77646   0.00070  -0.00288   0.00157  -0.00131   2.77515
    R2        1.92434  -0.00003   0.00015   0.00136   0.00151   1.92585
    R3        1.92426  -0.00001  -0.00120   0.00305   0.00186   1.92612
    R4        2.92697   0.00111   0.00337  -0.00320   0.00017   2.92715
    R5        2.87501   0.00019  -0.00276   0.00519   0.00243   2.87744
    R6        2.06962  -0.00003  -0.00006  -0.00125  -0.00130   2.06832
    R7        2.89806   0.00025   0.00008  -0.00009  -0.00001   2.89805
    R8        2.07417   0.00000  -0.00008   0.00006  -0.00002   2.07415
    R9        2.07435  -0.00001  -0.00005   0.00051   0.00046   2.07481
   R10        2.89118   0.00016   0.00031   0.00029   0.00060   2.89178
   R11        2.07118   0.00001  -0.00015   0.00063   0.00049   2.07166
   R12        2.07701   0.00003   0.00042  -0.00005   0.00037   2.07738
   R13        2.77791   0.00098   0.00314  -0.00114   0.00201   2.77992
   R14        2.08538   0.00026   0.00187  -0.00119   0.00068   2.08606
   R15        2.07354   0.00006   0.00047  -0.00034   0.00013   2.07367
   R16        1.92429   0.00002  -0.00021   0.00071   0.00050   1.92479
   R17        1.92616  -0.00001  -0.00002   0.00040   0.00037   1.92653
   R18        2.55033   0.00042  -0.00100   0.00069  -0.00031   2.55003
   R19        2.29519   0.00055  -0.00143   0.00211   0.00069   2.29588
   R20        1.83894   0.00017  -0.00161   0.00191   0.00030   1.83925
    A1        1.89444  -0.00006  -0.00296  -0.00451  -0.00748   1.88695
    A2        1.89706   0.00036   0.00216  -0.00695  -0.00481   1.89225
    A3        1.84815  -0.00017  -0.00146  -0.00046  -0.00195   1.84620
    A4        1.99142   0.00096   0.00852   0.00391   0.01247   2.00388
    A5        1.91635  -0.00024   0.00056  -0.01512  -0.01465   1.90170
    A6        1.89149  -0.00011   0.00192  -0.01122  -0.00932   1.88217
    A7        1.91669  -0.00020  -0.00252   0.01112   0.00847   1.92516
    A8        1.89690  -0.00026  -0.00428   0.00733   0.00287   1.89977
    A9        1.84497  -0.00024  -0.00475   0.00396  -0.00104   1.84393
   A10        2.00457   0.00046   0.00467  -0.00321   0.00148   2.00604
   A11        1.86345  -0.00026  -0.00545   0.00355  -0.00197   1.86148
   A12        1.89540  -0.00016  -0.00346   0.00267  -0.00089   1.89451
   A13        1.91044  -0.00005   0.00207   0.00069   0.00283   1.91327
   A14        1.92126  -0.00002   0.00211  -0.00177   0.00037   1.92163
   A15        1.86281  -0.00001  -0.00030  -0.00172  -0.00218   1.86063
   A16        1.96294   0.00034   0.00306  -0.00075   0.00230   1.96525
   A17        1.92893   0.00003   0.00140   0.00095   0.00236   1.93129
   A18        1.90758  -0.00008  -0.00034   0.00053   0.00020   1.90778
   A19        1.89642  -0.00012  -0.00163   0.00057  -0.00110   1.89532
   A20        1.90458  -0.00012  -0.00137   0.00097  -0.00041   1.90417
   A21        1.86043  -0.00008  -0.00135  -0.00235  -0.00372   1.85671
   A22        1.93166  -0.00004   0.00087  -0.00006   0.00077   1.93243
   A23        1.90114  -0.00016  -0.00282   0.00381   0.00086   1.90201
   A24        1.90944  -0.00010  -0.00156  -0.00075  -0.00234   1.90710
   A25        1.97310   0.00067   0.00789  -0.00012   0.00778   1.98088
   A26        1.88516  -0.00018  -0.00216  -0.00153  -0.00367   1.88149
   A27        1.86130  -0.00021  -0.00239  -0.00151  -0.00393   1.85737
   A28        1.90430   0.00001  -0.00104  -0.00167  -0.00274   1.90156
   A29        1.89688  -0.00003  -0.00283   0.00211  -0.00075   1.89613
   A30        1.83609  -0.00017  -0.00241  -0.00153  -0.00401   1.83209
   A31        1.95976  -0.00021  -0.00204  -0.00455  -0.00659   1.95317
   A32        2.18309  -0.00014  -0.00292   0.00776   0.00483   2.18792
   A33        2.13938   0.00036   0.00495  -0.00299   0.00195   2.14133
   A34        1.87060   0.00095   0.00835  -0.00368   0.00468   1.87527
    D1        0.81602   0.00050   0.00714   0.23502   0.24219   1.05821
    D2        2.97612   0.00075   0.01019   0.24077   0.25097  -3.05610
    D3       -1.29973   0.00028   0.00590   0.23120   0.23711  -1.06263
    D4       -1.18644   0.00055   0.00926   0.24159   0.25085  -0.93559
    D5        0.97366   0.00080   0.01231   0.24734   0.25963   1.23329
    D6        2.98099   0.00032   0.00802   0.23777   0.24577  -3.05642
    D7       -3.02557  -0.00007  -0.00073  -0.02984  -0.03052  -3.05609
    D8       -0.90438  -0.00003   0.00104  -0.02842  -0.02740  -0.93178
    D9        1.09834  -0.00025  -0.00416  -0.02731  -0.03136   1.06698
   D10        1.09770  -0.00030  -0.00561  -0.02145  -0.02703   1.07067
   D11       -3.06430  -0.00026  -0.00384  -0.02002  -0.02392  -3.08821
   D12       -1.06157  -0.00048  -0.00904  -0.01892  -0.02788  -1.08945
   D13       -0.91282   0.00024   0.00430  -0.03630  -0.03206  -0.94487
   D14        1.20837   0.00028   0.00607  -0.03488  -0.02894   1.17943
   D15       -3.07209   0.00006   0.00087  -0.03377  -0.03290  -3.10499
   D16       -0.76473  -0.00046  -0.00367  -0.06749  -0.07110  -0.83583
   D17        2.42298  -0.00048  -0.00346  -0.07253  -0.07593   2.34704
   D18        1.43841   0.00045   0.00578  -0.06533  -0.05963   1.37878
   D19       -1.65706   0.00043   0.00599  -0.07038  -0.06447  -1.72153
   D20       -2.80150  -0.00008  -0.00360  -0.04899  -0.05257  -2.85406
   D21        0.38621  -0.00010  -0.00339  -0.05403  -0.05740   0.32881
   D22        3.06573  -0.00006  -0.00081   0.01175   0.01093   3.07666
   D23       -1.09464   0.00005   0.00016   0.01264   0.01282  -1.08182
   D24        0.94757  -0.00008  -0.00086   0.01065   0.00979   0.95736
   D25        0.97033   0.00000   0.00158   0.00882   0.01038   0.98071
   D26        3.09315   0.00011   0.00255   0.00971   0.01226   3.10541
   D27       -1.14783  -0.00002   0.00153   0.00772   0.00923  -1.13860
   D28       -1.07199   0.00006  -0.00042   0.01153   0.01113  -1.06086
   D29        1.05083   0.00017   0.00055   0.01243   0.01301   1.06384
   D30        3.09304   0.00004  -0.00047   0.01043   0.00998   3.10302
   D31        3.09785  -0.00026  -0.00262   0.01364   0.01103   3.10889
   D32       -1.00580   0.00045   0.00598   0.01612   0.02205  -0.98375
   D33        1.02262   0.00005   0.00049   0.01603   0.01654   1.03915
   D34        0.95663  -0.00044  -0.00529   0.01253   0.00727   0.96390
   D35        3.13616   0.00026   0.00331   0.01500   0.01829  -3.12873
   D36       -1.11860  -0.00013  -0.00217   0.01491   0.01278  -1.10583
   D37       -1.06546  -0.00021  -0.00198   0.01449   0.01252  -1.05294
   D38        1.11407   0.00049   0.00662   0.01696   0.02354   1.13761
   D39       -3.14069   0.00010   0.00114   0.01688   0.01802  -3.12267
   D40        3.09729   0.00024   0.00218   0.05566   0.05791  -3.12799
   D41        1.10396   0.00046   0.00721   0.05722   0.06446   1.16843
   D42        0.95918  -0.00000  -0.00022   0.05082   0.05056   1.00974
   D43       -1.03415   0.00022   0.00481   0.05239   0.05711  -0.97703
   D44       -1.09602  -0.00002  -0.00056   0.05376   0.05323  -1.04278
   D45       -3.08935   0.00020   0.00447   0.05533   0.05979  -3.02955
   D46       -3.12158   0.00029   0.00401   0.00702   0.01104  -3.11055
   D47       -0.02478   0.00029   0.00358   0.01224   0.01581  -0.00896
         Item               Value     Threshold  Converged?
 Maximum Force            0.001114     0.000450     NO 
 RMS     Force            0.000340     0.000300     NO 
 Maximum Displacement     0.298371     0.001800     NO 
 RMS     Displacement     0.066617     0.001200     NO 
 Predicted change in Energy=-6.648888D-04
 GradGradGradGradGradGradGradGradGradGradGradGradGradGradGradGradGradGrad

                          Input orientation:                          
 ---------------------------------------------------------------------
 Center     Atomic      Atomic             Coordinates (Angstroms)
 Number     Number       Type             X           Y           Z
 ---------------------------------------------------------------------
      1          7           0       -2.628923   -0.483626   -1.275678
      2          6           0       -1.643757   -0.395603   -0.190168
      3          6           0       -0.179337   -0.200220   -0.655608
      4          6           0        0.864899   -0.225777    0.467240
      5          6           0        2.297662   -0.119210   -0.059587
      6          7           0        3.261064   -0.102821    1.052004
      7          6           0       -2.050788    0.724395    0.757707
      8          8           0       -2.360669    1.857831    0.094215
      9          8           0       -2.061129    0.650216    1.970323
     10          1           0       -2.390586   -1.287117   -1.855496
     11          1           0       -2.520690    0.333092   -1.875801
     12          1           0       -1.708275   -1.317175    0.396760
     13          1           0        0.032151   -1.002672   -1.373980
     14          1           0       -0.112625    0.744225   -1.211526
     15          1           0        0.691148    0.592673    1.175600
     16          1           0        0.760502   -1.158538    1.039532
     17          1           0        2.475254   -0.933065   -0.783936
     18          1           0        2.410298    0.820443   -0.615027
     19          1           0        4.202528   -0.018404    0.672566
     20          1           0        3.243155   -1.012361    1.512163
     21          1           0       -2.581883    2.533713    0.758698
 ---------------------------------------------------------------------
                    Distance matrix (angstroms):
                    1          2          3          4          5
     1  N    0.000000
     2  C    1.468548   0.000000
     3  C    2.542691   1.548979   0.000000
     4  C    3.912932   2.598919   1.533581   0.000000
     5  C    5.087526   3.953256   2.548986   1.530266   0.000000
     6  N    6.344688   5.068134   3.842107   2.469550   1.471069
     7  C    2.434791   1.522673   2.520853   3.080329   4.504293
     8  O    2.725984   2.381764   3.091280   3.858089   5.062844
     9  O    3.484898   2.436321   3.340643   3.404153   4.869457
    10  H    1.019113   2.031224   2.740565   4.137599   5.154510
    11  H    1.019259   2.035035   2.693553   4.155044   5.169113
    12  H    2.083133   1.094505   2.166268   2.795951   4.206056
    13  H    2.713003   2.139769   1.097595   2.164978   2.764178
    14  H    2.800623   2.164890   1.097940   2.171339   2.807484
    15  H    4.264980   2.879895   2.177096   1.096277   2.147871
    16  H    4.159797   2.806189   2.162215   1.099300   2.156647
    17  H    5.147468   4.196151   2.756880   2.158459   1.103894
[...]
    10  H   -0.001004  -0.000358   0.000005  -0.000038  -0.000004  -0.000000
    11  H   -0.001107   0.004944  -0.000001   0.000010   0.000000  -0.000001
    12  H   -0.002069   0.005532  -0.000305   0.005849   0.000012   0.000009
    13  H    0.668669  -0.039901   0.005600  -0.003401   0.006000  -0.000185
    14  H   -0.039901   0.609826  -0.005556   0.005443  -0.000635   0.004319
    15  H    0.005600  -0.005556   0.610052  -0.038130   0.006809  -0.007438
    16  H   -0.003401   0.005443  -0.038130   0.631078  -0.006963   0.006025
    17  H    0.006000  -0.000635   0.006809  -0.006963   0.679204  -0.048454
    18  H   -0.000185   0.004319  -0.007438   0.006025  -0.048454   0.629999
    19  H   -0.000000   0.000002  -0.000075  -0.000040  -0.002861  -0.004310
    20  H   -0.000000   0.000011  -0.000773   0.004970  -0.005823   0.006600
    21  H    0.000010  -0.000275   0.000045  -0.000002  -0.000000   0.000000
              19         20         21
     1  N   -0.000000  -0.000000  -0.000164
     2  C    0.000001  -0.000001   0.010273
     3  C   -0.000203  -0.000125   0.000109
     4  C    0.005538  -0.004895  -0.000078
     5  C   -0.030760  -0.037549   0.000001
     6  N    0.336551   0.338488  -0.000000
     7  C    0.000000   0.000000  -0.016043
     8  O   -0.000000  -0.000000   0.278700
     9  O    0.000000  -0.000000   0.004766
    10  H    0.000000   0.000000   0.000021
    11  H    0.000000  -0.000000  -0.000487
    12  H    0.000000  -0.000001  -0.000352
    13  H   -0.000000  -0.000000   0.000010
    14  H    0.000002   0.000011  -0.000275
    15  H   -0.000075  -0.000773   0.000045
    16  H   -0.000040   0.004970  -0.000002
    17  H   -0.002861  -0.005823  -0.000000
    18  H   -0.004310   0.006600   0.000000
    19  H    0.472840  -0.032194   0.000000
    20  H   -0.032194   0.478960   0.000000
    21  H    0.000000   0.000000   0.400781
 Mulliken charges:
               1
     1  N   -0.447770
     2  C   -0.043347
     3  C   -0.175971
     4  C   -0.170985
     5  C   -0.053348
     6  N   -0.642597
     7  C    0.391064
     8  O   -0.545235
     9  O   -0.521756
    10  H    0.308022
    11  H    0.312951
    12  H    0.131906
    13  H    0.101211
    14  H    0.116290
    15  H    0.114111
    16  H    0.100416
    17  H    0.087986
    18  H    0.106516
    19  H    0.255511
    20  H    0.252332
    21  H    0.322694
 Sum of Mulliken charges =  -0.00000
 Mulliken charges with hydrogens summed into heavy atoms:
               1
     1  N    0.173203
     2  C    0.088559
     3  C    0.041530
     4  C    0.043541
     5  C    0.141154
     6  N   -0.134755
     7  C    0.391064
     8  O   -0.222541
     9  O   -0.521756
 Electronic spatial extent (au):  <R**2>=           1724.8662
 Charge=              0.0000 electrons
 Dipole moment (field-independent basis, Debye):
    X=              1.6877    Y=              7.1455    Z=              1.1195  Tot=              7.4269
 Quadrupole moment (field-independent basis, Debye-Ang):
   XX=            -49.4093   YY=            -52.0962   ZZ=            -53.1977
   XY=             -2.3895   XZ=             -6.0779   YZ=             -4.8683
 Traceless Quadrupole moment (field-independent basis, Debye-Ang):
   XX=              2.1585   YY=             -0.5285   ZZ=             -1.6300
   XY=             -2.3895   XZ=             -6.0779   YZ=             -4.8683
 Octapole moment (field-independent basis, Debye-Ang**2):
  XXX=             39.9929  YYY=             25.6864  ZZZ=              2.2079  XYY=            -27.0062
  XXY=             20.8399  XXZ=              6.2439  XZZ=              1.4874  YZZ=              1.0264
  YYZ=             11.5925  XYZ=             12.0711
 Hexadecapole moment (field-independent basis, Debye-Ang**3):
 XXXX=          -1316.0849 YYYY=           -365.3849 ZZZZ=           -171.2001 XXXY=             52.9135
 XXXZ=            -53.8613 YYYX=            -22.6037 YYYZ=            -32.3343 ZZZX=            -17.0225
 ZZZY=             -7.6517 XXYY=           -325.2741 XXZZ=           -263.1482 YYZZ=            -90.0406
 XXYZ=             -7.7405 YYXZ=            -32.2962 ZZXY=             -2.5908
 N-N= 4.710423795310D+02 E-N=-2.011056197487D+03  KE= 4.537925466799D+02
 Evaluate density.
 Using the total density.
 Monte-Carlo method of calculating molar volume:
 based on  0.001 e/bohr**3 density envelope.
 Number of points per bohr**3 =   20 CutOff= 1.00D-04
 Using the CI density.
 There are       352 points.  Will hold       352 in memory.
 LenV=   805198100 MDV=   805306368.
 Box volume = 5483.623 fraction occupied=0.233
 Integrated density= 5.1046653264979888D+01 error=-2.0953346735020112D+01
 Molar volume = 1277.435 bohr**3/mol (113.997 cm**3/mol)
 Recommended a0 for SCRF calculation =  4.42 angstrom (  8.35 bohr)
 ******************************Gaussian NBO Version 3.1******************************
             N A T U R A L   A T O M I C   O R B I T A L   A N D
          N A T U R A L   B O N D   O R B I T A L   A N A L Y S I S
 ******************************Gaussian NBO Version 3.1******************************
       /RESON  / : Allow strongly delocalized NBO set

 Analyzing the CI density

 Job title: AHLPHDHHMVZTML-BYPYZUCNSA-N_conf_0                              

 Storage needed:    115614 in NPA ( 805303953 available)
 GSVD:  LWork=       22895 too small for GESVD, short by        6600 words or        6600 for optimal perf.


 NATURAL POPULATIONS:  Natural atomic orbital occupancies 
                                                          
   NAO  Atom  No  lang   Type(AO)    Occupancy
 --------------------------------------------
     1    N    1  S      Cor( 1S)     1.99946
     2    N    1  S      Val( 2S)     1.43087
     3    N    1  S      Ryd( 3S)     0.00083
     4    N    1  S      Ryd( 4S)     0.00001
     5    N    1  px     Val( 2p)     1.41459
     6    N    1  px     Ryd( 3p)     0.00284
     7    N    1  py     Val( 2p)     1.33606
     8    N    1  py     Ryd( 3p)     0.00181
     9    N    1  pz     Val( 2p)     1.41972
    10    N    1  pz     Ryd( 3p)     0.00190
    11    N    1  dxy    Ryd( 3d)     0.00097
    12    N    1  dxz    Ryd( 3d)     0.00049
    13    N    1  dyz    Ryd( 3d)     0.00024
    14    N    1  dx2y2  Ryd( 3d)     0.00080
    15    N    1  dz2    Ryd( 3d)     0.00117

    16    C    2  S      Cor( 1S)     1.99912
    17    C    2  S      Val( 2S)     0.99011
    18    C    2  S      Ryd( 3S)     0.00163
    19    C    2  S      Ryd( 4S)     0.00004
    20    C    2  px     Val( 2p)     0.94167
    21    C    2  px     Ryd( 3p)     0.00566
    22    C    2  py     Val( 2p)     0.98911
    23    C    2  py     Ryd( 3p)     0.00260
    24    C    2  pz     Val( 2p)     1.21542
    25    C    2  pz     Ryd( 3p)     0.00421
    26    C    2  dxy    Ryd( 3d)     0.00199
    27    C    2  dxz    Ryd( 3d)     0.00058
    28    C    2  dyz    Ryd( 3d)     0.00064
    29    C    2  dx2y2  Ryd( 3d)     0.00107
    30    C    2  dz2    Ryd( 3d)     0.00133

    31    C    3  S      Cor( 1S)     1.99925
    32    C    3  S      Val( 2S)     1.04637
    33    C    3  S      Ryd( 3S)     0.00100
    34    C    3  S      Ryd( 4S)     0.00002
    35    C    3  px     Val( 2p)     1.01016
    36    C    3  px     Ryd( 3p)     0.00305
    37    C    3  py     Val( 2p)     1.17814
    38    C    3  py     Ryd( 3p)     0.00239
    39    C    3  pz     Val( 2p)     1.21606
    40    C    3  pz     Ryd( 3p)     0.00288
    41    C    3  dxy    Ryd( 3d)     0.00063
    42    C    3  dxz    Ryd( 3d)     0.00046
    43    C    3  dyz    Ryd( 3d)     0.00029
    44    C    3  dx2y2  Ryd( 3d)     0.00086
    45    C    3  dz2    Ryd( 3d)     0.00106

    46    C    4  S      Cor( 1S)     1.99931
    47    C    4  S      Val( 2S)     1.04127
    48    C    4  S      Ryd( 3S)     0.00106
    49    C    4  S      Ryd( 4S)     0.00002
    50    C    4  px     Val( 2p)     1.03108
    51    C    4  px     Ryd( 3p)     0.00309
    52    C    4  py     Val( 2p)     1.17738
    53    C    4  py     Ryd( 3p)     0.00239
    54    C    4  pz     Val( 2p)     1.21336
    55    C    4  pz     Ryd( 3p)     0.00293
    56    C    4  dxy    Ryd( 3d)     0.00065
    57    C    4  dxz    Ryd( 3d)     0.00039
    58    C    4  dyz    Ryd( 3d)     0.00028
    59    C    4  dx2y2  Ryd( 3d)     0.00071
    60    C    4  dz2    Ryd( 3d)     0.00106

    61    C    5  S      Cor( 1S)     1.99935
    62    C    5  S      Val( 2S)     1.02156
    63    C    5  S      Ryd( 3S)     0.00210
    64    C    5  S      Ryd( 4S)     0.00004
    65    C    5  px     Val( 2p)     0.94612
    66    C    5  px     Ryd( 3p)     0.00169
    67    C    5  py     Val( 2p)     1.08525
    68    C    5  py     Ryd( 3p)     0.00287
    69    C    5  pz     Val( 2p)     1.19083
    70    C    5  pz     Ryd( 3p)     0.00171
    71    C    5  dxy    Ryd( 3d)     0.00114
    72    C    5  dxz    Ryd( 3d)     0.00062
    73    C    5  dyz    Ryd( 3d)     0.00041
    74    C    5  dx2y2  Ryd( 3d)     0.00140
    75    C    5  dz2    Ryd( 3d)     0.00131

    76    N    6  S      Cor( 1S)     1.99968
    77    N    6  S      Val( 2S)     1.44742
    78    N    6  S      Ryd( 3S)     0.00045
    79    N    6  S      Ryd( 4S)     0.00000
    80    N    6  px     Val( 2p)     1.34389
    81    N    6  px     Ryd( 3p)     0.00245
    82    N    6  py     Val( 2p)     1.71277
    83    N    6  py     Ryd( 3p)     0.00497
    84    N    6  pz     Val( 2p)     1.40539
    85    N    6  pz     Ryd( 3p)     0.00223
    86    N    6  dxy    Ryd( 3d)     0.00132
    87    N    6  dxz    Ryd( 3d)     0.00032
    88    N    6  dyz    Ryd( 3d)     0.00088
    89    N    6  dx2y2  Ryd( 3d)     0.00106
    90    N    6  dz2    Ryd( 3d)     0.00102

    91    C    7  S      Cor( 1S)     1.99945
    92    C    7  S      Val( 2S)     0.72552
    93    C    7  S      Ryd( 3S)     0.00572
    94    C    7  S      Ryd( 4S)     0.00041
    95    C    7  px     Val( 2p)     1.15269
    96    C    7  px     Ryd( 3p)     0.00696
    97    C    7  py     Val( 2p)     0.85127
    98    C    7  py     Ryd( 3p)     0.01398
    99    C    7  pz     Val( 2p)     0.76277
   100    C    7  pz     Ryd( 3p)     0.01312
   101    C    7  dxy    Ryd( 3d)     0.00149
   102    C    7  dxz    Ryd( 3d)     0.00161
   103    C    7  dyz    Ryd( 3d)     0.00156
   104    C    7  dx2y2  Ryd( 3d)     0.00092
   105    C    7  dz2    Ryd( 3d)     0.00247

   106    O    8  S      Cor( 1S)     1.99978
   107    O    8  S      Val( 2S)     1.67653
   108    O    8  S      Ryd( 3S)     0.00112
   109    O    8  S      Ryd( 4S)     0.00005
   110    O    8  px     Val( 2p)     1.82159
   111    O    8  px     Ryd( 3p)     0.00192
   112    O    8  py     Val( 2p)     1.65713
   113    O    8  py     Ryd( 3p)     0.00096
   114    O    8  pz     Val( 2p)     1.59809
   115    O    8  pz     Ryd( 3p)     0.00176
   116    O    8  dxy    Ryd( 3d)     0.00099
   117    O    8  dxz    Ryd( 3d)     0.00099
   118    O    8  dyz    Ryd( 3d)     0.00119
   119    O    8  dx2y2  Ryd( 3d)     0.00091
   120    O    8  dz2    Ryd( 3d)     0.00110

   121    O    9  S      Cor( 1S)     1.99981
   122    O    9  S      Val( 2S)     1.69714
   123    O    9  S      Ryd( 3S)     0.00053
   124    O    9  S      Ryd( 4S)     0.00011
   125    O    9  px     Val( 2p)     1.72983
   126    O    9  px     Ryd( 3p)     0.00370
   127    O    9  py     Val( 2p)     1.55683
   128    O    9  py     Ryd( 3p)     0.00070
   129    O    9  pz     Val( 2p)     1.58169
   130    O    9  pz     Ryd( 3p)     0.00183
   131    O    9  dxy    Ryd( 3d)     0.00261
   132    O    9  dxz    Ryd( 3d)     0.00116
   133    O    9  dyz    Ryd( 3d)     0.00415
   134    O    9  dx2y2  Ryd( 3d)     0.00258
   135    O    9  dz2    Ryd( 3d)     0.00215

   136    H   10  S      Val( 1S)     0.58216
   137    H   10  S      Ryd( 2S)     0.00234
   138    H   10  px     Ryd( 2p)     0.00041
   139    H   10  py     Ryd( 2p)     0.00057
   140    H   10  pz     Ryd( 2p)     0.00034

   141    H   11  S      Val( 1S)     0.58001
   142    H   11  S      Ryd( 2S)     0.00148
   143    H   11  px     Ryd( 2p)     0.00035
   144    H   11  py     Ryd( 2p)     0.00032
   145    H   11  pz     Ryd( 2p)     0.00067

   146    H   12  S      Val( 1S)     0.73250
   147    H   12  S      Ryd( 2S)     0.00265
   148    H   12  px     Ryd( 2p)     0.00009
   149    H   12  py     Ryd( 2p)     0.00009
   150    H   12  pz     Ryd( 2p)     0.00040

   151    H   13  S      Val( 1S)     0.76023
   152    H   13  S      Ryd( 2S)     0.00310
   153    H   13  px     Ryd( 2p)     0.00011
   154    H   13  py     Ryd( 2p)     0.00034
   155    H   13  pz     Ryd( 2p)     0.00011

   156    H   14  S      Val( 1S)     0.75152
   157    H   14  S      Ryd( 2S)     0.00192
   158    H   14  px     Ryd( 2p)     0.00009
   159    H   14  py     Ryd( 2p)     0.00009
   160    H   14  pz     Ryd( 2p)     0.00037

   161    H   15  S      Val( 1S)     0.74988
   162    H   15  S      Ryd( 2S)     0.00231
   163    H   15  px     Ryd( 2p)     0.00011
   164    H   15  py     Ryd( 2p)     0.00033
   165    H   15  pz     Ryd( 2p)     0.00011

   166    H   16  S      Val( 1S)     0.76400
   167    H   16  S      Ryd( 2S)     0.00194
   168    H   16  px     Ryd( 2p)     0.00011
   169    H   16  py     Ryd( 2p)     0.00009
   170    H   16  pz     Ryd( 2p)     0.00036

   171    H   17  S      Val( 1S)     0.79132
   172    H   17  S      Ryd( 2S)     0.00225
   173    H   17  px     Ryd( 2p)     0.00012
   174    H   17  py     Ryd( 2p)     0.00034
   175    H   17  pz     Ryd( 2p)     0.00011

   176    H   18  S      Val( 1S)     0.77072
   177    H   18  S      Ryd( 2S)     0.00159
   178    H   18  px     Ryd( 2p)     0.00008
   179    H   18  py     Ryd( 2p)     0.00008
   180    H   18  pz     Ryd( 2p)     0.00040

   181    H   19  S      Val( 1S)     0.60416
   182    H   19  S      Ryd( 2S)     0.00117
   183    H   19  px     Ryd( 2p)     0.00052
   184    H   19  py     Ryd( 2p)     0.00052
   185    H   19  pz     Ryd( 2p)     0.00037

   186    H   20  S      Val( 1S)     0.61220
   187    H   20  S      Ryd( 2S)     0.00147
   188    H   20  px     Ryd( 2p)     0.00034
   189    H   20  py     Ryd( 2p)     0.00050
   190    H   20  pz     Ryd( 2p)     0.00058

   191    H   21  S      Val( 1S)     0.49067
   192    H   21  S      Ryd( 2S)     0.00270
   193    H   21  px     Ryd( 2p)     0.00091
   194    H   21  py     Ryd( 2p)     0.00111
   195    H   21  pz     Ryd( 2p)     0.00063


 Summary of Natural Population Analysis:                  
                                                          
                                       Natural Population 
                Natural  -----------------------------------------------
    Atom  No    Charge         Core      Valence    Rydberg      Total
 -----------------------------------------------------------------------
      N    1   -0.61176      1.99946     5.60124    0.01106     7.61176
      C    2   -0.15518      1.99912     4.13630    0.01976     6.15518
      C    3   -0.46261      1.99925     4.45072    0.01264     6.46261
      C    4   -0.47499      1.99931     4.46309    0.01259     6.47499
      C    5   -0.25640      1.99935     4.24377    0.01329     6.25640
      N    6   -0.92384      1.99968     5.90947    0.01470     7.92384
      C    7    0.46006      1.99945     3.49225    0.04824     5.53994
      O    8   -0.76413      1.99978     6.75334    0.01100     8.76413
      O    9   -0.58480      1.99981     6.56549    0.01950     8.58480
      H   10    0.41419      0.00000     0.58216    0.00365     0.58581
      H   11    0.41717      0.00000     0.58001    0.00282     0.58283
      H   12    0.26427      0.00000     0.73250    0.00323     0.73573
      H   13    0.23611      0.00000     0.76023    0.00366     0.76389
      H   14    0.24600      0.00000     0.75152    0.00248     0.75400
      H   15    0.24726      0.00000     0.74988    0.00285     0.75274
      H   16    0.23349      0.00000     0.76400    0.00251     0.76651
      H   17    0.20586      0.00000     0.79132    0.00282     0.79414
      H   18    0.22713      0.00000     0.77072    0.00214     0.77287
      H   19    0.39327      0.00000     0.60416    0.00258     0.60673
      H   20    0.38491      0.00000     0.61220    0.00289     0.61509
      H   21    0.50399      0.00000     0.49067    0.00534     0.49601
 =======================================================================
   * Total *   -0.00000     17.99521    53.80505    0.19974    72.00000

                                 Natural Population      
 --------------------------------------------------------
   Core                      17.99521 ( 99.9734% of  18)
   Valence                   53.80505 ( 99.6390% of  54)
   Natural Minimal Basis     71.80026 ( 99.7226% of  72)
   Natural Rydberg Basis      0.19974 (  0.2774% of  72)
 --------------------------------------------------------

    Atom  No          Natural Electron Configuration
 ----------------------------------------------------------------------------
      N    1      [core]2S( 1.43)2p( 4.17)3p( 0.01)
      C    2      [core]2S( 0.99)2p( 3.15)3p( 0.01)3d( 0.01)
      C    3      [core]2S( 1.05)2p( 3.40)3p( 0.01)
      C    4      [core]2S( 1.04)2p( 3.42)3p( 0.01)
      C    5      [core]2S( 1.02)2p( 3.22)3p( 0.01)
      N    6      [core]2S( 1.45)2p( 4.46)3p( 0.01)
      C    7      [core]2S( 0.73)2p( 2.77)3S( 0.01)3p( 0.03)3d( 0.01)
      O    8      [core]2S( 1.68)2p( 5.08)3d( 0.01)
      O    9      [core]2S( 1.70)2p( 4.87)3p( 0.01)3d( 0.01)
      H   10            1S( 0.58)
      H   11            1S( 0.58)
      H   12            1S( 0.73)
      H   13            1S( 0.76)
      H   14            1S( 0.75)
      H   15            1S( 0.75)
      H   16            1S( 0.76)
      H   17            1S( 0.79)
      H   18            1S( 0.77)
      H   19            1S( 0.60)
      H   20            1S( 0.61)
      H   21            1S( 0.49)


 NBO analysis skipped by request.
 1\1\GINC-DRG2-W004\SP\RB3LYP TD-FC\6-31G(d,p)\C5H12N2O2\QDUEZ\17-Jul-2
 024\0\\# TD(NStates=10, Root=1) B3LYP/6-31G** SCRF=(Solvent=water) vol
 ume pop=NPA density=current Geom=AllCheck Guess=Read\\AHLPHDHHMVZTML-B
 YPYZUCNSA-N_conf_0\\0,1\N,0,-2.6320624804,-0.48427964,-1.2791337429\C,
 0,-1.6459273805,-0.4004520077,-0.1926974636\C,0,-0.1813991637,-0.21337
 45131,-0.6598223961\C,0,0.860474666,-0.2248582381,0.4654952709\C,0,2.2
 94377227,-0.117299783,-0.0582089486\N,0,3.2551127243,-0.0947333938,1.0
 557911577\C,0,-2.0438050409,0.7195002091,0.7592879262\O,0,-2.322179140
 5,1.8651649627,0.1021516739\O,0,-2.077497529,0.6327982254,1.9705533107
 \H,0,-2.3869371031,-1.2740172061,-1.8735979401\H,0,-2.5466624855,0.343
 3576221,-1.8670043118\H,0,-1.7124513802,-1.3210894156,0.395455417\H,0,
 0.0313647133,-1.0257387947,-1.3666066356\H,0,-0.1134786325,0.723683509
 6,-1.2277691125\H,0,0.682145362,0.5993418843,1.1661471685\H,0,0.758388
 5541,-1.1527383101,1.0460675535\H,0,2.4754292004,-0.9330098352,-0.7795
 622619\H,0,2.406127184,0.8206880358,-0.616646031\H,0,4.1961120205,0.00
 54697579,0.6793848309\H,0,3.248777903,-1.0063396863,1.5118398367\H,0,-
 2.5459092184,2.5379266168,0.7688746981\\Version=ES64L-G16RevA.03\State
 =1-A\HF=-457.7436249\RMSD=2.024e-09\Dipole=0.7317922,-1.1288718,-2.593
 8522\Quadrupole=-0.0672964,3.0539374,-2.986641,-2.9028919,4.4305684,1.
 2621088\PG=C01 [X(C5H12N2O2)]\\@


 THERE ARE PEOPLE SO ADDICTED TO EXAGERATING THEY
 CAN'T TELL THE TRUTH WITHOUT LYING. -- FORTUNE COOKIE
 Job cpu time:       0 days  0 hours 17 minutes 29.5 seconds.
 Elapsed time:       0 days  0 hours  5 minutes 55.5 seconds.
 File lengths (MBytes):  RWF=    378 Int=      0 D2E=      0 Chk=     23 Scr=      1
 Normal termination of Gaussian 16 at Wed Jul 17 14:45:42 2024.
