 Entering Gaussian System, Link 0=g16
 Initial command:
 /opt/sw/arch/manual/gaussian/G16_A03/g16/l1.exe "/scratch/1032089.jesse.materianova.be/Gau-30221.inp" -scrdir="/scratch/1032089.jesse.materianova.be/"
 Entering Link 1 = /opt/sw/arch/manual/gaussian/G16_A03/g16/l1.exe PID=     30222.
  
 Copyright (c) 1988,1990,1992,1993,1995,1998,2003,2009,2016,
            Gaussian, Inc.  All Rights Reserved.
  
 This is part of the Gaussian(R) 16 program.  It is based on
 the Gaussian(R) 09 system (copyright 2009, Gaussian, Inc.),
 the Gaussian(R) 03 system (copyright 2003, Gaussian, Inc.),
 the Gaussian(R) 98 system (copyright 1998, Gaussian, Inc.),
 the Gaussian(R) 94 system (copyright 1995, Gaussian, Inc.),
 the Gaussian 92(TM) system (copyright 1992, Gaussian, Inc.),
 the Gaussian 90(TM) system (copyright 1990, Gaussian, Inc.),
 the Gaussian 88(TM) system (copyright 1988, Gaussian, Inc.),
 the Gaussian 86(TM) system (copyright 1986, Carnegie Mellon
 University), and the Gaussian 82(TM) system (copyright 1983,
 Carnegie Mellon University). Gaussian is a federally registered
 trademark of Gaussian, Inc.
  
 This software contains proprietary and confidential information,
 including trade secrets, belonging to Gaussian, Inc.
  
 This software is provided under written license and may be
 used, copied, transmitted, or stored only in accord with that
 written license.
  
 The following legend is applicable only to US Government
 contracts under FAR:
  
                    RESTRICTED RIGHTS LEGEND
  
 Use, reproduction and disclosure by the US Government is
 subject to restrictions as set forth in subparagraphs (a)
 and (c) of the Commercial Computer Software - Restricted
 Rights clause in FAR 52.227-19.
  
 Gaussian, Inc.
 340 Quinnipiac St., Bldg. 40, Wallingford CT 06492
  
  
 ---------------------------------------------------------------
 Warning -- This program may not be used in any manner that
 competes with the business of Gaussian, Inc. or will provide
 assistance to any competitor of Gaussian, Inc.  The licensee
 of this program is prohibited from giving any competitor of
 Gaussian, Inc. access to this program.  By using this program,
 the user acknowledges that Gaussian, Inc. is engaged in the
 business of creating and licensing software in the field of
 computational chemistry and represents and warrants to the
 licensee that it is not a competitor of Gaussian, Inc. and that
 it will not use this program in any manner prohibited above.
 ---------------------------------------------------------------
  

 Cite this work as:
 Gaussian 16, Revision A.03,
 M. J. Frisch, G. W. Trucks, H. B. Schlegel, G. E. Scuseria, 
 M. A. Robb, J. R. Cheeseman, G. Scalmani, V. Barone, 
 G. A. Petersson, H. Nakatsuji, X. Li, M. Caricato, A. V. Marenich, 
 J. Bloino, B. G. Janesko, R. Gomperts, B. Mennucci, H. P. Hratchian, 
 J. V. Ortiz, A. F. Izmaylov, J. L. Sonnenberg, D. Williams-Young, 
 F. Ding, F. Lipparini, F. Egidi, J. Goings, B. Peng, A. Petrone, 
 T. Henderson, D. Ranasinghe, V. G. Zakrzewski, J. Gao, N. Rega, 
 G. Zheng, W. Liang, M. Hada, M. Ehara, K. Toyota, R. Fukuda, 
 J. Hasegawa, M. Ishida, T. Nakajima, Y. Honda, O. Kitao, H. Nakai, 
 T. Vreven, K. Throssell, J. A. Montgomery, Jr., J. E. Peralta, 
 F. Ogliaro, M. J. Bearpark, J. J. Heyd, E. N. Brothers, K. N. Kudin, 
 V. N. Staroverov, T. A. Keith, R. Kobayashi, J. Normand, 
 K. Raghavachari, A. P. Rendell, J. C. Burant, S. S. Iyengar, 
 J. Tomasi, M. Cossi, J. M. Millam, M. Klene, C. Adamo, R. Cammi, 
 J. W. Ochterski, R. L. Martin, K. Morokuma, O. Farkas, 
 J. B. Foresman, and D. J. Fox, Gaussian, Inc., Wallingford CT, 2016.
 
 ******************************************
 Gaussian 16:  EM64L-G16RevA.03 25-Dec-2016
                11-Jul-2024 
 ******************************************
 %nprocshared=4
 Will use up to    4 processors via shared memory.
 %mem=8GB
 %Chk=QNGVNLMMEQUVQK-UHFFFAOYSA-N_conf_3_0.chk
 -------------------------------------------------------
 # opt=CalcFc B3LYP/6-31G** SCRF=(Solvent=water) scf=xqc
 -------------------------------------------------------
 1/10=4,18=20,19=15,26=3,38=1/1,3;
 2/9=110,12=2,17=6,18=5,40=1/2;
 3/5=1,6=6,7=101,11=2,25=1,30=1,70=2201,71=2,72=1,74=-5,140=1/1,2,3;
 4//1;
 5/5=2,8=3,13=1,38=5,53=1/2,8;
 8/6=4,10=90,11=11/1;
 11/6=1,8=1,9=11,15=111,16=1/1,2,10;
 10/6=1,13=1/2;
 6/7=2,8=2,9=2,10=2,28=1/1;
 7/10=1,18=20,25=1/1,2,3,16;
 1/10=4,18=20,19=15,26=3/3(2);
 2/9=110/2;
 99//99;
 2/9=110/2;
 3/5=1,6=6,7=101,11=2,25=1,30=1,70=2205,71=1,72=1,74=-5/1,2,3;
 4/5=5,16=3,69=1/1;
 5/5=2,8=3,13=1,38=5,53=1/2,8;
 7//1,2,3,16;
 1/18=20,19=15,26=3/3(-5);
 2/9=110/2;
 6/7=2,8=2,9=2,10=2,19=2,28=1/1;
 99/9=1/99;
 ----------------------------------
 QNGVNLMMEQUVQK-UHFFFAOYSA-N_conf_3
 ----------------------------------
 Symbolic Z-matrix:
 Charge =  0 Multiplicity = 1
 N                     4.23534   0.06525  -0.26501 
 C                     2.84154   0.1314   -0.15305 
 C                     2.21582  -0.18433   1.05318 
 C                     0.82085  -0.23317   1.14072 
 C                     0.02065  -0.01102   0.01465 
 N                    -1.38294  -0.07631   0.1664 
 C                    -1.97605  -1.22138  -0.5569 
 C                    -1.60124  -2.55139   0.0845 
 C                    -2.0469    1.21202  -0.12297 
 C                    -1.72434   2.26246   0.93235 
 C                     0.65399   0.24456  -1.20671 
 C                     2.05037   0.29403  -1.29138 
 H                     4.60807   0.60149  -1.04177 
 H                     4.72197   0.25683   0.605 
 H                     2.8054   -0.39438   1.94072 
 H                     0.34967  -0.46003   2.09354 
 H                    -1.70527  -1.21635  -1.61979 
 H                    -3.06943  -1.14013  -0.51441 
 H                    -2.14803  -3.36849  -0.39687 
 H                    -1.84839  -2.55643   1.1513 
 H                    -0.53228  -2.76327  -0.01691 
 H                    -3.13376   1.06244  -0.10724 
 H                    -1.7988    1.58317  -1.12477 
 H                    -1.95369   1.89256   1.93724 
 H                    -2.31691   3.16608   0.75728 
 H                    -0.66817   2.54875   0.90981 
 H                     0.06936   0.39369  -2.10921 
 H                     2.51316   0.46196  -2.25968 
 

 GradGradGradGradGradGradGradGradGradGradGradGradGradGradGradGradGradGrad
 Berny optimization.
 Initialization pass.
                           ----------------------------
                           !    Initial Parameters    !
                           ! (Angstroms and Degrees)  !
 --------------------------                            --------------------------
 ! Name  Definition              Value          Derivative Info.                !
 --------------------------------------------------------------------------------
 ! R1    R(1,2)                  1.3998         calculate D2E/DX2 analytically  !
 ! R2    R(1,13)                 1.0148         calculate D2E/DX2 analytically  !
 ! R3    R(1,14)                 1.0151         calculate D2E/DX2 analytically  !
 ! R4    R(2,3)                  1.3951         calculate D2E/DX2 analytically  !
 ! R5    R(2,12)                 1.3958         calculate D2E/DX2 analytically  !
 ! R6    R(3,4)                  1.3986         calculate D2E/DX2 analytically  !
 ! R7    R(3,15)                 1.086          calculate D2E/DX2 analytically  !
 ! R8    R(4,5)                  1.3992         calculate D2E/DX2 analytically  !
 ! R9    R(4,16)                 1.0869         calculate D2E/DX2 analytically  !
 ! R10   R(5,6)                  1.4133         calculate D2E/DX2 analytically  !
 ! R11   R(5,11)                 1.3993         calculate D2E/DX2 analytically  !
 ! R12   R(6,7)                  1.4786         calculate D2E/DX2 analytically  !
 ! R13   R(6,9)                  1.478          calculate D2E/DX2 analytically  !
 ! R14   R(7,8)                  1.5234         calculate D2E/DX2 analytically  !
 ! R15   R(7,17)                 1.0969         calculate D2E/DX2 analytically  !
 ! R16   R(7,18)                 1.0972         calculate D2E/DX2 analytically  !
 ! R17   R(8,19)                 1.0947         calculate D2E/DX2 analytically  !
 ! R18   R(8,20)                 1.0951         calculate D2E/DX2 analytically  !
 ! R19   R(8,21)                 1.0945         calculate D2E/DX2 analytically  !
 ! R20   R(9,10)                 1.5235         calculate D2E/DX2 analytically  !
 ! R21   R(9,22)                 1.0972         calculate D2E/DX2 analytically  !
 ! R22   R(9,23)                 1.0968         calculate D2E/DX2 analytically  !
 ! R23   R(10,24)                1.0951         calculate D2E/DX2 analytically  !
 ! R24   R(10,25)                1.0947         calculate D2E/DX2 analytically  !
 ! R25   R(10,26)                1.0945         calculate D2E/DX2 analytically  !
 ! R26   R(11,12)                1.3998         calculate D2E/DX2 analytically  !
 ! R27   R(11,27)                1.0856         calculate D2E/DX2 analytically  !
 ! R28   R(12,28)                1.0863         calculate D2E/DX2 analytically  !
 ! A1    A(2,1,13)             113.7001         calculate D2E/DX2 analytically  !
 ! A2    A(2,1,14)             113.5691         calculate D2E/DX2 analytically  !
 ! A3    A(13,1,14)            112.3468         calculate D2E/DX2 analytically  !
 ! A4    A(1,2,3)              120.3343         calculate D2E/DX2 analytically  !
 ! A5    A(1,2,12)             120.3091         calculate D2E/DX2 analytically  !
 ! A6    A(3,2,12)             118.5083         calculate D2E/DX2 analytically  !
 ! A7    A(2,3,4)              120.6237         calculate D2E/DX2 analytically  !
 ! A8    A(2,3,15)             120.4573         calculate D2E/DX2 analytically  !
 ! A9    A(4,3,15)             118.9189         calculate D2E/DX2 analytically  !
 ! A10   A(3,4,5)              120.9649         calculate D2E/DX2 analytically  !
 ! A11   A(3,4,16)             119.6404         calculate D2E/DX2 analytically  !
 ! A12   A(5,4,16)             119.3895         calculate D2E/DX2 analytically  !
 ! A13   A(4,5,6)              118.3093         calculate D2E/DX2 analytically  !
 ! A14   A(4,5,11)             118.2031         calculate D2E/DX2 analytically  !
 ! A15   A(6,5,11)             123.4806         calculate D2E/DX2 analytically  !
 ! A16   A(5,6,7)              112.4354         calculate D2E/DX2 analytically  !
 ! A17   A(5,6,9)              112.6354         calculate D2E/DX2 analytically  !
 ! A18   A(7,6,9)              113.5216         calculate D2E/DX2 analytically  !
 ! A19   A(6,7,8)              111.8066         calculate D2E/DX2 analytically  !
 ! A20   A(6,7,17)             111.8059         calculate D2E/DX2 analytically  !
 ! A21   A(6,7,18)             108.8715         calculate D2E/DX2 analytically  !
 ! A22   A(8,7,17)             110.5643         calculate D2E/DX2 analytically  !
 ! A23   A(8,7,18)             107.0688         calculate D2E/DX2 analytically  !
 ! A24   A(17,7,18)            106.4505         calculate D2E/DX2 analytically  !
 ! A25   A(7,8,19)             110.0983         calculate D2E/DX2 analytically  !
 ! A26   A(7,8,20)             111.0172         calculate D2E/DX2 analytically  !
 ! A27   A(7,8,21)             111.7343         calculate D2E/DX2 analytically  !
 ! A28   A(19,8,20)            108.1923         calculate D2E/DX2 analytically  !
 ! A29   A(19,8,21)            107.6146         calculate D2E/DX2 analytically  !
 ! A30   A(20,8,21)            108.0476         calculate D2E/DX2 analytically  !
 ! A31   A(6,9,10)             111.7326         calculate D2E/DX2 analytically  !
 ! A32   A(6,9,22)             108.8661         calculate D2E/DX2 analytically  !
 ! A33   A(6,9,23)             111.8515         calculate D2E/DX2 analytically  !
 ! A34   A(10,9,22)            107.0845         calculate D2E/DX2 analytically  !
 ! A35   A(10,9,23)            110.5778         calculate D2E/DX2 analytically  !
 ! A36   A(22,9,23)            106.4576         calculate D2E/DX2 analytically  !
 ! A37   A(9,10,24)            111.0011         calculate D2E/DX2 analytically  !
 ! A38   A(9,10,25)            110.1057         calculate D2E/DX2 analytically  !
 ! A39   A(9,10,26)            111.7393         calculate D2E/DX2 analytically  !
 ! A40   A(24,10,25)           108.1925         calculate D2E/DX2 analytically  !
 ! A41   A(24,10,26)           108.0196         calculate D2E/DX2 analytically  !
 ! A42   A(25,10,26)           107.6467         calculate D2E/DX2 analytically  !
 ! A43   A(5,11,12)            120.713          calculate D2E/DX2 analytically  !
 ! A44   A(5,11,27)            120.4605         calculate D2E/DX2 analytically  !
 ! A45   A(12,11,27)           118.8205         calculate D2E/DX2 analytically  !
 ! A46   A(2,12,11)            120.7967         calculate D2E/DX2 analytically  !
 ! A47   A(2,12,28)            120.2317         calculate D2E/DX2 analytically  !
 ! A48   A(11,12,28)           118.9716         calculate D2E/DX2 analytically  !
 ! D1    D(13,1,2,3)          -160.107          calculate D2E/DX2 analytically  !
 ! D2    D(13,1,2,12)           30.5939         calculate D2E/DX2 analytically  !
 ! D3    D(14,1,2,3)           -29.977          calculate D2E/DX2 analytically  !
 ! D4    D(14,1,2,12)          160.7239         calculate D2E/DX2 analytically  !
 ! D5    D(1,2,3,4)           -174.4223         calculate D2E/DX2 analytically  !
 ! D6    D(1,2,3,15)             5.7015         calculate D2E/DX2 analytically  !
 ! D7    D(12,2,3,4)            -4.9332         calculate D2E/DX2 analytically  !
 ! D8    D(12,2,3,15)          175.1906         calculate D2E/DX2 analytically  !
 ! D9    D(1,2,12,11)          174.3787         calculate D2E/DX2 analytically  !
 ! D10   D(1,2,12,28)           -5.6476         calculate D2E/DX2 analytically  !
 ! D11   D(3,2,12,11)            4.8868         calculate D2E/DX2 analytically  !
 ! D12   D(3,2,12,28)         -175.1395         calculate D2E/DX2 analytically  !
 ! D13   D(2,3,4,5)              2.1306         calculate D2E/DX2 analytically  !
 ! D14   D(2,3,4,16)          -178.701          calculate D2E/DX2 analytically  !
 ! D15   D(15,3,4,5)          -177.9913         calculate D2E/DX2 analytically  !
 ! D16   D(15,3,4,16)            1.1771         calculate D2E/DX2 analytically  !
 ! D17   D(3,4,5,6)            179.8824         calculate D2E/DX2 analytically  !
 ! D18   D(3,4,5,11)             0.8127         calculate D2E/DX2 analytically  !
 ! D19   D(16,4,5,6)             0.7119         calculate D2E/DX2 analytically  !
 ! D20   D(16,4,5,11)         -178.3577         calculate D2E/DX2 analytically  !
 ! D21   D(4,5,6,7)           -113.0928         calculate D2E/DX2 analytically  !
 ! D22   D(4,5,6,9)            117.117          calculate D2E/DX2 analytically  !
 ! D23   D(11,5,6,7)            65.9242         calculate D2E/DX2 analytically  !
 ! D24   D(11,5,6,9)           -63.8661         calculate D2E/DX2 analytically  !
 ! D25   D(4,5,11,12)           -0.8657         calculate D2E/DX2 analytically  !
 ! D26   D(4,5,11,27)          178.2317         calculate D2E/DX2 analytically  !
 ! D27   D(6,5,11,12)         -179.8837         calculate D2E/DX2 analytically  !
 ! D28   D(6,5,11,27)           -0.7862         calculate D2E/DX2 analytically  !
 ! D29   D(5,6,7,8)             69.4974         calculate D2E/DX2 analytically  !
 ! D30   D(5,6,7,17)           -55.0832         calculate D2E/DX2 analytically  !
 ! D31   D(5,6,7,18)          -172.4121         calculate D2E/DX2 analytically  !
 ! D32   D(9,6,7,8)           -161.1694         calculate D2E/DX2 analytically  !
 ! D33   D(9,6,7,17)            74.25           calculate D2E/DX2 analytically  !
 ! D34   D(9,6,7,18)           -43.0789         calculate D2E/DX2 analytically  !
 ! D35   D(5,6,9,10)           -68.7854         calculate D2E/DX2 analytically  !
 ! D36   D(5,6,9,22)           173.1526         calculate D2E/DX2 analytically  !
 ! D37   D(5,6,9,23)            55.7914         calculate D2E/DX2 analytically  !
 ! D38   D(7,6,9,10)           161.9828         calculate D2E/DX2 analytically  !
 ! D39   D(7,6,9,22)            43.9208         calculate D2E/DX2 analytically  !
 ! D40   D(7,6,9,23)           -73.4404         calculate D2E/DX2 analytically  !
 ! D41   D(6,7,8,19)           173.2697         calculate D2E/DX2 analytically  !
 ! D42   D(6,7,8,20)            53.4857         calculate D2E/DX2 analytically  !
 ! D43   D(6,7,8,21)           -67.2079         calculate D2E/DX2 analytically  !
 ! D44   D(17,7,8,19)          -61.4605         calculate D2E/DX2 analytically  !
 ! D45   D(17,7,8,20)          178.7555         calculate D2E/DX2 analytically  !
 ! D46   D(17,7,8,21)           58.0619         calculate D2E/DX2 analytically  !
 ! D47   D(18,7,8,19)           54.108          calculate D2E/DX2 analytically  !
 ! D48   D(18,7,8,20)          -65.6761         calculate D2E/DX2 analytically  !
 ! D49   D(18,7,8,21)          173.6304         calculate D2E/DX2 analytically  !
 ! D50   D(6,9,10,24)          -53.7559         calculate D2E/DX2 analytically  !
 ! D51   D(6,9,10,25)         -173.5347         calculate D2E/DX2 analytically  !
 ! D52   D(6,9,10,26)           66.8944         calculate D2E/DX2 analytically  !
 ! D53   D(22,9,10,24)          65.3667         calculate D2E/DX2 analytically  !
 ! D54   D(22,9,10,25)         -54.4121         calculate D2E/DX2 analytically  !
 ! D55   D(22,9,10,26)        -173.983          calculate D2E/DX2 analytically  !
 ! D56   D(23,9,10,24)        -179.0406         calculate D2E/DX2 analytically  !
 ! D57   D(23,9,10,25)          61.1806         calculate D2E/DX2 analytically  !
 ! D58   D(23,9,10,26)         -58.3903         calculate D2E/DX2 analytically  !
 ! D59   D(5,11,12,2)           -2.0232         calculate D2E/DX2 analytically  !
 ! D60   D(5,11,12,28)         178.0027         calculate D2E/DX2 analytically  !
 ! D61   D(27,11,12,2)         178.8647         calculate D2E/DX2 analytically  !
 ! D62   D(27,11,12,28)         -1.1093         calculate D2E/DX2 analytically  !
 --------------------------------------------------------------------------------
 Trust Radius=3.00D-01 FncErr=1.00D-07 GrdErr=1.00D-06 EigMax=2.50D+02 EigMin=1.00D-04
 Number of steps in this run=    148 maximum allowed number of steps=    168.
 GradGradGradGradGradGradGradGradGradGradGradGradGradGradGradGradGradGrad

                          Input orientation:                          
 ---------------------------------------------------------------------
 Center     Atomic      Atomic             Coordinates (Angstroms)
 Number     Number       Type             X           Y           Z
 ---------------------------------------------------------------------
      1          7           0        4.235340    0.065247   -0.265012
      2          6           0        2.841544    0.131400   -0.153054
      3          6           0        2.215821   -0.184327    1.053177
      4          6           0        0.820850   -0.233166    1.140720
      5          6           0        0.020652   -0.011018    0.014649
      6          7           0       -1.382941   -0.076312    0.166403
      7          6           0       -1.976050   -1.221383   -0.556897
      8          6           0       -1.601241   -2.551390    0.084496
      9          6           0       -2.046901    1.212015   -0.122973
     10          6           0       -1.724337    2.262462    0.932350
     11          6           0        0.653995    0.244563   -1.206710
     12          6           0        2.050365    0.294027   -1.291384
     13          1           0        4.608071    0.601489   -1.041771
     14          1           0        4.721972    0.256830    0.604998
     15          1           0        2.805403   -0.394382    1.940722
     16          1           0        0.349671   -0.460032    2.093541
     17          1           0       -1.705271   -1.216348   -1.619792
     18          1           0       -3.069434   -1.140132   -0.514411
     19          1           0       -2.148033   -3.368493   -0.396871
     20          1           0       -1.848393   -2.556432    1.151299
     21          1           0       -0.532281   -2.763266   -0.016909
     22          1           0       -3.133757    1.062436   -0.107241
     23          1           0       -1.798800    1.583167   -1.124767
     24          1           0       -1.953687    1.892563    1.937237
     25          1           0       -2.316907    3.166082    0.757279
     26          1           0       -0.668170    2.548752    0.909815
     27          1           0        0.069363    0.393686   -2.109209
     28          1           0        2.513159    0.461963   -2.259683
 ---------------------------------------------------------------------
                    Distance matrix (angstroms):
                    1          2          3          4          5
     1  N    0.000000
     2  C    1.399849   0.000000
     3  C    2.424534   1.395065   0.000000
     4  C    3.704575   2.426925   1.398568   0.000000
     5  C    4.224644   2.829459   2.434613   1.399179   0.000000
     6  N    5.636598   4.241635   3.707981   2.414661   1.413282
     7  C    6.349958   5.020191   4.608644   3.417766   2.403844
     8  C    6.405826   5.195395   4.594702   3.515152   3.014780
     9  C    6.387628   5.006548   4.637229   3.451009   2.406143
    10  C    6.463682   5.154299   4.639636   3.570652   3.009299
    11  C    3.707423   2.430713   2.780348   2.401352   1.399343
    12  C    2.424849   1.395781   2.398575   2.775747   2.432799
    13  H    1.014810   2.032589   3.275542   4.450052   4.747167
    14  H    1.015102   2.031351   2.583849   3.968104   4.745805
    15  H    2.668565   2.159086   1.086033   2.145797   3.407574
    16  H    4.575709   3.406819   2.154272   1.086898   2.152129
    17  H    6.226457   4.963997   4.856417   3.868896   2.665150
    18  H    7.407756   6.056982   5.595070   4.323928   3.332181
    19  H    7.249510   6.099555   5.593279   4.583528   4.018106
    20  H    6.774286   5.560692   4.706840   3.538719   3.356253
    21  H    5.549076   4.447508   3.917662   3.093942   2.807418
    22  H    7.437935   6.047574   5.614176   4.344526   3.334286
    23  H    6.281251   4.958291   4.897414   3.910763   2.673968
    24  H    6.818580   5.519534   4.741290   3.584860   3.349326
    25  H    7.320669   6.053728   5.644326   4.641921   4.013683
    26  H    5.620714   4.392194   3.975887   3.163789   2.797896
    27  H    4.567746   3.402987   3.865497   3.394071   2.162621
    28  H    2.664959   2.157543   3.388383   3.861328   3.407182
                    6          7          8          9         10
     6  N    0.000000
     7  C    1.478557   0.000000
     8  C    2.486036   1.523412   0.000000
     9  C    1.477961   2.472799   3.795375   0.000000
    10  C    2.484571   3.797156   4.889497   1.523546   0.000000
    11  C    2.477399   3.080323   3.817152   3.066804   3.782057
    12  C    3.748317   4.364396   4.829458   4.358380   4.802927
    13  H    6.149091   6.848986   7.054408   6.745782   6.837790
    14  H    6.129707   6.956911   6.938302   6.874588   6.759040
    15  H    4.559780   5.457501   5.245642   5.512186   5.347353
    16  H    2.619742   3.607417   3.495153   3.667729   3.614118
    17  H    2.143378   1.096855   2.167431   2.872999   4.314616
    18  H    2.107008   1.097222   2.122717   2.594493   3.934470
    19  H    3.426529   2.159923   1.094694   4.589804   5.801207
    20  H    2.708812   2.171771   1.095070   3.983010   4.825461
    21  H    2.824349   2.180243   1.094463   4.255371   5.251670
    22  H    2.106416   2.599675   3.930026   1.097214   2.123035
    23  H    2.143346   2.866949   4.312297   1.096768   2.167653
    24  H    2.708888   3.989720   4.827585   2.171704   1.095091
    25  H    3.425572   4.592722   5.801232   2.160121   1.094677
    26  H    2.820375   4.251554   5.250068   2.180462   1.094513
    27  H    2.740163   3.033452   4.034443   3.015521   3.995093
    28  H    4.621171   5.087841   5.612820   5.091390   5.602432
                   11         12         13         14         15
    11  C    0.000000
    12  C    1.399810   0.000000
    13  H    3.973578   2.588184   0.000000
    14  H    4.453187   3.276452   1.686302   0.000000
    15  H    3.865635   3.389764   3.624450   2.425175   0.000000
    16  H    3.388322   3.862472   5.393606   4.674042   2.461358
    17  H    2.805536   4.061266   6.595219   6.959123   5.805089
    18  H    4.032441   5.373345   7.890211   7.994410   6.410735
    19  H    4.643422   5.642761   7.862671   7.832220   6.232672
    20  H    4.434831   5.412221   7.514516   7.168165   5.191865
    21  H    3.445274   4.200165   6.228574   6.092202   4.536966
    22  H    4.028004   5.372874   7.811640   7.928983   6.449038
    23  H    2.795493   4.062723   6.482174   6.875445   5.874233
    24  H    4.404578   5.386255   7.321067   7.001065   5.280063
    25  H    4.606385   5.614160   7.600594   7.617924   6.349449
    26  H    3.396628   4.161670   5.953086   5.865105   4.668031
    27  H    1.085604   2.145493   4.667170   5.388175   4.950647
    28  H    2.147675   1.086271   2.427227   3.623166   4.296759
                   16         17         18         19         20
    16  H    0.000000
    17  H    4.310875   0.000000
    18  H    4.353646   1.757446   0.000000
    19  H    4.571633   2.514618   2.414205   0.000000
    20  H    3.180283   3.081437   2.504284   1.773714   0.000000
    21  H    3.246033   2.517557   3.052739   1.766727   1.771904
    22  H    4.392679   3.085651   2.240811   4.548480   4.041323
    23  H    4.375854   2.844482   3.066497   5.017044   4.724322
    24  H    3.296148   4.730696   4.056194   5.758866   4.519108
    25  H    4.695203   5.022973   4.552689   6.637865   5.755165
    26  H    3.389688   4.653006   4.626268   6.237885   5.245392
    27  H    4.297734   2.445621   3.840315   4.690728   4.797072
    28  H    4.947860   4.584903   6.064489   6.314204   6.306239
                   21         22         23         24         25
    21  H    0.000000
    22  H    4.627292   0.000000
    23  H    4.660783   1.757450   0.000000
    24  H    5.245553   2.502312   3.081490   0.000000
    25  H    6.240306   2.416602   2.513196   1.773719   0.000000
    26  H    5.393961   3.053303   2.519961   1.771647   1.767116
    27  H    3.834845   3.836024   2.423639   4.765825   4.647281
    28  H    4.970598   6.072993   4.597622   6.293923   6.304273
                   26         27         28
    26  H    0.000000
    27  H    3.781900   0.000000
    28  H    4.951894   2.449376   0.000000
 Stoichiometry    C10H16N2
 Framework group  C1[X(C10H16N2)]
 Deg. of freedom    78
 Full point group                 C1      NOp   1
 Largest Abelian subgroup         C1      NOp   1
 Largest concise Abelian subgroup C1      NOp   1
                         Standard orientation:                         
 ---------------------------------------------------------------------
 Center     Atomic      Atomic             Coordinates (Angstroms)
 Number     Number       Type             X           Y           Z
 ---------------------------------------------------------------------
      1          7           0        3.982941    0.081493    0.050043
      2          6           0        2.588630   -0.039963    0.023175
      3          6           0        1.895034    0.068629   -1.182370
      4          6           0        0.496618    0.064475   -1.202608
      5          6           0       -0.240338   -0.003808   -0.015200
      6          7           0       -1.651019   -0.001841   -0.100862
      7          6           0       -2.249278    1.223979    0.469735
      8          6           0       -1.953253    2.449254   -0.385751
      9          6           0       -2.254014   -1.248234    0.416120
     10          6           0       -1.945083   -2.439283   -0.482300
     11          6           0        0.459444   -0.050454    1.195705
     12          6           0        1.859142   -0.047320    1.213133
     13          1           0        4.411303   -0.318102    0.878698
     14          1           0        4.433897   -0.228159   -0.805052
     15          1           0        2.433596    0.155835   -2.121418
     16          1           0       -0.027413    0.128644   -2.152671
     17          1           0       -1.927930    1.390272    1.505194
     18          1           0       -3.339849    1.106691    0.497880
     19          1           0       -2.505164    3.315177   -0.006376
     20          1           0       -2.251204    2.283026   -1.426315
     21          1           0       -0.888900    2.703952   -0.374369
     22          1           0       -3.345019   -1.133235    0.435142
     23          1           0       -1.945176   -1.453589    1.448277
     24          1           0       -2.235308   -2.235118   -1.518307
     25          1           0       -2.496002   -3.321326   -0.140529
     26          1           0       -0.879513   -2.689115   -0.472151
     27          1           0       -0.075634   -0.075036    2.139963
     28          1           0        2.373443   -0.051135    2.169931
 ---------------------------------------------------------------------
 Rotational constants (GHZ):           1.4763857           0.5893970           0.5137549
 Standard basis: 6-31G(d,p) (6D, 7F)
 There are   260 symmetry adapted cartesian basis functions of A   symmetry.
 There are   260 symmetry adapted basis functions of A   symmetry.
   260 basis functions,   448 primitive gaussians,   260 cartesian basis functions
    45 alpha electrons       45 beta electrons
       nuclear repulsion energy       706.8079778397 Hartrees.
 NAtoms=   28 NActive=   28 NUniq=   28 SFac= 1.00D+00 NAtFMM=   60 NAOKFM=F Big=F
 Integral buffers will be    131072 words long.
 Raffenetti 2 integral format.
 Two-electron integral symmetry is turned on.
 Force inversion solution in PCM.
 ------------------------------------------------------------------------------
 Polarizable Continuum Model (PCM)
 =================================
 Model                : PCM.
 Atomic radii         : UFF (Universal Force Field).
 Polarization charges : Total charges.
 Charge compensation  : None.
 Solution method      : Matrix inversion.
 Cavity type          : Scaled VdW (van der Waals Surface) (Alpha=1.100).
 Cavity algorithm     : GePol (No added spheres)
                        Default sphere list used, NSphG=   28.
                        Lebedev-Laikov grids with approx.  5.0 points / Ang**2.
                        Smoothing algorithm: York/Karplus (Gamma=1.0000).
                        Polarization charges: spherical gaussians, with
                                              point-specific exponents (IZeta= 3).
                        Self-potential: point-specific (ISelfS= 7).
                        Self-field    : sphere-specific E.n sum rule (ISelfD= 2).
 1st derivatives      : Analytical E(r).r(x)/FMM algorithm (CHGder, D1EAlg=3).
                        Cavity 1st derivative terms included.
 2nd derivatives      : Analytical E(r).r(xy)/FMM algorithm (CHGder, D2EAlg=3).
                        Cavity 2nd derivative terms included.
 Solvent              : Water, Eps=  78.355300 Eps(inf)=   1.777849
 ------------------------------------------------------------------------------
 One-electron integrals computed using PRISM.
 NBasis=   260 RedAO= T EigKep=  4.15D-04  NBF=   260
 NBsUse=   260 1.00D-06 EigRej= -1.00D+00 NBFU=   260
 ExpMin= 1.61D-01 ExpMax= 4.17D+03 ExpMxC= 6.27D+02 IAcc=3 IRadAn=         5 AccDes= 0.00D+00
 Harris functional with IExCor=  402 and IRadAn=       5 diagonalized for initial guess.
 HarFok:  IExCor=  402 AccDes= 0.00D+00 IRadAn=         5 IDoV= 1 UseB2=F ITyADJ=14
 ICtDFT=  3500011 ScaDFX=  1.000000  1.000000  1.000000  1.000000
 FoFCou: FMM=F IPFlag=           0 FMFlag=      100000 FMFlg1=           0
         NFxFlg=           0 DoJE=T BraDBF=F KetDBF=T FulRan=T
         wScrn=  0.000000 ICntrl=       500 IOpCl=  0 I1Cent=   200000004 NGrid=           0
         NMat0=    1 NMatS0=      1 NMatT0=    0 NMatD0=    1 NMtDS0=    0 NMtDT0=    0
 Petite list used in FoFCou.
 Keep R1 ints in memory in canonical form, NReq=584530862.
 Requested convergence on RMS density matrix=1.00D-08 within  32 cycles.
 Requested convergence on MAX density matrix=1.00D-06.
 Requested convergence on             energy=1.00D-06.
 No special actions if energy rises.
 Inv3:  Mode=1 IEnd=    12144432.
 Iteration    1 A*A^-1 deviation from unit magnitude is 7.33D-15 for    253.
 Iteration    1 A*A^-1 deviation from orthogonality  is 4.78D-15 for   1482    959.
 Iteration    1 A^-1*A deviation from unit magnitude is 7.11D-15 for    253.
 Iteration    1 A^-1*A deviation from orthogonality  is 5.07D-15 for   1598   1125.
 Error on total polarization charges =  0.01000
 SCF Done:  E(RB3LYP) =  -500.223428128     A.U. after   12 cycles
            NFock= 12  Conv=0.51D-08     -V/T= 2.0096
 QCSCF skips out because SCF is already converged.
 DoSCS=F DFT=T ScalE2(SS,OS)=  1.000000  1.000000
 Range of M.O.s used for correlation:     1   260
 NBasis=   260 NAE=    45 NBE=    45 NFC=     0 NFV=     0
 NROrb=    260 NOA=    45 NOB=    45 NVA=   215 NVB=   215
 Symmetrizing basis deriv contribution to polar:
 IMax=3 JMax=2 DiffMx= 0.00D+00
 G2DrvN: will do    29 centers at a time, making    1 passes.
 Calling FoFCou, ICntrl=  3107 FMM=F I1Cent=   0 AccDes= 0.00D+00.
 NEqPCM:  Using equilibrium solvation (IEInf=0, Eps=  78.3553, EpsInf=   1.7778)
 G2PCM: DoFxE=T DoFxN=T DoGrad=T DoDP/DQ/DG/TGxP=FFFF NFrqRd=   0 IEInf=0 SqF1=F DoCFld=F IF1Alg=4.
 End of G2Drv F.D. properties file   721 does not exist.
 End of G2Drv F.D. properties file   722 does not exist.
 End of G2Drv F.D. properties file   788 does not exist.
          IDoAtm=1111111111111111111111111111
 NEqPCM:  Using equilibrium solvation (IEInf=0, Eps=  78.3553, EpsInf=   1.7778)
          Differentiating once with respect to nuclear coordinates.
 Keep R1 ints in memory in canonical form, NReq=586060466.
          There are    87 degrees of freedom in the 1st order CPHF.  IDoFFX=6 NUNeed=     0.
     81 vectors produced by pass  0 Test12= 1.11D-14 1.15D-09 XBig12= 1.57D-01 2.27D-01.
 AX will form    81 AO Fock derivatives at one time.
     81 vectors produced by pass  1 Test12= 1.11D-14 1.15D-09 XBig12= 2.07D-02 4.93D-02.
     81 vectors produced by pass  2 Test12= 1.11D-14 1.15D-09 XBig12= 1.74D-04 2.37D-03.
     81 vectors produced by pass  3 Test12= 1.11D-14 1.15D-09 XBig12= 4.60D-07 1.15D-04.
     81 vectors produced by pass  4 Test12= 1.11D-14 1.15D-09 XBig12= 5.29D-10 2.84D-06.
     47 vectors produced by pass  5 Test12= 1.11D-14 1.15D-09 XBig12= 3.98D-13 7.91D-08.
      7 vectors produced by pass  6 Test12= 1.11D-14 1.15D-09 XBig12= 3.56D-16 1.84D-09.
 InvSVY:  IOpt=1 It=  1 EMax= 9.44D-16
 Solved reduced A of dimension   459 with    87 vectors.
 End of Minotr F.D. properties file   721 does not exist.
 End of Minotr F.D. properties file   722 does not exist.
 End of Minotr F.D. properties file   788 does not exist.

 **********************************************************************

            Population analysis using the SCF density.

 **********************************************************************

 Orbital symmetries:
       Occupied  (A) (A) (A) (A) (A) (A) (A) (A) (A) (A) (A) (A)
                 (A) (A) (A) (A) (A) (A) (A) (A) (A) (A) (A) (A)
                 (A) (A) (A) (A) (A) (A) (A) (A) (A) (A) (A) (A)
                 (A) (A) (A) (A) (A) (A) (A) (A) (A)
       Virtual   (A) (A) (A) (A) (A) (A) (A) (A) (A) (A) (A) (A)
                 (A) (A) (A) (A) (A) (A) (A) (A) (A) (A) (A) (A)
                 (A) (A) (A) (A) (A) (A) (A) (A) (A) (A) (A) (A)
                 (A) (A) (A) (A) (A) (A) (A) (A) (A) (A) (A) (A)
                 (A) (A) (A) (A) (A) (A) (A) (A) (A) (A) (A) (A)
                 (A) (A) (A) (A) (A) (A) (A) (A) (A) (A) (A) (A)
                 (A) (A) (A) (A) (A) (A) (A) (A) (A) (A) (A) (A)
                 (A) (A) (A) (A) (A) (A) (A) (A) (A) (A) (A) (A)
                 (A) (A) (A) (A) (A) (A) (A) (A) (A) (A) (A) (A)
                 (A) (A) (A) (A) (A) (A) (A) (A) (A) (A) (A) (A)
                 (A) (A) (A) (A) (A) (A) (A) (A) (A) (A) (A) (A)
                 (A) (A) (A) (A) (A) (A) (A) (A) (A) (A) (A) (A)
                 (A) (A) (A) (A) (A) (A) (A) (A) (A) (A) (A) (A)
                 (A) (A) (A) (A) (A) (A) (A) (A) (A) (A) (A) (A)
                 (A) (A) (A) (A) (A) (A) (A) (A) (A) (A) (A) (A)
                 (A) (A) (A) (A) (A) (A) (A) (A) (A) (A) (A) (A)
                 (A) (A) (A) (A) (A) (A) (A) (A) (A) (A) (A) (A)
                 (A) (A) (A) (A) (A) (A) (A) (A) (A) (A) (A)
 The electronic state is 1-A.
 Alpha  occ. eigenvalues --  -14.33438 -14.31848 -10.22305 -10.20286 -10.20286
 Alpha  occ. eigenvalues --  -10.20013 -10.18455 -10.18149 -10.18116 -10.17941
 Alpha  occ. eigenvalues --  -10.16922 -10.16902  -0.92416  -0.91066  -0.82305
 Alpha  occ. eigenvalues --   -0.75869  -0.73975  -0.73297  -0.69354  -0.62008
 Alpha  occ. eigenvalues --   -0.60635  -0.60569  -0.56154  -0.51290  -0.50325
 Alpha  occ. eigenvalues --   -0.47919  -0.47056  -0.44546  -0.43306  -0.43240
 Alpha  occ. eigenvalues --   -0.41630  -0.41045  -0.39910  -0.38682  -0.37547
 Alpha  occ. eigenvalues --   -0.36024  -0.35917  -0.34679  -0.34328  -0.33258
 Alpha  occ. eigenvalues --   -0.32942  -0.30032  -0.24652  -0.21180  -0.20065
 Alpha virt. eigenvalues --   -0.00131   0.01718   0.09431   0.09713   0.11579
 Alpha virt. eigenvalues --    0.11975   0.12454   0.13986   0.14479   0.15332
 Alpha virt. eigenvalues --    0.16305   0.17242   0.17618   0.18114   0.18584
 Alpha virt. eigenvalues --    0.19697   0.19948   0.20694   0.21185   0.22047
 Alpha virt. eigenvalues --    0.24239   0.25546   0.26243   0.28031   0.30525
 Alpha virt. eigenvalues --    0.34013   0.34533   0.35300   0.38010   0.47775
 Alpha virt. eigenvalues --    0.50022   0.50552   0.52079   0.52180   0.52867
 Alpha virt. eigenvalues --    0.54540   0.55360   0.55811   0.56861   0.57778
 Alpha virt. eigenvalues --    0.59382   0.59976   0.60550   0.60689   0.61895
 Alpha virt. eigenvalues --    0.62438   0.64801   0.65326   0.67125   0.69516
 Alpha virt. eigenvalues --    0.70421   0.73734   0.75853   0.77123   0.77841
 Alpha virt. eigenvalues --    0.78673   0.80017   0.81528   0.82188   0.83387
 Alpha virt. eigenvalues --    0.84793   0.86270   0.87207   0.87365   0.88326
 Alpha virt. eigenvalues --    0.88517   0.88912   0.89514   0.89925   0.90614
 Alpha virt. eigenvalues --    0.91455   0.93520   0.94605   0.94907   0.95780
 Alpha virt. eigenvalues --    0.97320   1.00057   1.00816   1.02260   1.02436
 Alpha virt. eigenvalues --    1.04891   1.06789   1.10551   1.16320   1.17148
 Alpha virt. eigenvalues --    1.19913   1.24008   1.25031   1.29058   1.31474
 Alpha virt. eigenvalues --    1.34900   1.36109   1.39039   1.40697   1.41310
 Alpha virt. eigenvalues --    1.41556   1.45893   1.48625   1.51859   1.53764
 Alpha virt. eigenvalues --    1.54241   1.61743   1.64313   1.68850   1.70110
 Alpha virt. eigenvalues --    1.72967   1.75783   1.79100   1.80092   1.81652
 Alpha virt. eigenvalues --    1.84641   1.86641   1.87427   1.87790   1.88571
 Alpha virt. eigenvalues --    1.91691   1.92280   1.93955   1.94932   1.96067
 Alpha virt. eigenvalues --    1.97170   1.98709   1.99535   2.01050   2.03801
 Alpha virt. eigenvalues --    2.05970   2.06015   2.07845   2.08475   2.10132
 Alpha virt. eigenvalues --    2.11373   2.11582   2.12674   2.13906   2.14262
 Alpha virt. eigenvalues --    2.16666   2.21133   2.24575   2.26252   2.26968
 Alpha virt. eigenvalues --    2.27563   2.28293   2.30691   2.31902   2.33957
 Alpha virt. eigenvalues --    2.35626   2.37365   2.38076   2.40622   2.41877
 Alpha virt. eigenvalues --    2.44016   2.45315   2.45934   2.46183   2.47203
 Alpha virt. eigenvalues --    2.48288   2.51671   2.52926   2.54627   2.55887
 Alpha virt. eigenvalues --    2.58531   2.60378   2.62321   2.65911   2.66795
 Alpha virt. eigenvalues --    2.70521   2.71147   2.73772   2.74822   2.75247
 Alpha virt. eigenvalues --    2.79252   2.81288   2.82034   2.82948   2.85427
 Alpha virt. eigenvalues --    2.87319   2.87940   2.91163   2.91432   2.93182
 Alpha virt. eigenvalues --    2.98364   2.98943   3.01967   3.07638   3.08288
 Alpha virt. eigenvalues --    3.20077   3.20366   3.20479   3.25853   3.28691
 Alpha virt. eigenvalues --    3.30379   3.30639   3.36051   3.38212   3.39553
 Alpha virt. eigenvalues --    3.40290   3.46389   3.48369   3.49380   3.52981
 Alpha virt. eigenvalues --    3.54759   3.57357   3.83627   4.03994   4.14382
 Alpha virt. eigenvalues --    4.16975   4.21162   4.26722   4.37184   4.41473
 Alpha virt. eigenvalues --    4.45071   4.51791   4.61946   4.68094   4.85082
          Condensed to atoms (all electrons):
               1          2          3          4          5          6
     1  N    6.834480   0.297239  -0.070703   0.004191   0.000575   0.000000
     2  C    0.297239   4.580875   0.538364  -0.027409  -0.030914   0.000414
     3  C   -0.070703   0.538364   4.982983   0.494312  -0.037679   0.006620
     4  C    0.004191  -0.027409   0.494312   4.895874   0.564513  -0.063550
     5  C    0.000575  -0.030914  -0.037679   0.564513   4.717071   0.240967
     6  N    0.000000   0.000414   0.006620  -0.063550   0.240967   7.059792
     7  C    0.000000   0.000041  -0.000318  -0.001066  -0.046573   0.311156
     8  C    0.000000   0.000017  -0.000084  -0.000231  -0.002427  -0.062650
     9  C   -0.000000  -0.000023  -0.000218  -0.000952  -0.046666   0.311893
    10  C   -0.000000   0.000008  -0.000019   0.000071  -0.002426  -0.062269
    11  C    0.004577  -0.027192  -0.041163  -0.055625   0.512775  -0.069142
    12  C   -0.070274   0.539314  -0.049906  -0.042128  -0.022789   0.006381
    13  H    0.343515  -0.025074   0.005496  -0.000172  -0.000003  -0.000000
    14  H    0.343523  -0.025245  -0.009396  -0.000045  -0.000002  -0.000000
    15  H   -0.007347  -0.045029   0.360707  -0.029743   0.004131  -0.000149
    16  H   -0.000109   0.004613  -0.037174   0.355734  -0.043791   0.002281
    17  H    0.000000  -0.000008   0.000050   0.000651  -0.005468  -0.049862
    18  H   -0.000000  -0.000001   0.000003  -0.000194   0.005248  -0.037532
    19  H    0.000000  -0.000000   0.000004   0.000041   0.000012   0.004165
    20  H    0.000000   0.000001   0.000054   0.000572  -0.001639   0.005018
    21  H   -0.000000  -0.000060   0.000018   0.001415   0.007800  -0.004700
    22  H    0.000000   0.000000   0.000000  -0.000191   0.005319  -0.037716
    23  H    0.000000  -0.000007   0.000047   0.000573  -0.005772  -0.049698
    24  H    0.000000   0.000002   0.000046   0.000559  -0.001598   0.005061
    25  H    0.000000  -0.000000   0.000003   0.000036   0.000009   0.004156
    26  H    0.000000   0.000008  -0.000120   0.001227   0.007893  -0.004985
    27  H   -0.000112   0.003845   0.000596   0.005502  -0.040114  -0.007672
    28  H   -0.007198  -0.043943   0.004992   0.000773   0.003019  -0.000138
               7          8          9         10         11         12
     1  N    0.000000   0.000000  -0.000000  -0.000000   0.004577  -0.070274
     2  C    0.000041   0.000017  -0.000023   0.000008  -0.027192   0.539314
     3  C   -0.000318  -0.000084  -0.000218  -0.000019  -0.041163  -0.049906
     4  C   -0.001066  -0.000231  -0.000952   0.000071  -0.055625  -0.042128
     5  C   -0.046573  -0.002427  -0.046666  -0.002426   0.512775  -0.022789
     6  N    0.311156  -0.062650   0.311893  -0.062269  -0.069142   0.006381
     7  C    4.788290   0.375708  -0.044894   0.005152  -0.006411   0.000367
     8  C    0.375708   4.968553   0.005131  -0.000219  -0.000969  -0.000045
     9  C   -0.044894   0.005131   4.787978   0.375523  -0.006710   0.000549
    10  C    0.005152  -0.000219   0.375523   4.967544  -0.001214  -0.000048
    11  C   -0.006411  -0.000969  -0.006710  -0.001214   4.958269   0.490409
    12  C    0.000367  -0.000045   0.000549  -0.000048   0.490409   4.973582
    13  H    0.000000   0.000000   0.000000  -0.000000  -0.000048  -0.009403
    14  H    0.000000  -0.000000  -0.000000  -0.000000  -0.000180   0.005527
    15  H    0.000003  -0.000002   0.000003  -0.000001   0.000476   0.005242
    16  H   -0.000211  -0.000176  -0.000183  -0.000196   0.007532   0.000262
    17  H    0.364537  -0.050752  -0.004135  -0.000261   0.004676  -0.000808
    18  H    0.385465  -0.037577  -0.004078   0.000213   0.000090   0.000007
    19  H   -0.027486   0.368565  -0.000138   0.000002   0.000035  -0.000003
    20  H   -0.034191   0.376380   0.000040  -0.000032   0.000130  -0.000006
    21  H   -0.032418   0.384236   0.000095   0.000004   0.000801  -0.000035
    22  H   -0.004135   0.000222   0.385750  -0.037251   0.000109   0.000003
    23  H   -0.004173  -0.000269   0.364367  -0.050604   0.004516  -0.000767
    24  H    0.000038  -0.000031  -0.034270   0.376492   0.000140  -0.000006
    25  H   -0.000137   0.000002  -0.027526   0.369039   0.000039  -0.000004
    26  H    0.000100   0.000004  -0.032470   0.384407   0.001100  -0.000105
    27  H    0.000450   0.000049   0.000196   0.000056   0.364503  -0.037026
    28  H   -0.000008  -0.000000  -0.000005  -0.000000  -0.029307   0.360656
              13         14         15         16         17         18
     1  N    0.343515   0.343523  -0.007347  -0.000109   0.000000  -0.000000
     2  C   -0.025074  -0.025245  -0.045029   0.004613  -0.000008  -0.000001
     3  C    0.005496  -0.009396   0.360707  -0.037174   0.000050   0.000003
     4  C   -0.000172  -0.000045  -0.029743   0.355734   0.000651  -0.000194
     5  C   -0.000003  -0.000002   0.004131  -0.043791  -0.005468   0.005248
     6  N   -0.000000  -0.000000  -0.000149   0.002281  -0.049862  -0.037532
     7  C    0.000000   0.000000   0.000003  -0.000211   0.364537   0.385465
     8  C    0.000000  -0.000000  -0.000002  -0.000176  -0.050752  -0.037577
     9  C    0.000000  -0.000000   0.000003  -0.000183  -0.004135  -0.004078
    10  C   -0.000000  -0.000000  -0.000001  -0.000196  -0.000261   0.000213
    11  C   -0.000048  -0.000180   0.000476   0.007532   0.004676   0.000090
    12  C   -0.009403   0.005527   0.005242   0.000262  -0.000808   0.000007
    13  H    0.433644  -0.028429  -0.000058   0.000003  -0.000000  -0.000000
    14  H   -0.028429   0.433738   0.004642  -0.000007   0.000000  -0.000000
    15  H   -0.000058   0.004642   0.622611  -0.006968  -0.000000  -0.000000
    16  H    0.000003  -0.000007  -0.006968   0.631283   0.000120  -0.000048
    17  H   -0.000000   0.000000  -0.000000   0.000120   0.691305  -0.044718
    18  H   -0.000000  -0.000000  -0.000000  -0.000048  -0.044718   0.633439
    19  H    0.000000  -0.000000  -0.000000   0.000013   0.001852  -0.004213
    20  H    0.000000  -0.000000  -0.000002   0.000980   0.006393  -0.005391
    21  H   -0.000000  -0.000000  -0.000001  -0.000087  -0.006114   0.005593
    22  H    0.000000   0.000000  -0.000000  -0.000038  -0.000980   0.005823
    23  H    0.000000   0.000000  -0.000000   0.000100   0.006725  -0.000966
    24  H    0.000000   0.000000  -0.000002   0.000753   0.000031  -0.000032
    25  H    0.000000   0.000000  -0.000000   0.000009   0.000018  -0.000031
    26  H    0.000000   0.000000  -0.000003  -0.000048  -0.000005  -0.000004
    27  H   -0.000006   0.000003   0.000016  -0.000178   0.002970  -0.000148
    28  H    0.004577  -0.000060  -0.000199   0.000019   0.000025  -0.000000
              19         20         21         22         23         24
     1  N    0.000000   0.000000  -0.000000   0.000000   0.000000   0.000000
     2  C   -0.000000   0.000001  -0.000060   0.000000  -0.000007   0.000002
     3  C    0.000004   0.000054   0.000018   0.000000   0.000047   0.000046
     4  C    0.000041   0.000572   0.001415  -0.000191   0.000573   0.000559
     5  C    0.000012  -0.001639   0.007800   0.005319  -0.005772  -0.001598
     6  N    0.004165   0.005018  -0.004700  -0.037716  -0.049698   0.005061
     7  C   -0.027486  -0.034191  -0.032418  -0.004135  -0.004173   0.000038
     8  C    0.368565   0.376380   0.384236   0.000222  -0.000269  -0.000031
     9  C   -0.000138   0.000040   0.000095   0.385750   0.364367  -0.034270
    10  C    0.000002  -0.000032   0.000004  -0.037251  -0.050604   0.376492
    11  C    0.000035   0.000130   0.000801   0.000109   0.004516   0.000140
    12  C   -0.000003  -0.000006  -0.000035   0.000003  -0.000767  -0.000006
    13  H    0.000000   0.000000  -0.000000   0.000000   0.000000   0.000000
    14  H   -0.000000  -0.000000  -0.000000   0.000000   0.000000   0.000000
    15  H   -0.000000  -0.000002  -0.000001  -0.000000  -0.000000  -0.000002
    16  H    0.000013   0.000980  -0.000087  -0.000038   0.000100   0.000753
    17  H    0.001852   0.006393  -0.006114  -0.000980   0.006725   0.000031
    18  H   -0.004213  -0.005391   0.005593   0.005823  -0.000966  -0.000032
    19  H    0.611971  -0.027251  -0.030413  -0.000031   0.000019   0.000001
    20  H   -0.027251   0.605394  -0.032870  -0.000034   0.000032   0.000020
    21  H   -0.030413  -0.032870   0.598238  -0.000004  -0.000005  -0.000000
    22  H   -0.000031  -0.000034  -0.000004   0.633354  -0.045166  -0.005506
    23  H    0.000019   0.000032  -0.000005  -0.045166   0.692295   0.006410
    24  H    0.000001   0.000020  -0.000000  -0.005506   0.006410   0.605531
    25  H   -0.000000   0.000001  -0.000000  -0.004139   0.001808  -0.027245
    26  H   -0.000000  -0.000000  -0.000001   0.005588  -0.006145  -0.032944
    27  H    0.000001   0.000002  -0.000029  -0.000138   0.003027   0.000002
    28  H    0.000000   0.000000  -0.000001  -0.000000   0.000024   0.000000
              25         26         27         28
     1  N    0.000000   0.000000  -0.000112  -0.007198
     2  C   -0.000000   0.000008   0.003845  -0.043943
     3  C    0.000003  -0.000120   0.000596   0.004992
     4  C    0.000036   0.001227   0.005502   0.000773
     5  C    0.000009   0.007893  -0.040114   0.003019
     6  N    0.004156  -0.004985  -0.007672  -0.000138
     7  C   -0.000137   0.000100   0.000450  -0.000008
     8  C    0.000002   0.000004   0.000049  -0.000000
     9  C   -0.027526  -0.032470   0.000196  -0.000005
    10  C    0.369039   0.384407   0.000056  -0.000000
    11  C    0.000039   0.001100   0.364503  -0.029307
    12  C   -0.000004  -0.000105  -0.037026   0.360656
    13  H    0.000000   0.000000  -0.000006   0.004577
    14  H    0.000000   0.000000   0.000003  -0.000060
    15  H   -0.000000  -0.000003   0.000016  -0.000199
    16  H    0.000009  -0.000048  -0.000178   0.000019
    17  H    0.000018  -0.000005   0.002970   0.000025
    18  H   -0.000031  -0.000004  -0.000148  -0.000000
    19  H   -0.000000  -0.000000   0.000001   0.000000
    20  H    0.000001  -0.000000   0.000002   0.000000
    21  H   -0.000000  -0.000001  -0.000029  -0.000001
    22  H   -0.004139   0.005588  -0.000138  -0.000000
    23  H    0.001808  -0.006145   0.003027   0.000024
    24  H   -0.027245  -0.032944   0.000002   0.000000
    25  H    0.611271  -0.030466   0.000002   0.000000
    26  H   -0.030466   0.598607  -0.000018  -0.000002
    27  H    0.000002  -0.000018   0.612747  -0.005972
    28  H    0.000000  -0.000002  -0.005972   0.619870
 Mulliken charges:
               1
     1  N   -0.672357
     2  C    0.260162
     3  C   -0.147515
     4  C   -0.104739
     5  C    0.218530
     6  N   -0.507843
     7  C   -0.029285
     8  C   -0.323434
     9  C   -0.029258
    10  C   -0.323972
    11  C   -0.112218
    12  C   -0.148946
    13  H    0.275959
    14  H    0.275931
    15  H    0.091674
    16  H    0.085509
    17  H    0.083759
    18  H    0.099052
    19  H    0.102855
    20  H    0.106401
    21  H    0.108537
    22  H    0.099158
    23  H    0.083628
    24  H    0.106549
    25  H    0.103155
    26  H    0.108383
    27  H    0.097446
    28  H    0.092880
 Sum of Mulliken charges =  -0.00000
 Mulliken charges with hydrogens summed into heavy atoms:
               1
     1  N   -0.120467
     2  C    0.260162
     3  C   -0.055841
     4  C   -0.019230
     5  C    0.218530
     6  N   -0.507843
     7  C    0.153526
     8  C   -0.005641
     9  C    0.153528
    10  C   -0.005886
    11  C   -0.014772
    12  C   -0.056066
 APT charges:
               1
     1  N   -1.325519
     2  C    0.116809
     3  C   -0.444045
     4  C   -0.518187
     5  C   -0.170058
     6  N   -0.338126
     7  C   -0.794732
     8  C   -1.100155
     9  C   -0.795658
    10  C   -1.100458
    11  C   -0.519750
    12  C   -0.459266
    13  H    0.750391
    14  H    0.751798
    15  H    0.566831
    16  H    0.395604
    17  H    0.251693
    18  H    0.591986
    19  H    0.660860
    20  H    0.370522
    21  H    0.126469
    22  H    0.592462
    23  H    0.253687
    24  H    0.369535
    25  H    0.662341
    26  H    0.125487
    27  H    0.413076
    28  H    0.566403
 Sum of APT charges =  -0.00000
 APT charges with hydrogens summed into heavy atoms:
               1
     1  N    0.176670
     2  C    0.116809
     3  C    0.122786
     4  C   -0.122583
     5  C   -0.170058
     6  N   -0.338126
     7  C    0.048947
     8  C    0.057696
     9  C    0.050491
    10  C    0.056904
    11  C   -0.106674
    12  C    0.107137
 Electronic spatial extent (au):  <R**2>=           2434.0185
 Charge=             -0.0000 electrons
 Dipole moment (field-independent basis, Debye):
    X=              1.5540    Y=             -1.2425    Z=              0.9408  Tot=              2.2009
 Quadrupole moment (field-independent basis, Debye-Ang):
   XX=            -59.2863   YY=            -76.0983   ZZ=            -68.8001
   XY=             -5.5888   XZ=             -2.0747   YZ=             -0.4858
 Traceless Quadrupole moment (field-independent basis, Debye-Ang):
   XX=              8.7753   YY=             -8.0368   ZZ=             -0.7385
   XY=             -5.5888   XZ=             -2.0747   YZ=             -0.4858
 Octapole moment (field-independent basis, Debye-Ang**2):
  XXX=             59.5004  YYY=             -1.1837  ZZZ=              0.6147  XYY=             -9.0037
  XXY=            -25.5679  XXZ=              2.9200  XZZ=             15.6201  YZZ=             -0.2623
  YYZ=              1.4481  XYZ=             -1.4228
 Hexadecapole moment (field-independent basis, Debye-Ang**3):
 XXXX=          -1735.7829 YYYY=           -788.5605 ZZZZ=           -374.7703 XXXY=           -114.7980
 XXXZ=            -12.8944 YYYX=             -4.2834 YYYZ=              0.5096 ZZZX=              3.4335
 ZZZY=             -2.6167 XXYY=           -486.1755 XXZZ=           -366.9730 YYZZ=           -206.1460
 XXYZ=             -4.7298 YYXZ=             -3.9132 ZZXY=             -3.2754
 N-N= 7.068079778397D+02 E-N=-2.573458754012D+03  KE= 4.954504762741D+02
  Exact polarizability:   0.000   0.000   0.000   0.000   0.000   0.000
 Approx polarizability: 227.275   0.159 111.226  -1.063  -4.042 191.104
 D2PCM: PCM CHGder 2nd derivatives, FixD1E=F FixD2E=F DoIter=F DoCFld=F I1PDM=0
 Calling FoFJK, ICntrl=    100147 FMM=F ISym2X=0 I1Cent= 0 IOpClX= 0 NMat=1 NMatS=1 NMatT=0.
 ***** Axes restored to original set *****
 -------------------------------------------------------------------
 Center     Atomic                   Forces (Hartrees/Bohr)
 Number     Number              X              Y              Z
 -------------------------------------------------------------------
      1        7           0.000197938    0.003622158    0.000918336
      2        6           0.010456885   -0.013871621   -0.003383163
      3        6          -0.010826307    0.001856757    0.010331937
      4        6           0.009684896    0.000220366   -0.001292311
      5        6           0.014700162   -0.000750047    0.006204313
      6        7          -0.025190954   -0.000036554   -0.003610831
      7        6          -0.005164253    0.001320159    0.006295935
      8        6           0.003407538   -0.004083325   -0.001467995
      9        6          -0.004678605   -0.003620568    0.005498557
     10        6           0.003087035    0.004383659    0.000037086
     11        6           0.009136933    0.000072127   -0.001245932
     12        6          -0.013246446    0.005475249   -0.007208540
     13        1           0.001545807   -0.000272754    0.003530471
     14        1           0.001034417    0.001171227   -0.003783887
     15        1           0.002050592    0.001157223   -0.000055926
     16        1          -0.000813142    0.000396581   -0.001551530
     17        1           0.000955955   -0.001215103   -0.004107155
     18        1           0.000996032    0.004753705    0.000458729
     19        1           0.000076729   -0.000336561   -0.000411407
     20        1          -0.000341719    0.000897409   -0.000661760
     21        1           0.000073906   -0.000019816    0.000753789
     22        1           0.001260160   -0.004538737   -0.001241660
     23        1           0.000772825    0.002695498   -0.003480424
     24        1          -0.000296349   -0.000686148   -0.000901541
     25        1           0.000090171    0.000452738   -0.000243614
     26        1           0.000060568   -0.000173989    0.000626467
     27        1          -0.000693035    0.000046134   -0.000179342
     28        1           0.001662262    0.001084230    0.000171399
 -------------------------------------------------------------------
 Cartesian Forces:  Max     0.025190954 RMS     0.005145311
 FormGI is forming the generalized inverse of G from B-inverse, IUseBI=4.

 GradGradGradGradGradGradGradGradGradGradGradGradGradGradGradGradGradGrad
 Berny optimization.
 Internal  Forces:  Max     0.024465649 RMS     0.003022367
 Search for a local minimum.
 Step number   1 out of a maximum of  148
 All quantities printed in internal units (Hartrees-Bohrs-Radians)
 Mixed Optimization -- RFO/linear search
 Second derivative matrix not updated -- analytic derivatives used.
 ITU=  0
     Eigenvalues ---    0.00223   0.00228   0.00309   0.00357   0.00492
     Eigenvalues ---    0.00544   0.01642   0.01748   0.01839   0.01907
     Eigenvalues ---    0.02206   0.02271   0.02316   0.02395   0.02654
     Eigenvalues ---    0.02763   0.02883   0.04455   0.04477   0.04535
     Eigenvalues ---    0.04559   0.04567   0.04644   0.05035   0.05090
     Eigenvalues ---    0.08168   0.08532   0.10946   0.11388   0.11478
     Eigenvalues ---    0.11677   0.11786   0.12298   0.12325   0.12625
     Eigenvalues ---    0.13612   0.13767   0.14000   0.15520   0.15864
     Eigenvalues ---    0.16068   0.17979   0.18729   0.18741   0.19280
     Eigenvalues ---    0.19830   0.21024   0.23498   0.23646   0.23958
     Eigenvalues ---    0.29193   0.29281   0.31665   0.31936   0.31967
     Eigenvalues ---    0.32577   0.33155   0.33723   0.33744   0.33796
     Eigenvalues ---    0.33831   0.34527   0.34548   0.35232   0.35304
     Eigenvalues ---    0.35700   0.35961   0.35994   0.36220   0.37338
     Eigenvalues ---    0.40995   0.42386   0.45515   0.46032   0.46135
     Eigenvalues ---    0.47397   0.47954   0.51911
 RFO step:  Lambda=-5.51680170D-03 EMin= 2.22884072D-03
 Linear search not attempted -- first point.
 Iteration  1 RMS(Cart)=  0.05049915 RMS(Int)=  0.00102497
 Iteration  2 RMS(Cart)=  0.00166972 RMS(Int)=  0.00026393
 Iteration  3 RMS(Cart)=  0.00000100 RMS(Int)=  0.00026393
 Variable       Old X    -DE/DX   Delta X   Delta X   Delta X     New X
                                 (Linear)    (Quad)   (Total)
    R1        2.64533   0.00250   0.00000  -0.00472  -0.00472   2.64061
    R2        1.91771  -0.00228   0.00000  -0.00471  -0.00471   1.91301
    R3        1.91827  -0.00253   0.00000  -0.00521  -0.00521   1.91305
    R4        2.63629   0.00889   0.00000   0.01934   0.01942   2.65571
    R5        2.63764   0.00899   0.00000   0.02114   0.02122   2.65887
    R6        2.64291  -0.00276   0.00000  -0.00892  -0.00892   2.63399
    R7        2.05230   0.00084   0.00000   0.00193   0.00193   2.05423
    R8        2.64407   0.00311   0.00000   0.00005  -0.00004   2.64403
    R9        2.05394  -0.00109   0.00000  -0.00172  -0.00172   2.05221
   R10        2.67072   0.02447   0.00000   0.05566   0.05566   2.72637
   R11        2.64438   0.00471   0.00000   0.00816   0.00808   2.65246
   R12        2.79407  -0.00145   0.00000  -0.00887  -0.00887   2.78519
   R13        2.79294  -0.00148   0.00000  -0.00835  -0.00835   2.78459
   R14        2.87883   0.00313   0.00000   0.00724   0.00724   2.88607
   R15        2.07276   0.00421   0.00000   0.01556   0.01556   2.08832
   R16        2.07345  -0.00062   0.00000  -0.00255  -0.00255   2.07090
   R17        2.06867   0.00039   0.00000   0.00023   0.00023   2.06890
   R18        2.06938  -0.00057   0.00000  -0.00088  -0.00088   2.06851
   R19        2.06824   0.00001   0.00000  -0.00097  -0.00097   2.06726
   R20        2.87909   0.00303   0.00000   0.00707   0.00707   2.88615
   R21        2.07343  -0.00065   0.00000  -0.00254  -0.00254   2.07089
   R22        2.07259   0.00427   0.00000   0.01565   0.01565   2.08824
   R23        2.06942  -0.00054   0.00000  -0.00082  -0.00082   2.06861
   R24        2.06864   0.00037   0.00000   0.00021   0.00021   2.06885
   R25        2.06833   0.00000   0.00000  -0.00104  -0.00104   2.06729
   R26        2.64526  -0.00437   0.00000  -0.01382  -0.01382   2.63143
   R27        2.05150   0.00053   0.00000   0.00209   0.00209   2.05358
   R28        2.05275   0.00072   0.00000   0.00191   0.00191   2.05467
    A1        1.98444   0.00218   0.00000   0.01374   0.01372   1.99816
    A2        1.98215   0.00238   0.00000   0.01566   0.01565   1.99780
    A3        1.96082  -0.00368   0.00000  -0.02613  -0.02616   1.93466
    A4        2.10023   0.00185   0.00000   0.01186   0.01020   2.11042
    A5        2.09979   0.00152   0.00000   0.00972   0.00804   2.10783
    A6        2.06836  -0.00280   0.00000  -0.00460  -0.00614   2.06222
    A7        2.10528  -0.00035   0.00000  -0.00075  -0.00072   2.10456
    A8        2.10238  -0.00179   0.00000  -0.01601  -0.01602   2.08635
    A9        2.07553   0.00215   0.00000   0.01676   0.01675   2.09227
   A10        2.11124   0.00309   0.00000   0.00912   0.00896   2.12019
   A11        2.08812  -0.00009   0.00000   0.00637   0.00641   2.09453
   A12        2.08374  -0.00300   0.00000  -0.01531  -0.01527   2.06847
   A13        2.06489   0.00548   0.00000   0.01932   0.01941   2.08429
   A14        2.06303  -0.00285   0.00000  -0.00676  -0.00701   2.05602
   A15        2.15514  -0.00263   0.00000  -0.01236  -0.01228   2.14287
   A16        1.96237   0.00265   0.00000   0.01141   0.01146   1.97383
   A17        1.96586   0.00242   0.00000   0.01089   0.01094   1.97680
   A18        1.98133  -0.00507   0.00000  -0.02483  -0.02484   1.95649
   A19        1.95139   0.00300   0.00000   0.01516   0.01514   1.96654
   A20        1.95138   0.00037   0.00000   0.00338   0.00339   1.95477
   A21        1.90017  -0.00435   0.00000  -0.03053  -0.03083   1.86934
   A22        1.92971  -0.00295   0.00000  -0.01985  -0.01975   1.90996
   A23        1.86870   0.00356   0.00000   0.03411   0.03429   1.90300
   A24        1.85791   0.00033   0.00000  -0.00208  -0.00203   1.85588
   A25        1.92158   0.00024   0.00000   0.00028   0.00028   1.92185
   A26        1.93762  -0.00167   0.00000  -0.00709  -0.00710   1.93051
   A27        1.95013   0.00081   0.00000  -0.00154  -0.00155   1.94858
   A28        1.88831   0.00060   0.00000   0.00392   0.00392   1.89223
   A29        1.87823  -0.00016   0.00000   0.00472   0.00472   1.88295
   A30        1.88579   0.00021   0.00000   0.00025   0.00023   1.88601
   A31        1.95010   0.00283   0.00000   0.01604   0.01602   1.96612
   A32        1.90007  -0.00433   0.00000  -0.03123  -0.03153   1.86854
   A33        1.95218   0.00053   0.00000   0.00442   0.00444   1.95662
   A34        1.86898   0.00360   0.00000   0.03387   0.03406   1.90304
   A35        1.92995  -0.00295   0.00000  -0.02025  -0.02015   1.90980
   A36        1.85803   0.00028   0.00000  -0.00279  -0.00273   1.85531
   A37        1.93734  -0.00169   0.00000  -0.00647  -0.00648   1.93086
   A38        1.92171   0.00029   0.00000   0.00010   0.00010   1.92180
   A39        1.95022   0.00076   0.00000  -0.00175  -0.00176   1.94846
   A40        1.88831   0.00061   0.00000   0.00398   0.00398   1.89229
   A41        1.88530   0.00026   0.00000   0.00074   0.00073   1.88602
   A42        1.87879  -0.00020   0.00000   0.00390   0.00390   1.88269
   A43        2.10684   0.00307   0.00000   0.00940   0.00923   2.11607
   A44        2.10243  -0.00202   0.00000  -0.01019  -0.01015   2.09228
   A45        2.07381  -0.00104   0.00000   0.00098   0.00102   2.07483
   A46        2.10830  -0.00001   0.00000  -0.00117  -0.00114   2.10716
   A47        2.09844  -0.00156   0.00000  -0.01440  -0.01441   2.08403
   A48        2.07645   0.00157   0.00000   0.01557   0.01555   2.09200
    D1       -2.79439   0.00212   0.00000   0.05668   0.05699  -2.73741
    D2        0.53396  -0.00115   0.00000  -0.04889  -0.04922   0.48474
    D3       -0.52320   0.00112   0.00000   0.04668   0.04701  -0.47619
    D4        2.80516  -0.00215   0.00000  -0.05889  -0.05920   2.74596
    D5       -3.04424  -0.00157   0.00000  -0.03724  -0.03717  -3.08142
    D6        0.09951  -0.00153   0.00000  -0.03789  -0.03778   0.06173
    D7       -0.08610   0.00209   0.00000   0.06793   0.06778  -0.01832
    D8        3.05765   0.00213   0.00000   0.06728   0.06717   3.12482
    D9        3.04348   0.00162   0.00000   0.03773   0.03753   3.08101
   D10       -0.09857   0.00156   0.00000   0.03810   0.03794  -0.06063
   D11        0.08529  -0.00208   0.00000  -0.06764  -0.06749   0.01780
   D12       -3.05676  -0.00213   0.00000  -0.06727  -0.06709  -3.12385
   D13        0.03719  -0.00079   0.00000  -0.02929  -0.02933   0.00785
   D14       -3.11892  -0.00044   0.00000  -0.01554  -0.01546  -3.13438
   D15       -3.10653  -0.00083   0.00000  -0.02870  -0.02876  -3.13530
   D16        0.02054  -0.00048   0.00000  -0.01494  -0.01489   0.00566
   D17        3.13954   0.00006   0.00000   0.00271   0.00279  -3.14085
   D18        0.01418  -0.00037   0.00000  -0.01058  -0.01061   0.00357
   D19        0.01243  -0.00032   0.00000  -0.01118  -0.01105   0.00137
   D20       -3.11293  -0.00075   0.00000  -0.02447  -0.02446  -3.13739
   D21       -1.97384  -0.00163   0.00000  -0.02081  -0.02081  -1.99465
   D22        2.04408   0.00097   0.00000  -0.00583  -0.00589   2.03818
   D23        1.15059  -0.00117   0.00000  -0.00669  -0.00663   1.14397
   D24       -1.11467   0.00143   0.00000   0.00829   0.00829  -1.10639
   D25       -0.01511   0.00036   0.00000   0.01096   0.01098  -0.00412
   D26        3.11073   0.00074   0.00000   0.02554   0.02549   3.13622
   D27       -3.13956  -0.00017   0.00000  -0.00339  -0.00322   3.14040
   D28       -0.01372   0.00021   0.00000   0.01119   0.01129  -0.00244
   D29        1.21296  -0.00253   0.00000  -0.06326  -0.06310   1.14986
   D30       -0.96138  -0.00120   0.00000  -0.05119  -0.05114  -1.01252
   D31       -3.00916   0.00090   0.00000  -0.03149  -0.03165  -3.04081
   D32       -2.81294  -0.00125   0.00000  -0.05976  -0.05963  -2.87257
   D33        1.29591   0.00008   0.00000  -0.04770  -0.04768   1.24823
   D34       -0.75187   0.00218   0.00000  -0.02799  -0.02819  -0.78006
   D35       -1.20053   0.00254   0.00000   0.06048   0.06031  -1.14022
   D36        3.02208  -0.00085   0.00000   0.02893   0.02909   3.05118
   D37        0.97374   0.00122   0.00000   0.04936   0.04932   1.02306
   D38        2.82713   0.00116   0.00000   0.05676   0.05662   2.88376
   D39        0.76656  -0.00223   0.00000   0.02520   0.02540   0.79197
   D40       -1.28178  -0.00017   0.00000   0.04564   0.04563  -1.23615
   D41        3.02413  -0.00058   0.00000   0.02094   0.02107   3.04520
   D42        0.93350  -0.00042   0.00000   0.02041   0.02055   0.95405
   D43       -1.17300  -0.00009   0.00000   0.02605   0.02618  -1.14682
   D44       -1.07269  -0.00009   0.00000   0.02163   0.02166  -1.05103
   D45        3.11987   0.00007   0.00000   0.02110   0.02113   3.14100
   D46        1.01337   0.00039   0.00000   0.02674   0.02676   1.04014
   D47        0.94436   0.00077   0.00000   0.02803   0.02787   0.97223
   D48       -1.14626   0.00092   0.00000   0.02750   0.02735  -1.11892
   D49        3.03042   0.00125   0.00000   0.03314   0.03298   3.06340
   D50       -0.93822   0.00050   0.00000  -0.01643  -0.01657  -0.95478
   D51       -3.02875   0.00063   0.00000  -0.01731  -0.01744  -3.04620
   D52        1.16753   0.00019   0.00000  -0.02114  -0.02127   1.14625
   D53        1.14086  -0.00090   0.00000  -0.02407  -0.02391   1.11695
   D54       -0.94967  -0.00077   0.00000  -0.02495  -0.02479  -0.97446
   D55       -3.03658  -0.00121   0.00000  -0.02878  -0.02862  -3.06519
   D56       -3.12485  -0.00007   0.00000  -0.01884  -0.01887   3.13947
   D57        1.06780   0.00006   0.00000  -0.01972  -0.01975   1.04805
   D58       -1.01910  -0.00039   0.00000  -0.02356  -0.02358  -1.04268
   D59       -0.03531   0.00079   0.00000   0.02852   0.02858  -0.00673
   D60        3.10673   0.00084   0.00000   0.02816   0.02818   3.13491
   D61        3.12178   0.00042   0.00000   0.01427   0.01431   3.13609
   D62       -0.01936   0.00047   0.00000   0.01391   0.01391  -0.00545
         Item               Value     Threshold  Converged?
 Maximum Force            0.024466     0.000450     NO 
 RMS     Force            0.003022     0.000300     NO 
 Maximum Displacement     0.174022     0.001800     NO 
 RMS     Displacement     0.050592     0.001200     NO 
 Predicted change in Energy=-3.017870D-03
 GradGradGradGradGradGradGradGradGradGradGradGradGradGradGradGradGradGrad

                          Input orientation:                          
 ---------------------------------------------------------------------
 Center     Atomic      Atomic             Coordinates (Angstroms)
 Number     Number       Type             X           Y           Z
 ---------------------------------------------------------------------
      1          7           0        4.252096    0.064481   -0.259172
      2          6           0        2.859543    0.084288   -0.145169
      3          6           0        2.231605   -0.187096    1.082444
      4          6           0        0.841521   -0.235877    1.172444
      5          6           0        0.029124   -0.027640    0.052489
      6          7           0       -1.405171   -0.087332    0.196415
      7          6           0       -2.013008   -1.214156   -0.533699
      8          6           0       -1.599451   -2.572197    0.029470
      9          6           0       -2.073699    1.191536   -0.101730
     10          6           0       -1.709618    2.291527    0.893291
     11          6           0        0.659612    0.229539   -1.174905
     12          6           0        2.047385    0.281389   -1.277086
     13          1           0        4.617715    0.608639   -1.030539
     14          1           0        4.746034    0.277905    0.598332
     15          1           0        2.837966   -0.358641    1.968212
     16          1           0        0.365902   -0.439739    2.127216
     17          1           0       -1.784007   -1.179040   -1.614231
     18          1           0       -3.100011   -1.106625   -0.445366
     19          1           0       -2.148087   -3.372775   -0.477176
     20          1           0       -1.817579   -2.627714    1.100685
     21          1           0       -0.530295   -2.757822   -0.108998
     22          1           0       -3.153168    1.008914   -0.053501
     23          1           0       -1.863815    1.540953   -1.128859
     24          1           0       -1.912134    1.966448    1.918761
     25          1           0       -2.300227    3.191228    0.692585
     26          1           0       -0.651858    2.562396    0.826002
     27          1           0        0.061224    0.391276   -2.067491
     28          1           0        2.512402    0.476135   -2.240423
 ---------------------------------------------------------------------
                    Distance matrix (angstroms):
                    1          2          3          4          5
     1  N    0.000000
     2  C    1.397352   0.000000
     3  C    2.438362   1.405344   0.000000
     4  C    3.711032   2.431259   1.393848   0.000000
     5  C    4.235459   2.839519   2.436628   1.399160   0.000000
     6  N    5.677611   4.281812   3.744481   2.454042   1.442733
     7  C    6.400141   5.057535   4.656555   3.466451   2.433462
     8  C    6.424639   5.193269   4.634054   3.566949   3.021185
     9  C    6.427342   5.056160   4.673172   3.487052   2.435577
    10  C    6.467607   5.179530   4.659677   3.601945   3.018064
    11  C    3.711031   2.433341   2.782152   2.399948   1.403621
    12  C    2.438021   1.407013   2.412634   2.778825   2.436524
    13  H    1.012320   2.037153   3.285029   4.452637   4.757411
    14  H    1.012343   2.036942   2.602488   3.979799   4.758208
    15  H    2.672085   2.159406   1.087054   2.152699   3.416014
    16  H    4.588201   3.414174   2.153189   1.085985   2.141901
    17  H    6.310077   5.031570   4.937727   3.943160   2.718662
    18  H    7.447122   6.084790   5.621909   4.348699   3.347171
    19  H    7.268053   6.094085   5.635838   4.636715   4.026254
    20  H    6.777764   5.548205   4.727879   3.577268   3.356995
    21  H    5.555107   4.423788   3.956799   3.143911   2.791581
    22  H    7.468078   6.084080   5.631749   4.360044   3.348531
    23  H    6.351432   5.039804   4.964724   3.971393   2.727505
    24  H    6.808715   5.529126   4.744233   3.604142   3.350797
    25  H    7.322249   6.080965   5.665913   4.673959   4.024514
    26  H    5.609451   4.406146   3.992471   3.190695   2.787534
    27  H    4.576049   3.408834   3.868741   3.391071   2.161212
    28  H    2.668586   2.159662   3.400025   3.866066   3.417295
                    6          7          8          9         10
     6  N    0.000000
     7  C    1.473860   0.000000
     8  C    2.498033   1.527241   0.000000
     9  C    1.473541   2.444920   3.795762   0.000000
    10  C    2.497458   3.797125   4.941067   1.527286   0.000000
    11  C    2.498850   3.104561   3.795209   3.090005   3.760649
    12  C    3.771910   4.390452   4.811388   4.381001   4.781869
    13  H    6.185866   6.894629   7.063603   6.780669   6.824103
    14  H    6.175132   7.013728   6.979389   6.916181   6.768835
    15  H    4.606201   5.524800   5.324399   5.550871   5.372092
    16  H    2.643650   3.652315   3.579181   3.685229   3.645569
    17  H    2.147972   1.105091   2.162568   2.826874   4.282294
    18  H    2.079260   1.095874   2.150593   2.540265   3.908021
    19  H    3.435082   2.163580   1.094813   4.580331   5.844207
    20  H    2.727880   2.169689   1.094607   4.012240   4.924795
    21  H    2.826695   2.182135   1.093949   4.240233   5.281223
    22  H    2.078391   2.544129   3.904520   1.095870   2.150662
    23  H    2.148958   2.822605   4.281311   1.105052   2.162459
    24  H    2.727911   4.017583   4.926103   2.170017   1.094659
    25  H    3.434569   4.581885   5.843619   2.163566   1.094789
    26  H    2.825760   4.238380   5.281709   2.182104   1.093963
    27  H    2.739461   3.038481   3.992150   3.010403   3.938663
    28  H    4.647908   5.123410   5.599293   5.110590   5.562488
                   11         12         13         14         15
    11  C    0.000000
    12  C    1.392495   0.000000
    13  H    3.978836   2.602782   0.000000
    14  H    4.454835   3.286322   1.667055   0.000000
    15  H    3.869156   3.400973   3.618791   2.433615   0.000000
    16  H    3.382041   3.864801   5.398928   4.694470   2.478499
    17  H    2.854536   4.114132   6.672221   7.046954   5.905048
    18  H    4.056146   5.395741   7.927663   8.035337   6.453248
    19  H    4.620245   5.620921   7.869812   7.874838   6.318675
    20  H    4.413466   5.390234   7.511931   7.195554   5.251228
    21  H    3.387678   4.152791   6.219671   6.128263   4.627749
    22  H    4.049971   5.391865   7.842285   7.959689   6.469252
    23  H    2.844224   4.111686   6.548977   6.947560   5.941974
    24  H    4.381952   5.360099   7.292527   6.994706   5.288850
    25  H    4.584732   5.590036   7.582667   7.625361   6.374153
    26  H    3.341528   4.112407   5.918809   5.865831   4.692118
    27  H    1.086709   2.140479   4.678047   5.391374   4.955762
    28  H    2.151504   1.087283   2.431814   3.617588   4.302959
                   16         17         18         19         20
    16  H    0.000000
    17  H    4.378025   0.000000
    18  H    4.367547   1.761635   0.000000
    19  H    4.658938   2.497583   2.458172   0.000000
    20  H    3.257084   3.077427   2.519646   1.775949   0.000000
    21  H    3.343252   2.515963   3.072952   1.769455   1.771259
    22  H    4.386113   3.016227   2.152182   4.515406   4.042402
    23  H    4.415519   2.764113   3.000835   4.964900   4.727663
    24  H    3.320036   4.732077   4.055111   5.856918   4.667389
    25  H    4.727614   4.968615   4.517314   6.669155   5.853169
    26  H    3.426632   4.608129   4.590376   6.258054   5.326501
    27  H    4.287072   2.464998   3.855956   4.645238   4.762514
    28  H    4.952026   4.646596   6.101355   6.296293   6.288531
                   21         22         23         24         25
    21  H    0.000000
    22  H    4.590299   0.000000
    23  H    4.614961   1.761219   0.000000
    24  H    5.323534   2.519297   3.077559   0.000000
    25  H    6.258306   2.458993   2.496301   1.776010   0.000000
    26  H    5.403122   3.073010   2.516678   1.771320   1.769280
    27  H    3.755318   3.843169   2.430753   4.718635   4.586306
    28  H    4.925389   6.096324   4.639040   6.252709   6.255851
                   26         27         28
    26  H    0.000000
    27  H    3.687079   0.000000
    28  H    4.875243   2.458736   0.000000
 Stoichiometry    C10H16N2
 Framework group  C1[X(C10H16N2)]
 Deg. of freedom    78
 Full point group                 C1      NOp   1
 Largest Abelian subgroup         C1      NOp   1
 Largest concise Abelian subgroup C1      NOp   1
                         Standard orientation:                         
 ---------------------------------------------------------------------
 Center     Atomic      Atomic             Coordinates (Angstroms)
 Number     Number       Type             X           Y           Z
 ---------------------------------------------------------------------
      1          7           0        3.998839    0.078202    0.080073
      2          6           0        2.604326    0.001599    0.034688
      3          6           0        1.917697    0.055100   -1.190330
      4          6           0        0.524242    0.050088   -1.223056
      5          6           0       -0.233983    0.001519   -0.048158
      6          7           0       -1.674168   -0.002603   -0.133773
      7          6           0       -2.290545    1.209310    0.435094
      8          6           0       -1.947881    2.470504   -0.355118
      9          6           0       -2.285019   -1.235261    0.394184
     10          6           0       -1.923803   -2.469951   -0.429020
     11          6           0        0.454689   -0.037930    1.174268
[...]
 Evaluate density.
 Using the total density.
 Monte-Carlo method of calculating molar volume:
 based on  0.001 e/bohr**3 density envelope.
 Number of points per bohr**3 =   20 CutOff= 1.00D-04
 Using the CI density.
 There are       422 points.  Will hold       422 in memory.
 LenV=  1073562556 MDV=  1073741824.
 Box volume = 9460.615 fraction occupied=0.152
 Integrated density= 5.2536888513044318D+01 error=-3.7463111486955682D+01
 Molar volume = 1434.785 bohr**3/mol (128.039 cm**3/mol)
 Recommended a0 for SCRF calculation =  4.58 angstrom (  8.65 bohr)
 ******************************Gaussian NBO Version 3.1******************************
             N A T U R A L   A T O M I C   O R B I T A L   A N D
          N A T U R A L   B O N D   O R B I T A L   A N A L Y S I S
 ******************************Gaussian NBO Version 3.1******************************
       /RESON  / : Allow strongly delocalized NBO set

 Analyzing the CI density

 Job title: QNGVNLMMEQUVQK-UHFFFAOYSA-N_conf_3                              

 Storage needed:    205440 in NPA (1073737624 available)
 GSVD:  LWork=       37840 too small for GESVD, short by       20600 words or       20600 for optimal perf.


 NATURAL POPULATIONS:  Natural atomic orbital occupancies 
                                                          
   NAO  Atom  No  lang   Type(AO)    Occupancy
 --------------------------------------------
     1    N    1  S      Cor( 1S)     1.99946
     2    N    1  S      Val( 2S)     1.37555
     3    N    1  S      Ryd( 3S)     0.00011
     4    N    1  S      Ryd( 4S)     0.00001
     5    N    1  px     Val( 2p)     1.32907
     6    N    1  px     Ryd( 3p)     0.00188
     7    N    1  py     Val( 2p)     1.52346
     8    N    1  py     Ryd( 3p)     0.00258
     9    N    1  pz     Val( 2p)     1.43242
    10    N    1  pz     Ryd( 3p)     0.00202
    11    N    1  dxy    Ryd( 3d)     0.00089
    12    N    1  dxz    Ryd( 3d)     0.00043
    13    N    1  dyz    Ryd( 3d)     0.00083
    14    N    1  dx2y2  Ryd( 3d)     0.00066
    15    N    1  dz2    Ryd( 3d)     0.00037

    16    C    2  S      Cor( 1S)     1.99897
    17    C    2  S      Val( 2S)     0.85689
    18    C    2  S      Ryd( 3S)     0.00133
    19    C    2  S      Ryd( 4S)     0.00009
    20    C    2  px     Val( 2p)     0.88815
    21    C    2  px     Ryd( 3p)     0.00543
    22    C    2  py     Val( 2p)     0.95349
    23    C    2  py     Ryd( 3p)     0.00172
    24    C    2  pz     Val( 2p)     1.10553
    25    C    2  pz     Ryd( 3p)     0.00459
    26    C    2  dxy    Ryd( 3d)     0.00113
    27    C    2  dxz    Ryd( 3d)     0.00085
    28    C    2  dyz    Ryd( 3d)     0.00149
    29    C    2  dx2y2  Ryd( 3d)     0.00080
    30    C    2  dz2    Ryd( 3d)     0.00087

    31    C    3  S      Cor( 1S)     1.99906
    32    C    3  S      Val( 2S)     0.94949
    33    C    3  S      Ryd( 3S)     0.00061
    34    C    3  S      Ryd( 4S)     0.00004
    35    C    3  px     Val( 2p)     1.10267
    36    C    3  px     Ryd( 3p)     0.00464
    37    C    3  py     Val( 2p)     1.14063
    38    C    3  py     Ryd( 3p)     0.00754
    39    C    3  pz     Val( 2p)     1.13754
    40    C    3  pz     Ryd( 3p)     0.00439
    41    C    3  dxy    Ryd( 3d)     0.00059
    42    C    3  dxz    Ryd( 3d)     0.00072
    43    C    3  dyz    Ryd( 3d)     0.00035
    44    C    3  dx2y2  Ryd( 3d)     0.00040
    45    C    3  dz2    Ryd( 3d)     0.00053

    46    C    4  S      Cor( 1S)     1.99902
    47    C    4  S      Val( 2S)     0.95211
    48    C    4  S      Ryd( 3S)     0.00085
    49    C    4  S      Ryd( 4S)     0.00005
    50    C    4  px     Val( 2p)     1.08549
    51    C    4  px     Ryd( 3p)     0.00498
    52    C    4  py     Val( 2p)     1.10874
    53    C    4  py     Ryd( 3p)     0.00621
    54    C    4  pz     Val( 2p)     1.16549
    55    C    4  pz     Ryd( 3p)     0.00512
    56    C    4  dxy    Ryd( 3d)     0.00059
    57    C    4  dxz    Ryd( 3d)     0.00066
    58    C    4  dyz    Ryd( 3d)     0.00036
    59    C    4  dx2y2  Ryd( 3d)     0.00040
    60    C    4  dz2    Ryd( 3d)     0.00058

    61    C    5  S      Cor( 1S)     1.99895
    62    C    5  S      Val( 2S)     0.85533
    63    C    5  S      Ryd( 3S)     0.00162
    64    C    5  S      Ryd( 4S)     0.00010
    65    C    5  px     Val( 2p)     0.89852
    66    C    5  px     Ryd( 3p)     0.00575
    67    C    5  py     Val( 2p)     0.90498
    68    C    5  py     Ryd( 3p)     0.00416
    69    C    5  pz     Val( 2p)     1.08674
    70    C    5  pz     Ryd( 3p)     0.00676
    71    C    5  dxy    Ryd( 3d)     0.00074
    72    C    5  dxz    Ryd( 3d)     0.00157
    73    C    5  dyz    Ryd( 3d)     0.00121
    74    C    5  dx2y2  Ryd( 3d)     0.00079
    75    C    5  dz2    Ryd( 3d)     0.00078

    76    N    6  S      Cor( 1S)     1.99940
    77    N    6  S      Val( 2S)     1.26953
    78    N    6  S      Ryd( 3S)     0.00103
    79    N    6  S      Ryd( 4S)     0.00003
    80    N    6  px     Val( 2p)     1.25555
    81    N    6  px     Ryd( 3p)     0.00194
    82    N    6  py     Val( 2p)     1.23183
    83    N    6  py     Ryd( 3p)     0.00191
    84    N    6  pz     Val( 2p)     1.76989
    85    N    6  pz     Ryd( 3p)     0.00776
    86    N    6  dxy    Ryd( 3d)     0.00050
    87    N    6  dxz    Ryd( 3d)     0.00076
    88    N    6  dyz    Ryd( 3d)     0.00115
    89    N    6  dx2y2  Ryd( 3d)     0.00081
    90    N    6  dz2    Ryd( 3d)     0.00114

    91    C    7  S      Cor( 1S)     1.99935
    92    C    7  S      Val( 2S)     1.01809
    93    C    7  S      Ryd( 3S)     0.00150
    94    C    7  S      Ryd( 4S)     0.00003
    95    C    7  px     Val( 2p)     1.15844
    96    C    7  px     Ryd( 3p)     0.00336
    97    C    7  py     Val( 2p)     0.91372
    98    C    7  py     Ryd( 3p)     0.00207
    99    C    7  pz     Val( 2p)     1.15172
   100    C    7  pz     Ryd( 3p)     0.00224
   101    C    7  dxy    Ryd( 3d)     0.00082
   102    C    7  dxz    Ryd( 3d)     0.00033
   103    C    7  dyz    Ryd( 3d)     0.00113
   104    C    7  dx2y2  Ryd( 3d)     0.00116
   105    C    7  dz2    Ryd( 3d)     0.00141

   106    C    8  S      Cor( 1S)     1.99946
   107    C    8  S      Val( 2S)     1.10724
   108    C    8  S      Ryd( 3S)     0.00037
   109    C    8  S      Ryd( 4S)     0.00001
   110    C    8  px     Val( 2p)     1.23945
   111    C    8  px     Ryd( 3p)     0.00152
   112    C    8  py     Val( 2p)     1.13558
   113    C    8  py     Ryd( 3p)     0.00168
   114    C    8  pz     Val( 2p)     1.20683
   115    C    8  pz     Ryd( 3p)     0.00144
   116    C    8  dxy    Ryd( 3d)     0.00050
   117    C    8  dxz    Ryd( 3d)     0.00023
   118    C    8  dyz    Ryd( 3d)     0.00049
   119    C    8  dx2y2  Ryd( 3d)     0.00066
   120    C    8  dz2    Ryd( 3d)     0.00086

   121    C    9  S      Cor( 1S)     1.99935
   122    C    9  S      Val( 2S)     1.01820
   123    C    9  S      Ryd( 3S)     0.00150
   124    C    9  S      Ryd( 4S)     0.00003
   125    C    9  px     Val( 2p)     1.16040
   126    C    9  px     Ryd( 3p)     0.00335
   127    C    9  py     Val( 2p)     0.91168
   128    C    9  py     Ryd( 3p)     0.00205
   129    C    9  pz     Val( 2p)     1.15150
   130    C    9  pz     Ryd( 3p)     0.00224
   131    C    9  dxy    Ryd( 3d)     0.00081
   132    C    9  dxz    Ryd( 3d)     0.00032
   133    C    9  dyz    Ryd( 3d)     0.00113
   134    C    9  dx2y2  Ryd( 3d)     0.00117
   135    C    9  dz2    Ryd( 3d)     0.00141

   136    C   10  S      Cor( 1S)     1.99946
   137    C   10  S      Val( 2S)     1.10719
   138    C   10  S      Ryd( 3S)     0.00037
   139    C   10  S      Ryd( 4S)     0.00001
   140    C   10  px     Val( 2p)     1.23884
   141    C   10  px     Ryd( 3p)     0.00150
   142    C   10  py     Val( 2p)     1.13615
   143    C   10  py     Ryd( 3p)     0.00168
   144    C   10  pz     Val( 2p)     1.20697
   145    C   10  pz     Ryd( 3p)     0.00143
   146    C   10  dxy    Ryd( 3d)     0.00049
   147    C   10  dxz    Ryd( 3d)     0.00023
   148    C   10  dyz    Ryd( 3d)     0.00049
   149    C   10  dx2y2  Ryd( 3d)     0.00067
   150    C   10  dz2    Ryd( 3d)     0.00086

   151    C   11  S      Cor( 1S)     1.99902
   152    C   11  S      Val( 2S)     0.94761
   153    C   11  S      Ryd( 3S)     0.00092
   154    C   11  S      Ryd( 4S)     0.00006
   155    C   11  px     Val( 2p)     1.09701
   156    C   11  px     Ryd( 3p)     0.00376
   157    C   11  py     Val( 2p)     1.14230
   158    C   11  py     Ryd( 3p)     0.00693
   159    C   11  pz     Val( 2p)     1.16455
   160    C   11  pz     Ryd( 3p)     0.00468
   161    C   11  dxy    Ryd( 3d)     0.00056
   162    C   11  dxz    Ryd( 3d)     0.00064
   163    C   11  dyz    Ryd( 3d)     0.00035
   164    C   11  dx2y2  Ryd( 3d)     0.00040
   165    C   11  dz2    Ryd( 3d)     0.00058

   166    C   12  S      Cor( 1S)     1.99906
   167    C   12  S      Val( 2S)     0.94931
   168    C   12  S      Ryd( 3S)     0.00069
   169    C   12  S      Ryd( 4S)     0.00003
   170    C   12  px     Val( 2p)     1.09230
   171    C   12  px     Ryd( 3p)     0.00479
   172    C   12  py     Val( 2p)     1.13006
   173    C   12  py     Ryd( 3p)     0.00733
   174    C   12  pz     Val( 2p)     1.14632
   175    C   12  pz     Ryd( 3p)     0.00448
   176    C   12  dxy    Ryd( 3d)     0.00065
   177    C   12  dxz    Ryd( 3d)     0.00074
   178    C   12  dyz    Ryd( 3d)     0.00033
   179    C   12  dx2y2  Ryd( 3d)     0.00039
   180    C   12  dz2    Ryd( 3d)     0.00053

   181    H   13  S      Val( 1S)     0.56579
   182    H   13  S      Ryd( 2S)     0.00179
   183    H   13  px     Ryd( 2p)     0.00028
   184    H   13  py     Ryd( 2p)     0.00045
   185    H   13  pz     Ryd( 2p)     0.00049

   186    H   14  S      Val( 1S)     0.56617
   187    H   14  S      Ryd( 2S)     0.00192
   188    H   14  px     Ryd( 2p)     0.00030
   189    H   14  py     Ryd( 2p)     0.00045
   190    H   14  pz     Ryd( 2p)     0.00047

   191    H   15  S      Val( 1S)     0.76526
   192    H   15  S      Ryd( 2S)     0.00119
   193    H   15  px     Ryd( 2p)     0.00014
   194    H   15  py     Ryd( 2p)     0.00022
   195    H   15  pz     Ryd( 2p)     0.00031

   196    H   16  S      Val( 1S)     0.76140
   197    H   16  S      Ryd( 2S)     0.00152
   198    H   16  px     Ryd( 2p)     0.00015
   199    H   16  py     Ryd( 2p)     0.00019
   200    H   16  pz     Ryd( 2p)     0.00030

   201    H   17  S      Val( 1S)     0.79053
   202    H   17  S      Ryd( 2S)     0.00331
   203    H   17  px     Ryd( 2p)     0.00010
   204    H   17  py     Ryd( 2p)     0.00008
   205    H   17  pz     Ryd( 2p)     0.00038

   206    H   18  S      Val( 1S)     0.76273
   207    H   18  S      Ryd( 2S)     0.00144
   208    H   18  px     Ryd( 2p)     0.00038
   209    H   18  py     Ryd( 2p)     0.00008
   210    H   18  pz     Ryd( 2p)     0.00009

   211    H   19  S      Val( 1S)     0.75925
   212    H   19  S      Ryd( 2S)     0.00095
   213    H   19  px     Ryd( 2p)     0.00015
   214    H   19  py     Ryd( 2p)     0.00026
   215    H   19  pz     Ryd( 2p)     0.00011

   216    H   20  S      Val( 1S)     0.76541
   217    H   20  S      Ryd( 2S)     0.00177
   218    H   20  px     Ryd( 2p)     0.00009
   219    H   20  py     Ryd( 2p)     0.00008
   220    H   20  pz     Ryd( 2p)     0.00033

   221    H   21  S      Val( 1S)     0.76366
   222    H   21  S      Ryd( 2S)     0.00094
   223    H   21  px     Ryd( 2p)     0.00034
   224    H   21  py     Ryd( 2p)     0.00010
   225    H   21  pz     Ryd( 2p)     0.00009

   226    H   22  S      Val( 1S)     0.76271
   227    H   22  S      Ryd( 2S)     0.00144
   228    H   22  px     Ryd( 2p)     0.00038
   229    H   22  py     Ryd( 2p)     0.00008
   230    H   22  pz     Ryd( 2p)     0.00009

   231    H   23  S      Val( 1S)     0.79049
   232    H   23  S      Ryd( 2S)     0.00329
   233    H   23  px     Ryd( 2p)     0.00010
   234    H   23  py     Ryd( 2p)     0.00008
   235    H   23  pz     Ryd( 2p)     0.00038

   236    H   24  S      Val( 1S)     0.76536
   237    H   24  S      Ryd( 2S)     0.00176
   238    H   24  px     Ryd( 2p)     0.00009
   239    H   24  py     Ryd( 2p)     0.00008
   240    H   24  pz     Ryd( 2p)     0.00033

   241    H   25  S      Val( 1S)     0.75925
   242    H   25  S      Ryd( 2S)     0.00095
   243    H   25  px     Ryd( 2p)     0.00014
   244    H   25  py     Ryd( 2p)     0.00026
   245    H   25  pz     Ryd( 2p)     0.00011

   246    H   26  S      Val( 1S)     0.76370
   247    H   26  S      Ryd( 2S)     0.00094
   248    H   26  px     Ryd( 2p)     0.00034
   249    H   26  py     Ryd( 2p)     0.00010
   250    H   26  pz     Ryd( 2p)     0.00009

   251    H   27  S      Val( 1S)     0.76458
   252    H   27  S      Ryd( 2S)     0.00094
   253    H   27  px     Ryd( 2p)     0.00015
   254    H   27  py     Ryd( 2p)     0.00023
   255    H   27  pz     Ryd( 2p)     0.00029

   256    H   28  S      Val( 1S)     0.76615
   257    H   28  S      Ryd( 2S)     0.00122
   258    H   28  px     Ryd( 2p)     0.00013
   259    H   28  py     Ryd( 2p)     0.00021
   260    H   28  pz     Ryd( 2p)     0.00033

 WARNING:  1 low occupancy (<1.9990e) core orbital  found on  C    2
           1 low occupancy (<1.9990e) core orbital  found on  C    5


 Summary of Natural Population Analysis:                  
                                                          
                                       Natural Population 
                Natural  -----------------------------------------------
    Atom  No    Charge         Core      Valence    Rydberg      Total
 -----------------------------------------------------------------------
      N    1   -0.66972      1.99946     5.66050    0.00976     7.66972
      C    2    0.17867      1.99897     3.80406    0.01830     5.82133
      C    3   -0.34919      1.99906     4.33033    0.01980     6.34919
      C    4   -0.33066      1.99902     4.31183    0.01981     6.33066
      C    5    0.23201      1.99895     3.74557    0.02347     5.76799
      N    6   -0.54323      1.99940     5.52680    0.01703     7.54323
      C    7   -0.25536      1.99935     4.24196    0.01405     6.25536
      C    8   -0.69633      1.99946     4.68910    0.00776     6.69633
      C    9   -0.25517      1.99935     4.24178    0.01404     6.25517
      C   10   -0.69637      1.99946     4.68916    0.00775     6.69637
      C   11   -0.36936      1.99902     4.35146    0.01887     6.36936
      C   12   -0.33700      1.99906     4.31799    0.01995     6.33700
      H   13    0.43120      0.00000     0.56579    0.00301     0.56880
      H   14    0.43069      0.00000     0.56617    0.00314     0.56931
      H   15    0.23288      0.00000     0.76526    0.00186     0.76712
      H   16    0.23643      0.00000     0.76140    0.00217     0.76357
      H   17    0.20558      0.00000     0.79053    0.00388     0.79442
      H   18    0.23528      0.00000     0.76273    0.00199     0.76472
      H   19    0.23928      0.00000     0.75925    0.00147     0.76072
      H   20    0.23230      0.00000     0.76541    0.00228     0.76770
      H   21    0.23487      0.00000     0.76366    0.00147     0.76513
      H   22    0.23529      0.00000     0.76271    0.00199     0.76471
      H   23    0.20565      0.00000     0.79049    0.00386     0.79435
      H   24    0.23237      0.00000     0.76536    0.00227     0.76763
      H   25    0.23928      0.00000     0.75925    0.00147     0.76072
      H   26    0.23483      0.00000     0.76370    0.00147     0.76517
      H   27    0.23381      0.00000     0.76458    0.00161     0.76619
      H   28    0.23196      0.00000     0.76615    0.00189     0.76804
 =======================================================================
   * Total *    0.00000     23.99056    65.78301    0.22643    90.00000

                                 Natural Population      
 --------------------------------------------------------
   Core                      23.99056 ( 99.9607% of  24)
   Valence                   65.78301 ( 99.6712% of  66)
   Natural Minimal Basis     89.77357 ( 99.7484% of  90)
   Natural Rydberg Basis      0.22643 (  0.2516% of  90)
 --------------------------------------------------------

    Atom  No          Natural Electron Configuration
 ----------------------------------------------------------------------------
      N    1      [core]2S( 1.38)2p( 4.28)3p( 0.01)
      C    2      [core]2S( 0.86)2p( 2.95)3p( 0.01)3d( 0.01)
      C    3      [core]2S( 0.95)2p( 3.38)3p( 0.02)
      C    4      [core]2S( 0.95)2p( 3.36)3p( 0.02)
      C    5      [core]2S( 0.86)2p( 2.89)3p( 0.02)3d( 0.01)
      N    6      [core]2S( 1.27)2p( 4.26)3p( 0.01)
      C    7      [core]2S( 1.02)2p( 3.22)3p( 0.01)
      C    8      [core]2S( 1.11)2p( 3.58)
      C    9      [core]2S( 1.02)2p( 3.22)3p( 0.01)
      C   10      [core]2S( 1.11)2p( 3.58)
      C   11      [core]2S( 0.95)2p( 3.40)3p( 0.02)
      C   12      [core]2S( 0.95)2p( 3.37)3p( 0.02)
      H   13            1S( 0.57)
      H   14            1S( 0.57)
      H   15            1S( 0.77)
      H   16            1S( 0.76)
      H   17            1S( 0.79)
      H   18            1S( 0.76)
      H   19            1S( 0.76)
      H   20            1S( 0.77)
      H   21            1S( 0.76)
      H   22            1S( 0.76)
      H   23            1S( 0.79)
      H   24            1S( 0.77)
      H   25            1S( 0.76)
      H   26            1S( 0.76)
      H   27            1S( 0.76)
      H   28            1S( 0.77)


 NBO analysis skipped by request.
 1\1\GINC-CN11\SP\RB3LYP TD-FC\6-31G(d,p)\C10H16N2\QDUEZ\11-Jul-2024\0\
 \# TD(NStates=10, Root=1) B3LYP/6-31G** SCRF=(Solvent=water) volume po
 p=NPA density=current Geom=AllCheck Guess=Read\\QNGVNLMMEQUVQK-UHFFFAO
 YSA-N_conf_3\\0,1\N,0,4.2433486838,0.0595770896,-0.2482163995\C,0,2.85
 07831963,0.0714593154,-0.1340341934\C,0,2.2239102182,-0.168455818,1.10
 1414278\C,0,0.8340592747,-0.2193513498,1.1933671084\C,0,0.0205229204,-
 0.0345053363,0.0702148215\N,0,-1.4174577505,-0.0934956972,0.2162555703
 \C,0,-2.0309925055,-1.2113587344,-0.5228388361\C,0,-1.5706076099,-2.57
 82467037,-0.0213886264\C,0,-2.0847659279,1.1862310639,-0.0826835908\C,
 0,-1.6798965792,2.3048860473,0.874654499\C,0,0.6487667861,0.2059154084
 ,-1.1617583076\C,0,2.0363013649,0.2588593063,-1.2667679235\H,0,4.60551
 84641,0.5907416531,-1.0301610241\H,0,4.7373906196,0.2915666153,0.60434
 57002\H,0,2.8317526541,-0.3155336142,1.9905966994\H,0,0.3595555841,-0.
 4024694394,2.1528679795\H,0,-1.8498729388,-1.1370919298,-1.6111666003\
 H,0,-3.1154119796,-1.1271457018,-0.3860211035\H,0,-2.0958095157,-3.372
 5194364,-0.5614690614\H,0,-1.7813568439,-2.6891503066,1.0471157801\H,0
 ,-0.4968784451,-2.7222496043,-0.1718093281\H,0,-3.1633725038,1.0120693
 199,0.0070014857\H,0,-1.9095559368,1.5109218395,-1.1251128187\H,0,-1.8
 864488345,2.0202485874,1.9113478036\H,0,-2.2434817127,3.2154724244,0.6
 474966853\H,0,-0.6147053603,2.5394581614,0.7933795586\H,0,0.0481843468
 ,0.3578487076,-2.0546559258\H,0,2.500520331,0.4463181326,-2.2319742304
 \\Version=EM64L-G16RevA.03\State=1-A\HF=-500.2266597\RMSD=2.507e-09\Di
 pole=1.6317188,0.5806672,-0.3892812\Quadrupole=14.5711453,-8.3428789,-
 6.2282663,4.419338,0.8242303,-0.6842162\PG=C01 [X(C10H16N2)]\\@


 Ideas are like rabbits. You get a couple and learn
 how to handle them, and pretty soon you have a dozen.
                                    -- John Steinbeck
 Job cpu time:       0 days  1 hours 24 minutes  4.7 seconds.
 Elapsed time:       0 days  0 hours 31 minutes 28.4 seconds.
 File lengths (MBytes):  RWF=    582 Int=      0 D2E=      0 Chk=     37 Scr=      1
 Normal termination of Gaussian 16 at Thu Jul 11 19:40:58 2024.
