 Entering Gaussian System, Link 0=g16
 Initial command:
 /opt/sw/arch/manual/gaussian/G16_A03/g16/l1.exe "/scratch/1032086.jesse.materianova.be/Gau-28870.inp" -scrdir="/scratch/1032086.jesse.materianova.be/"
 Entering Link 1 = /opt/sw/arch/manual/gaussian/G16_A03/g16/l1.exe PID=     28871.
  
 Copyright (c) 1988,1990,1992,1993,1995,1998,2003,2009,2016,
            Gaussian, Inc.  All Rights Reserved.
  
 This is part of the Gaussian(R) 16 program.  It is based on
 the Gaussian(R) 09 system (copyright 2009, Gaussian, Inc.),
 the Gaussian(R) 03 system (copyright 2003, Gaussian, Inc.),
 the Gaussian(R) 98 system (copyright 1998, Gaussian, Inc.),
 the Gaussian(R) 94 system (copyright 1995, Gaussian, Inc.),
 the Gaussian 92(TM) system (copyright 1992, Gaussian, Inc.),
 the Gaussian 90(TM) system (copyright 1990, Gaussian, Inc.),
 the Gaussian 88(TM) system (copyright 1988, Gaussian, Inc.),
 the Gaussian 86(TM) system (copyright 1986, Carnegie Mellon
 University), and the Gaussian 82(TM) system (copyright 1983,
 Carnegie Mellon University). Gaussian is a federally registered
 trademark of Gaussian, Inc.
  
 This software contains proprietary and confidential information,
 including trade secrets, belonging to Gaussian, Inc.
  
 This software is provided under written license and may be
 used, copied, transmitted, or stored only in accord with that
 written license.
  
 The following legend is applicable only to US Government
 contracts under FAR:
  
                    RESTRICTED RIGHTS LEGEND
  
 Use, reproduction and disclosure by the US Government is
 subject to restrictions as set forth in subparagraphs (a)
 and (c) of the Commercial Computer Software - Restricted
 Rights clause in FAR 52.227-19.
  
 Gaussian, Inc.
 340 Quinnipiac St., Bldg. 40, Wallingford CT 06492
  
  
 ---------------------------------------------------------------
 Warning -- This program may not be used in any manner that
 competes with the business of Gaussian, Inc. or will provide
 assistance to any competitor of Gaussian, Inc.  The licensee
 of this program is prohibited from giving any competitor of
 Gaussian, Inc. access to this program.  By using this program,
 the user acknowledges that Gaussian, Inc. is engaged in the
 business of creating and licensing software in the field of
 computational chemistry and represents and warrants to the
 licensee that it is not a competitor of Gaussian, Inc. and that
 it will not use this program in any manner prohibited above.
 ---------------------------------------------------------------
  

 Cite this work as:
 Gaussian 16, Revision A.03,
 M. J. Frisch, G. W. Trucks, H. B. Schlegel, G. E. Scuseria, 
 M. A. Robb, J. R. Cheeseman, G. Scalmani, V. Barone, 
 G. A. Petersson, H. Nakatsuji, X. Li, M. Caricato, A. V. Marenich, 
 J. Bloino, B. G. Janesko, R. Gomperts, B. Mennucci, H. P. Hratchian, 
 J. V. Ortiz, A. F. Izmaylov, J. L. Sonnenberg, D. Williams-Young, 
 F. Ding, F. Lipparini, F. Egidi, J. Goings, B. Peng, A. Petrone, 
 T. Henderson, D. Ranasinghe, V. G. Zakrzewski, J. Gao, N. Rega, 
 G. Zheng, W. Liang, M. Hada, M. Ehara, K. Toyota, R. Fukuda, 
 J. Hasegawa, M. Ishida, T. Nakajima, Y. Honda, O. Kitao, H. Nakai, 
 T. Vreven, K. Throssell, J. A. Montgomery, Jr., J. E. Peralta, 
 F. Ogliaro, M. J. Bearpark, J. J. Heyd, E. N. Brothers, K. N. Kudin, 
 V. N. Staroverov, T. A. Keith, R. Kobayashi, J. Normand, 
 K. Raghavachari, A. P. Rendell, J. C. Burant, S. S. Iyengar, 
 J. Tomasi, M. Cossi, J. M. Millam, M. Klene, C. Adamo, R. Cammi, 
 J. W. Ochterski, R. L. Martin, K. Morokuma, O. Farkas, 
 J. B. Foresman, and D. J. Fox, Gaussian, Inc., Wallingford CT, 2016.
 
 ******************************************
 Gaussian 16:  EM64L-G16RevA.03 25-Dec-2016
                11-Jul-2024 
 ******************************************
 %nprocshared=4
 Will use up to    4 processors via shared memory.
 %mem=8GB
 %Chk=QNGVNLMMEQUVQK-UHFFFAOYSA-N_conf_0_0.chk
 -------------------------------------------------------
 # opt=CalcFc B3LYP/6-31G** SCRF=(Solvent=water) scf=xqc
 -------------------------------------------------------
 1/10=4,18=20,19=15,26=3,38=1/1,3;
 2/9=110,12=2,17=6,18=5,40=1/2;
 3/5=1,6=6,7=101,11=2,25=1,30=1,70=2201,71=2,72=1,74=-5,140=1/1,2,3;
 4//1;
 5/5=2,8=3,13=1,38=5,53=1/2,8;
 8/6=4,10=90,11=11/1;
 11/6=1,8=1,9=11,15=111,16=1/1,2,10;
 10/6=1,13=1/2;
 6/7=2,8=2,9=2,10=2,28=1/1;
 7/10=1,18=20,25=1/1,2,3,16;
 1/10=4,18=20,19=15,26=3/3(2);
 2/9=110/2;
 99//99;
 2/9=110/2;
 3/5=1,6=6,7=101,11=2,25=1,30=1,70=2205,71=1,72=1,74=-5/1,2,3;
 4/5=5,16=3,69=1/1;
 5/5=2,8=3,13=1,38=5,53=1/2,8;
 7//1,2,3,16;
 1/18=20,19=15,26=3/3(-5);
 2/9=110/2;
 6/7=2,8=2,9=2,10=2,19=2,28=1/1;
 99/9=1/99;
 ----------------------------------
 QNGVNLMMEQUVQK-UHFFFAOYSA-N_conf_0
 ----------------------------------
 Symbolic Z-matrix:
 Charge =  0 Multiplicity = 1
 N                     4.47107   0.42644  -0.36928 
 C                     3.08208   0.28908  -0.2901 
 C                     2.24605   1.07824  -1.07035 
 C                     0.85755   0.86583  -1.08071 
 C                     0.24609  -0.16663  -0.35079 
 N                    -1.13067  -0.37043  -0.36005 
 C                    -2.06455   0.64195  -0.87283 
 C                    -2.18306   1.83189   0.07026 
 C                    -1.72392  -1.62277   0.12682 
 C                    -2.12275  -1.51734   1.59085 
 C                     1.12398  -0.98696   0.37663 
 C                     2.5132   -0.77937   0.39214 
 H                     4.7747    1.36637  -0.60245 
 H                     4.96398   0.05008   0.4341 
 H                     2.65861   1.87315  -1.68518 
 H                     0.27075   1.5303   -1.70636 
 H                    -3.06563   0.20739  -0.98675 
 H                    -1.78319   0.96742  -1.88039 
 H                    -1.23329   2.36262   0.18302 
 H                    -2.9198    2.54399  -0.31506 
 H                    -2.50703   1.51707   1.06695 
 H                    -2.61702  -1.8641   -0.46342 
 H                    -1.05477  -2.47677  -0.0294 
 H                    -2.90046  -0.76064   1.73333 
 H                    -2.52008  -2.47453   1.94298 
 H                    -1.27338  -1.24682   2.22531 
 H                     0.75251  -1.81823   0.96701 
 H                     3.13901  -1.4672    0.9537 
 

 GradGradGradGradGradGradGradGradGradGradGradGradGradGradGradGradGradGrad
 Berny optimization.
 Initialization pass.
                           ----------------------------
                           !    Initial Parameters    !
                           ! (Angstroms and Degrees)  !
 --------------------------                            --------------------------
 ! Name  Definition              Value          Derivative Info.                !
 --------------------------------------------------------------------------------
 ! R1    R(1,2)                  1.398          calculate D2E/DX2 analytically  !
 ! R2    R(1,13)                 1.0149         calculate D2E/DX2 analytically  !
 ! R3    R(1,14)                 1.0149         calculate D2E/DX2 analytically  !
 ! R4    R(2,3)                  1.3894         calculate D2E/DX2 analytically  !
 ! R5    R(2,12)                 1.3895         calculate D2E/DX2 analytically  !
 ! R6    R(3,4)                  1.4047         calculate D2E/DX2 analytically  !
 ! R7    R(3,15)                 1.0863         calculate D2E/DX2 analytically  !
 ! R8    R(4,5)                  1.4045         calculate D2E/DX2 analytically  !
 ! R9    R(4,16)                 1.085          calculate D2E/DX2 analytically  !
 ! R10   R(5,6)                  1.3918         calculate D2E/DX2 analytically  !
 ! R11   R(5,11)                 1.4046         calculate D2E/DX2 analytically  !
 ! R12   R(6,7)                  1.4697         calculate D2E/DX2 analytically  !
 ! R13   R(6,9)                  1.4688         calculate D2E/DX2 analytically  !
 ! R14   R(7,8)                  1.523          calculate D2E/DX2 analytically  !
 ! R15   R(7,17)                 1.0973         calculate D2E/DX2 analytically  !
 ! R16   R(7,18)                 1.0956         calculate D2E/DX2 analytically  !
 ! R17   R(8,19)                 1.0938         calculate D2E/DX2 analytically  !
 ! R18   R(8,20)                 1.0947         calculate D2E/DX2 analytically  !
 ! R19   R(8,21)                 1.0943         calculate D2E/DX2 analytically  !
 ! R20   R(9,10)                 1.521          calculate D2E/DX2 analytically  !
 ! R21   R(9,22)                 1.0974         calculate D2E/DX2 analytically  !
 ! R22   R(9,23)                 1.0961         calculate D2E/DX2 analytically  !
 ! R23   R(10,24)                1.0944         calculate D2E/DX2 analytically  !
 ! R24   R(10,25)                1.0946         calculate D2E/DX2 analytically  !
 ! R25   R(10,26)                1.0941         calculate D2E/DX2 analytically  !
 ! R26   R(11,12)                1.4047         calculate D2E/DX2 analytically  !
 ! R27   R(11,27)                1.0852         calculate D2E/DX2 analytically  !
 ! R28   R(12,28)                1.0863         calculate D2E/DX2 analytically  !
 ! A1    A(2,1,13)             113.6557         calculate D2E/DX2 analytically  !
 ! A2    A(2,1,14)             113.6579         calculate D2E/DX2 analytically  !
 ! A3    A(13,1,14)            112.3341         calculate D2E/DX2 analytically  !
 ! A4    A(1,2,3)              120.6784         calculate D2E/DX2 analytically  !
 ! A5    A(1,2,12)             120.6726         calculate D2E/DX2 analytically  !
 ! A6    A(3,2,12)             117.7833         calculate D2E/DX2 analytically  !
 ! A7    A(2,3,4)              120.8657         calculate D2E/DX2 analytically  !
 ! A8    A(2,3,15)             120.3265         calculate D2E/DX2 analytically  !
 ! A9    A(4,3,15)             118.8078         calculate D2E/DX2 analytically  !
 ! A10   A(3,4,5)              122.5245         calculate D2E/DX2 analytically  !
 ! A11   A(3,4,16)             116.5019         calculate D2E/DX2 analytically  !
 ! A12   A(5,4,16)             120.9575         calculate D2E/DX2 analytically  !
 ! A13   A(4,5,6)              122.3327         calculate D2E/DX2 analytically  !
 ! A14   A(4,5,11)             115.2381         calculate D2E/DX2 analytically  !
 ! A15   A(6,5,11)             122.4257         calculate D2E/DX2 analytically  !
 ! A16   A(5,6,7)              122.0069         calculate D2E/DX2 analytically  !
 ! A17   A(5,6,9)              121.479          calculate D2E/DX2 analytically  !
 ! A18   A(7,6,9)              116.5083         calculate D2E/DX2 analytically  !
 ! A19   A(6,7,8)              111.8143         calculate D2E/DX2 analytically  !
 ! A20   A(6,7,17)             110.0689         calculate D2E/DX2 analytically  !
 ! A21   A(6,7,18)             111.2432         calculate D2E/DX2 analytically  !
 ! A22   A(8,7,17)             107.6222         calculate D2E/DX2 analytically  !
 ! A23   A(8,7,18)             110.9383         calculate D2E/DX2 analytically  !
 ! A24   A(17,7,18)            104.8611         calculate D2E/DX2 analytically  !
 ! A25   A(7,8,19)             112.0475         calculate D2E/DX2 analytically  !
 ! A26   A(7,8,20)             110.0388         calculate D2E/DX2 analytically  !
 ! A27   A(7,8,21)             111.2397         calculate D2E/DX2 analytically  !
 ! A28   A(19,8,20)            107.7599         calculate D2E/DX2 analytically  !
 ! A29   A(19,8,21)            107.6242         calculate D2E/DX2 analytically  !
 ! A30   A(20,8,21)            107.9689         calculate D2E/DX2 analytically  !
 ! A31   A(6,9,10)             111.4607         calculate D2E/DX2 analytically  !
 ! A32   A(6,9,22)             109.7511         calculate D2E/DX2 analytically  !
 ! A33   A(6,9,23)             111.746          calculate D2E/DX2 analytically  !
 ! A34   A(10,9,22)            108.6355         calculate D2E/DX2 analytically  !
 ! A35   A(10,9,23)            110.5632         calculate D2E/DX2 analytically  !
 ! A36   A(22,9,23)            104.4084         calculate D2E/DX2 analytically  !
 ! A37   A(9,10,24)            111.0733         calculate D2E/DX2 analytically  !
 ! A38   A(9,10,25)            110.1342         calculate D2E/DX2 analytically  !
 ! A39   A(9,10,26)            111.822          calculate D2E/DX2 analytically  !
 ! A40   A(24,10,25)           107.7463         calculate D2E/DX2 analytically  !
 ! A41   A(24,10,26)           107.7697         calculate D2E/DX2 analytically  !
 ! A42   A(25,10,26)           108.1479         calculate D2E/DX2 analytically  !
 ! A43   A(5,11,12)            122.5162         calculate D2E/DX2 analytically  !
 ! A44   A(5,11,27)            121.0114         calculate D2E/DX2 analytically  !
 ! A45   A(12,11,27)           116.4709         calculate D2E/DX2 analytically  !
 ! A46   A(2,12,11)            120.8712         calculate D2E/DX2 analytically  !
 ! A47   A(2,12,28)            120.3211         calculate D2E/DX2 analytically  !
 ! A48   A(11,12,28)           118.8066         calculate D2E/DX2 analytically  !
 ! D1    D(13,1,2,3)            30.3605         calculate D2E/DX2 analytically  !
 ! D2    D(13,1,2,12)         -160.5268         calculate D2E/DX2 analytically  !
 ! D3    D(14,1,2,3)           160.514          calculate D2E/DX2 analytically  !
 ! D4    D(14,1,2,12)          -30.3733         calculate D2E/DX2 analytically  !
 ! D5    D(1,2,3,4)            174.4514         calculate D2E/DX2 analytically  !
 ! D6    D(1,2,3,15)            -5.5367         calculate D2E/DX2 analytically  !
 ! D7    D(12,2,3,4)             5.0321         calculate D2E/DX2 analytically  !
 ! D8    D(12,2,3,15)         -174.956          calculate D2E/DX2 analytically  !
 ! D9    D(1,2,12,11)         -174.4022         calculate D2E/DX2 analytically  !
 ! D10   D(1,2,12,28)            5.972          calculate D2E/DX2 analytically  !
 ! D11   D(3,2,12,11)           -4.9823         calculate D2E/DX2 analytically  !
 ! D12   D(3,2,12,28)          175.3919         calculate D2E/DX2 analytically  !
 ! D13   D(2,3,4,5)             -2.1326         calculate D2E/DX2 analytically  !
 ! D14   D(2,3,4,16)           179.3123         calculate D2E/DX2 analytically  !
 ! D15   D(15,3,4,5)           177.8557         calculate D2E/DX2 analytically  !
 ! D16   D(15,3,4,16)           -0.6994         calculate D2E/DX2 analytically  !
 ! D17   D(3,4,5,6)            179.7577         calculate D2E/DX2 analytically  !
 ! D18   D(3,4,5,11)            -0.9157         calculate D2E/DX2 analytically  !
 ! D19   D(16,4,5,6)            -1.7501         calculate D2E/DX2 analytically  !
 ! D20   D(16,4,5,11)          177.5764         calculate D2E/DX2 analytically  !
 ! D21   D(4,5,6,7)            -14.2291         calculate D2E/DX2 analytically  !
 ! D22   D(4,5,6,9)            164.8621         calculate D2E/DX2 analytically  !
 ! D23   D(11,5,6,7)           166.4926         calculate D2E/DX2 analytically  !
 ! D24   D(11,5,6,9)           -14.4163         calculate D2E/DX2 analytically  !
 ! D25   D(4,5,11,12)            0.9667         calculate D2E/DX2 analytically  !
 ! D26   D(4,5,11,27)         -179.4951         calculate D2E/DX2 analytically  !
 ! D27   D(6,5,11,12)         -179.7074         calculate D2E/DX2 analytically  !
 ! D28   D(6,5,11,27)           -0.1692         calculate D2E/DX2 analytically  !
 ! D29   D(5,6,7,8)            -72.3641         calculate D2E/DX2 analytically  !
 ! D30   D(5,6,7,17)           168.0718         calculate D2E/DX2 analytically  !
 ! D31   D(5,6,7,18)            52.2876         calculate D2E/DX2 analytically  !
 ! D32   D(9,6,7,8)            108.502          calculate D2E/DX2 analytically  !
 ! D33   D(9,6,7,17)           -11.0621         calculate D2E/DX2 analytically  !
 ! D34   D(9,6,7,18)          -126.8463         calculate D2E/DX2 analytically  !
 ! D35   D(5,6,9,10)            93.7401         calculate D2E/DX2 analytically  !
 ! D36   D(5,6,9,22)          -145.8644         calculate D2E/DX2 analytically  !
 ! D37   D(5,6,9,23)           -30.5324         calculate D2E/DX2 analytically  !
 ! D38   D(7,6,9,10)           -87.1212         calculate D2E/DX2 analytically  !
 ! D39   D(7,6,9,22)            33.2743         calculate D2E/DX2 analytically  !
 ! D40   D(7,6,9,23)           148.6064         calculate D2E/DX2 analytically  !
 ! D41   D(6,7,8,19)            62.8273         calculate D2E/DX2 analytically  !
 ! D42   D(6,7,8,20)          -177.3038         calculate D2E/DX2 analytically  !
 ! D43   D(6,7,8,21)           -57.695          calculate D2E/DX2 analytically  !
 ! D44   D(17,7,8,19)         -176.1782         calculate D2E/DX2 analytically  !
 ! D45   D(17,7,8,20)          -56.3093         calculate D2E/DX2 analytically  !
 ! D46   D(17,7,8,21)           63.2995         calculate D2E/DX2 analytically  !
 ! D47   D(18,7,8,19)          -61.994          calculate D2E/DX2 analytically  !
 ! D48   D(18,7,8,20)           57.8749         calculate D2E/DX2 analytically  !
 ! D49   D(18,7,8,21)          177.4837         calculate D2E/DX2 analytically  !
 ! D50   D(6,9,10,24)           63.2476         calculate D2E/DX2 analytically  !
 ! D51   D(6,9,10,25)         -177.4655         calculate D2E/DX2 analytically  !
 ! D52   D(6,9,10,26)          -57.1903         calculate D2E/DX2 analytically  !
 ! D53   D(22,9,10,24)         -57.8014         calculate D2E/DX2 analytically  !
 ! D54   D(22,9,10,25)          61.4856         calculate D2E/DX2 analytically  !
 ! D55   D(22,9,10,26)        -178.2393         calculate D2E/DX2 analytically  !
 ! D56   D(23,9,10,24)        -171.8165         calculate D2E/DX2 analytically  !
 ! D57   D(23,9,10,25)         -52.5296         calculate D2E/DX2 analytically  !
 ! D58   D(23,9,10,26)          67.7455         calculate D2E/DX2 analytically  !
 ! D59   D(5,11,12,2)            2.0285         calculate D2E/DX2 analytically  !
 ! D60   D(5,11,12,28)        -178.3401         calculate D2E/DX2 analytically  !
 ! D61   D(27,11,12,2)        -177.5293         calculate D2E/DX2 analytically  !
 ! D62   D(27,11,12,28)          2.1021         calculate D2E/DX2 analytically  !
 --------------------------------------------------------------------------------
 Trust Radius=3.00D-01 FncErr=1.00D-07 GrdErr=1.00D-06 EigMax=2.50D+02 EigMin=1.00D-04
 Number of steps in this run=    148 maximum allowed number of steps=    168.
 GradGradGradGradGradGradGradGradGradGradGradGradGradGradGradGradGradGrad

                          Input orientation:                          
 ---------------------------------------------------------------------
 Center     Atomic      Atomic             Coordinates (Angstroms)
 Number     Number       Type             X           Y           Z
 ---------------------------------------------------------------------
      1          7           0        4.471074    0.426437   -0.369276
      2          6           0        3.082078    0.289083   -0.290100
      3          6           0        2.246053    1.078238   -1.070350
      4          6           0        0.857553    0.865827   -1.080713
      5          6           0        0.246094   -0.166631   -0.350787
      6          7           0       -1.130670   -0.370432   -0.360049
      7          6           0       -2.064554    0.641945   -0.872826
      8          6           0       -2.183060    1.831887    0.070265
      9          6           0       -1.723916   -1.622766    0.126816
     10          6           0       -2.122748   -1.517344    1.590851
     11          6           0        1.123984   -0.986957    0.376634
     12          6           0        2.513203   -0.779371    0.392136
     13          1           0        4.774698    1.366367   -0.602446
     14          1           0        4.963984    0.050078    0.434101
     15          1           0        2.658612    1.873147   -1.685180
     16          1           0        0.270753    1.530304   -1.706360
     17          1           0       -3.065635    0.207387   -0.986750
     18          1           0       -1.783194    0.967422   -1.880385
     19          1           0       -1.233292    2.362617    0.183017
     20          1           0       -2.919796    2.543988   -0.315062
     21          1           0       -2.507032    1.517067    1.066954
     22          1           0       -2.617016   -1.864097   -0.463424
     23          1           0       -1.054770   -2.476775   -0.029396
     24          1           0       -2.900457   -0.760638    1.733332
     25          1           0       -2.520084   -2.474531    1.942977
     26          1           0       -1.273384   -1.246815    2.225309
     27          1           0        0.752510   -1.818235    0.967010
     28          1           0        3.139012   -1.467203    0.953703
 ---------------------------------------------------------------------
                    Distance matrix (angstroms):
                    1          2          3          4          5
     1  N    0.000000
     2  C    1.398015   0.000000
     3  C    2.422203   1.389422   0.000000
     4  C    3.709008   2.430270   1.404692   0.000000
     5  C    4.266442   2.873006   2.463190   1.404508   0.000000
     6  N    5.658147   4.264634   3.742383   2.449638   1.391798
     7  C    6.558539   5.191522   4.337130   2.938035   2.503081
     8  C    6.815129   5.498344   4.635303   3.391659   3.173665
     9  C    6.543947   5.189081   4.948665   3.783543   2.495871
    10  C    7.148347   5.821629   5.736328   4.658213   3.347506
    11  C    3.709053   2.430421   2.760042   2.372267   1.404551
    12  C    2.422185   1.389481   2.379274   2.759916   2.463162
    13  H    1.014901   2.030533   2.587663   3.977852   4.787658
    14  H    1.014900   2.030557   3.272252   4.452290   4.787640
    15  H    2.666382   2.152866   1.086325   2.150323   3.429510
    16  H    4.544119   3.383781   2.123837   1.085034   2.172045
    17  H    7.565133   6.187598   5.383251   3.979167   3.392917
    18  H    6.456933   5.163335   4.111359   2.761040   2.782762
    19  H    6.049265   4.811008   3.914895   2.865140   2.978360
    20  H    7.688428   6.411530   5.422627   4.203667   4.167925
    21  H    7.207370   5.881130   5.229957   4.044381   3.524845
    22  H    7.449592   6.094743   5.716216   4.461632   3.330387
    23  H    6.251329   4.983116   4.961566   3.991896   2.670637
    24  H    7.756905   6.402102   6.142366   4.968589   3.820626
    25  H    7.914444   6.633884   6.664711   5.631085   4.270772
    26  H    6.521537   5.258927   5.352913   4.464743   3.179919
    27  H    4.544440   3.383490   3.843314   3.377631   2.172749
    28  H    2.666558   2.152865   3.372452   3.845378   3.429600
                    6          7          8          9         10
     6  N    0.000000
     7  C    1.469689   0.000000
     8  C    2.478488   1.522966   0.000000
     9  C    1.468781   2.498846   3.485489   0.000000
    10  C    2.470959   3.276526   3.678745   1.521046   0.000000
    11  C    2.450769   3.792261   4.356177   2.928685   3.506693
    12  C    3.743104   4.957432   5.383044   4.328382   4.844952
    13  H    6.160244   6.882824   7.005687   7.190183   7.791091
    14  H    6.160545   7.173473   7.374786   6.900786   7.349602
    15  H    4.598726   4.948138   5.150251   5.891629   6.714850
    16  H    2.718334   2.633936   3.044429   4.157053   5.088085
    17  H    2.114407   1.097261   2.129605   2.527785   3.241567
    18  H    2.127689   1.095570   2.170767   3.277414   4.282387
    19  H    2.788371   2.183235   1.093823   4.015862   4.222230
    20  H    3.420064   2.158774   1.094689   4.357433   4.556557
    21  H    2.737400   2.173562   1.094284   3.369819   3.103191
    22  H    2.109726   2.598667   3.759446   1.097383   2.141165
    23  H    2.133488   3.384886   4.455057   1.096125   2.164783
    24  H    2.768872   3.075392   3.162536   2.169887   1.094412
    25  H    3.414913   4.224770   4.708064   2.158201   1.094566
    26  H    2.733586   3.713733   3.866540   2.178989   1.094140
    27  H    2.720953   4.168133   4.769184   2.622369   2.957502
    28  H    4.599896   5.904389   6.323679   4.935182   5.300433
                   11         12         13         14         15
    11  C    0.000000
    12  C    1.404728   0.000000
    13  H    4.452465   3.272270   0.000000
    14  H    3.977983   2.587678   1.686083   0.000000
    15  H    3.845303   3.372275   2.430424   3.623489   0.000000
    16  H    3.376903   3.842769   4.640154   5.366476   2.412439
    17  H    4.564885   5.830819   7.934844   8.155878   6.002463
    18  H    4.167183   5.164753   6.693149   7.191855   4.537410
    19  H    4.100473   4.894083   6.140473   6.619449   4.344728
    20  H    5.412778   6.407989   7.789392   8.302700   5.783242
    21  H    4.464409   5.561633   7.472161   7.639937   5.863864
    22  H    3.933211   5.312980   8.068002   7.870272   6.579660
    23  H    2.670466   3.973575   7.005771   6.544098   5.954212
    24  H    4.252996   5.577354   8.299881   8.012159   7.037492
    25  H    4.236217   5.532870   8.628182   8.041246   7.673638
    26  H    3.038503   4.232880   7.169674   6.617788   6.362915
    27  H    1.085155   2.123619   5.364968   4.638006   4.928858
    28  H    2.150345   1.086327   3.623008   2.429537   4.283973
                   16         17         18         19         20
    16  H    0.000000
    17  H    3.660523   0.000000
    18  H    2.136778   1.738071   0.000000
    19  H    2.554338   3.061185   2.550802   0.000000
    20  H    3.625309   2.435598   2.495528   1.767845   0.000000
    21  H    3.925243   2.498999   3.084292   1.765987   1.770567
    22  H    4.626668   2.183157   3.274223   4.494184   4.420961
    23  H    4.541575   3.487811   3.977342   4.847340   5.363579
    24  H    5.209268   2.891920   4.158536   3.864924   3.888039
    25  H    6.094681   4.009191   5.196936   5.305780   5.517612
    26  H    5.055173   3.955274   4.692492   4.147357   4.851222
    27  H    4.311811   4.743264   4.722006   4.694420   5.844530
    28  H    4.928275   6.713215   6.179609   5.863320   7.376217
                   21         22         23         24         25
    21  H    0.000000
    22  H    3.713007   0.000000
    23  H    4.388829   1.733310   0.000000
    24  H    2.405574   2.474611   3.075532   0.000000
    25  H    4.086617   2.484511   2.457113   1.768068   0.000000
    26  H    3.240790   3.068496   2.577652   1.767987   1.772359
    27  H    4.664637   3.660867   2.166278   3.879424   3.477514
    28  H    6.387214   5.941181   4.424198   6.130436   5.832559
                   26         27         28
    26  H    0.000000
    27  H    2.452363   0.000000
    28  H    4.597259   2.412218   0.000000
 Stoichiometry    C10H16N2
 Framework group  C1[X(C10H16N2)]
 Deg. of freedom    78
 Full point group                 C1      NOp   1
 Largest Abelian subgroup         C1      NOp   1
 Largest concise Abelian subgroup C1      NOp   1
                         Standard orientation:                         
 ---------------------------------------------------------------------
 Center     Atomic      Atomic             Coordinates (Angstroms)
 Number     Number       Type             X           Y           Z
 ---------------------------------------------------------------------
      1          7           0        4.165375   -0.091566    0.182525
      2          6           0        2.769457   -0.047289    0.120093
      3          6           0        2.111530    1.131869   -0.207340
      4          6           0        0.718243    1.154409   -0.384540
      5          6           0       -0.074192   -0.001086   -0.286953
      6          7           0       -1.455109    0.026663   -0.458417
      7          6           0       -2.216255    1.283856   -0.447911
      8          6           0       -2.314486    1.874270    0.952513
      9          6           0       -2.225406   -1.204214   -0.679550
     10          6           0       -2.771007   -1.761438    0.626360
     11          6           0        0.627738   -1.187758   -0.018870
     12          6           0        2.020666   -1.217050    0.160451
     13          1           0        4.588863    0.788993    0.456931
     14          1           0        4.524436   -0.875548    0.717752
     15          1           0        2.669961    2.055422   -0.331061
     16          1           0        0.276570    2.115200   -0.627656
     17          1           0       -3.238184    1.108311   -0.806834
     18          1           0       -1.792666    2.010230   -1.150211
     19          1           0       -1.333164    2.140901    1.355458
     20          1           0       -2.926060    2.782020    0.934836
     21          1           0       -2.777881    1.168516    1.648669
     22          1           0       -3.067741   -0.998740   -1.352232
     23          1           0       -1.635315   -1.963614   -1.205473
     24          1           0       -3.476976   -1.063763    1.087440
     25          1           0       -3.302101   -2.700705    0.442534
     26          1           0       -1.973773   -1.956679    1.349852
     27          1           0        0.108853   -2.136889    0.067560
     28          1           0        2.505577   -2.172763    0.338160
 ---------------------------------------------------------------------
 Rotational constants (GHZ):           1.7752678           0.5463700           0.4521913
 Standard basis: 6-31G(d,p) (6D, 7F)
 There are   260 symmetry adapted cartesian basis functions of A   symmetry.
 There are   260 symmetry adapted basis functions of A   symmetry.
   260 basis functions,   448 primitive gaussians,   260 cartesian basis functions
    45 alpha electrons       45 beta electrons
       nuclear repulsion energy       702.1391970674 Hartrees.
 NAtoms=   28 NActive=   28 NUniq=   28 SFac= 1.00D+00 NAtFMM=   60 NAOKFM=F Big=F
 Integral buffers will be    131072 words long.
 Raffenetti 2 integral format.
 Two-electron integral symmetry is turned on.
 Force inversion solution in PCM.
 ------------------------------------------------------------------------------
 Polarizable Continuum Model (PCM)
 =================================
 Model                : PCM.
 Atomic radii         : UFF (Universal Force Field).
 Polarization charges : Total charges.
 Charge compensation  : None.
 Solution method      : Matrix inversion.
 Cavity type          : Scaled VdW (van der Waals Surface) (Alpha=1.100).
 Cavity algorithm     : GePol (No added spheres)
                        Default sphere list used, NSphG=   28.
                        Lebedev-Laikov grids with approx.  5.0 points / Ang**2.
                        Smoothing algorithm: York/Karplus (Gamma=1.0000).
                        Polarization charges: spherical gaussians, with
                                              point-specific exponents (IZeta= 3).
                        Self-potential: point-specific (ISelfS= 7).
                        Self-field    : sphere-specific E.n sum rule (ISelfD= 2).
 1st derivatives      : Analytical E(r).r(x)/FMM algorithm (CHGder, D1EAlg=3).
                        Cavity 1st derivative terms included.
 2nd derivatives      : Analytical E(r).r(xy)/FMM algorithm (CHGder, D2EAlg=3).
                        Cavity 2nd derivative terms included.
 Solvent              : Water, Eps=  78.355300 Eps(inf)=   1.777849
 ------------------------------------------------------------------------------
 One-electron integrals computed using PRISM.
 NBasis=   260 RedAO= T EigKep=  4.02D-04  NBF=   260
 NBsUse=   260 1.00D-06 EigRej= -1.00D+00 NBFU=   260
 ExpMin= 1.61D-01 ExpMax= 4.17D+03 ExpMxC= 6.27D+02 IAcc=3 IRadAn=         5 AccDes= 0.00D+00
 Harris functional with IExCor=  402 and IRadAn=       5 diagonalized for initial guess.
 HarFok:  IExCor=  402 AccDes= 0.00D+00 IRadAn=         5 IDoV= 1 UseB2=F ITyADJ=14
 ICtDFT=  3500011 ScaDFX=  1.000000  1.000000  1.000000  1.000000
 FoFCou: FMM=F IPFlag=           0 FMFlag=      100000 FMFlg1=           0
         NFxFlg=           0 DoJE=T BraDBF=F KetDBF=T FulRan=T
         wScrn=  0.000000 ICntrl=       500 IOpCl=  0 I1Cent=   200000004 NGrid=           0
         NMat0=    1 NMatS0=      1 NMatT0=    0 NMatD0=    1 NMtDS0=    0 NMtDT0=    0
 Petite list used in FoFCou.
 Keep R1 ints in memory in canonical form, NReq=584530862.
 Requested convergence on RMS density matrix=1.00D-08 within  32 cycles.
 Requested convergence on MAX density matrix=1.00D-06.
 Requested convergence on             energy=1.00D-06.
 No special actions if energy rises.
 Inv3:  Mode=1 IEnd=    11513043.
 Iteration    1 A*A^-1 deviation from unit magnitude is 7.77D-15 for    429.
 Iteration    1 A*A^-1 deviation from orthogonality  is 4.12D-15 for   1728    698.
 Iteration    1 A^-1*A deviation from unit magnitude is 7.33D-15 for    128.
 Iteration    1 A^-1*A deviation from orthogonality  is 3.35D-15 for   1626    539.
 Error on total polarization charges =  0.01013
 SCF Done:  E(RB3LYP) =  -500.223467652     A.U. after   12 cycles
            NFock= 12  Conv=0.53D-08     -V/T= 2.0098
 QCSCF skips out because SCF is already converged.
 DoSCS=F DFT=T ScalE2(SS,OS)=  1.000000  1.000000
 Range of M.O.s used for correlation:     1   260
 NBasis=   260 NAE=    45 NBE=    45 NFC=     0 NFV=     0
 NROrb=    260 NOA=    45 NOB=    45 NVA=   215 NVB=   215
 Symmetrizing basis deriv contribution to polar:
 IMax=3 JMax=2 DiffMx= 0.00D+00
 G2DrvN: will do    29 centers at a time, making    1 passes.
 Calling FoFCou, ICntrl=  3107 FMM=F I1Cent=   0 AccDes= 0.00D+00.
 NEqPCM:  Using equilibrium solvation (IEInf=0, Eps=  78.3553, EpsInf=   1.7778)
 G2PCM: DoFxE=T DoFxN=T DoGrad=T DoDP/DQ/DG/TGxP=FFFF NFrqRd=   0 IEInf=0 SqF1=F DoCFld=F IF1Alg=4.
 End of G2Drv F.D. properties file   721 does not exist.
 End of G2Drv F.D. properties file   722 does not exist.
 End of G2Drv F.D. properties file   788 does not exist.
          IDoAtm=1111111111111111111111111111
 NEqPCM:  Using equilibrium solvation (IEInf=0, Eps=  78.3553, EpsInf=   1.7778)
          Differentiating once with respect to nuclear coordinates.
 Keep R1 ints in memory in canonical form, NReq=585612574.
          There are    87 degrees of freedom in the 1st order CPHF.  IDoFFX=6 NUNeed=     0.
     81 vectors produced by pass  0 Test12= 1.11D-14 1.15D-09 XBig12= 1.70D-01 2.40D-01.
 AX will form    81 AO Fock derivatives at one time.
     81 vectors produced by pass  1 Test12= 1.11D-14 1.15D-09 XBig12= 2.47D-02 4.10D-02.
     81 vectors produced by pass  2 Test12= 1.11D-14 1.15D-09 XBig12= 2.29D-04 3.03D-03.
     81 vectors produced by pass  3 Test12= 1.11D-14 1.15D-09 XBig12= 5.96D-07 1.04D-04.
     81 vectors produced by pass  4 Test12= 1.11D-14 1.15D-09 XBig12= 6.52D-10 2.89D-06.
     45 vectors produced by pass  5 Test12= 1.11D-14 1.15D-09 XBig12= 4.78D-13 7.93D-08.
      7 vectors produced by pass  6 Test12= 1.11D-14 1.15D-09 XBig12= 3.34D-16 2.13D-09.
 InvSVY:  IOpt=1 It=  1 EMax= 6.11D-16
 Solved reduced A of dimension   457 with    87 vectors.
 End of Minotr F.D. properties file   721 does not exist.
 End of Minotr F.D. properties file   722 does not exist.
 End of Minotr F.D. properties file   788 does not exist.

 **********************************************************************

            Population analysis using the SCF density.

 **********************************************************************

 Orbital symmetries:
       Occupied  (A) (A) (A) (A) (A) (A) (A) (A) (A) (A) (A) (A)
                 (A) (A) (A) (A) (A) (A) (A) (A) (A) (A) (A) (A)
                 (A) (A) (A) (A) (A) (A) (A) (A) (A) (A) (A) (A)
                 (A) (A) (A) (A) (A) (A) (A) (A) (A)
       Virtual   (A) (A) (A) (A) (A) (A) (A) (A) (A) (A) (A) (A)
                 (A) (A) (A) (A) (A) (A) (A) (A) (A) (A) (A) (A)
                 (A) (A) (A) (A) (A) (A) (A) (A) (A) (A) (A) (A)
                 (A) (A) (A) (A) (A) (A) (A) (A) (A) (A) (A) (A)
                 (A) (A) (A) (A) (A) (A) (A) (A) (A) (A) (A) (A)
                 (A) (A) (A) (A) (A) (A) (A) (A) (A) (A) (A) (A)
                 (A) (A) (A) (A) (A) (A) (A) (A) (A) (A) (A) (A)
                 (A) (A) (A) (A) (A) (A) (A) (A) (A) (A) (A) (A)
                 (A) (A) (A) (A) (A) (A) (A) (A) (A) (A) (A) (A)
                 (A) (A) (A) (A) (A) (A) (A) (A) (A) (A) (A) (A)
                 (A) (A) (A) (A) (A) (A) (A) (A) (A) (A) (A) (A)
                 (A) (A) (A) (A) (A) (A) (A) (A) (A) (A) (A) (A)
                 (A) (A) (A) (A) (A) (A) (A) (A) (A) (A) (A) (A)
                 (A) (A) (A) (A) (A) (A) (A) (A) (A) (A) (A) (A)
                 (A) (A) (A) (A) (A) (A) (A) (A) (A) (A) (A) (A)
                 (A) (A) (A) (A) (A) (A) (A) (A) (A) (A) (A) (A)
                 (A) (A) (A) (A) (A) (A) (A) (A) (A) (A) (A) (A)
                 (A) (A) (A) (A) (A) (A) (A) (A) (A) (A) (A)
 The electronic state is 1-A.
 Alpha  occ. eigenvalues --  -14.33576 -14.32604 -10.21505 -10.21293 -10.21207
 Alpha  occ. eigenvalues --  -10.20807 -10.17628 -10.17621 -10.17573 -10.17566
 Alpha  occ. eigenvalues --  -10.17029 -10.17028  -0.93145  -0.90436  -0.82103
 Alpha  occ. eigenvalues --   -0.76423  -0.74299  -0.73093  -0.69483  -0.62790
 Alpha  occ. eigenvalues --   -0.61759  -0.59958  -0.56222  -0.51943  -0.50168
 Alpha  occ. eigenvalues --   -0.48622  -0.46298  -0.45087  -0.43251  -0.42234
 Alpha  occ. eigenvalues --   -0.41501  -0.41129  -0.39755  -0.38614  -0.37934
 Alpha  occ. eigenvalues --   -0.36960  -0.36314  -0.36050  -0.34782  -0.33500
 Alpha  occ. eigenvalues --   -0.32244  -0.31329  -0.24020  -0.23989  -0.16378
 Alpha virt. eigenvalues --    0.00269   0.03833   0.08643   0.09695   0.11354
 Alpha virt. eigenvalues --    0.12082   0.12460   0.14051   0.14262   0.15968
 Alpha virt. eigenvalues --    0.16203   0.16760   0.17724   0.18044   0.18701
 Alpha virt. eigenvalues --    0.19021   0.19200   0.21045   0.22014   0.23820
 Alpha virt. eigenvalues --    0.25215   0.26188   0.26889   0.27364   0.31497
 Alpha virt. eigenvalues --    0.34225   0.36540   0.36969   0.39042   0.47776
 Alpha virt. eigenvalues --    0.48393   0.50081   0.51357   0.52746   0.54105
 Alpha virt. eigenvalues --    0.55270   0.56083   0.57262   0.58551   0.58679
 Alpha virt. eigenvalues --    0.59782   0.60924   0.61148   0.61589   0.62223
 Alpha virt. eigenvalues --    0.63362   0.63600   0.64569   0.66584   0.68656
 Alpha virt. eigenvalues --    0.70834   0.71798   0.72235   0.75203   0.76620
 Alpha virt. eigenvalues --    0.79790   0.80862   0.81663   0.82268   0.83601
 Alpha virt. eigenvalues --    0.84629   0.86351   0.87161   0.87488   0.88022
 Alpha virt. eigenvalues --    0.89089   0.89911   0.90733   0.91650   0.92571
 Alpha virt. eigenvalues --    0.93871   0.94507   0.95944   0.97289   0.98177
 Alpha virt. eigenvalues --    1.00047   1.00727   1.01350   1.01782   1.06506
 Alpha virt. eigenvalues --    1.09341   1.10175   1.12248   1.17136   1.18419
 Alpha virt. eigenvalues --    1.19201   1.23642   1.26110   1.27515   1.30168
 Alpha virt. eigenvalues --    1.31286   1.36597   1.40468   1.40986   1.42295
 Alpha virt. eigenvalues --    1.44906   1.47201   1.49009   1.53139   1.55844
 Alpha virt. eigenvalues --    1.56317   1.60243   1.65159   1.66429   1.70111
 Alpha virt. eigenvalues --    1.73919   1.76771   1.79664   1.80395   1.80858
 Alpha virt. eigenvalues --    1.83160   1.83632   1.84741   1.88499   1.89335
 Alpha virt. eigenvalues --    1.90121   1.93389   1.94501   1.94822   1.96955
 Alpha virt. eigenvalues --    1.98167   1.98951   2.01174   2.02352   2.05454
 Alpha virt. eigenvalues --    2.05994   2.07884   2.08046   2.09168   2.09834
 Alpha virt. eigenvalues --    2.11280   2.11716   2.14751   2.16966   2.18065
 Alpha virt. eigenvalues --    2.19685   2.20682   2.24282   2.24739   2.26092
 Alpha virt. eigenvalues --    2.27277   2.27925   2.30391   2.31498   2.33404
 Alpha virt. eigenvalues --    2.35652   2.36676   2.38427   2.39679   2.41322
 Alpha virt. eigenvalues --    2.41960   2.43979   2.45470   2.47234   2.47971
 Alpha virt. eigenvalues --    2.50925   2.52909   2.54866   2.55542   2.59506
 Alpha virt. eigenvalues --    2.59989   2.60735   2.62993   2.64599   2.66240
 Alpha virt. eigenvalues --    2.67365   2.70333   2.72500   2.73033   2.74112
 Alpha virt. eigenvalues --    2.76784   2.79576   2.80979   2.82206   2.84271
 Alpha virt. eigenvalues --    2.86392   2.87422   2.89674   2.92625   2.93040
 Alpha virt. eigenvalues --    2.95381   2.98601   3.04013   3.08687   3.12004
 Alpha virt. eigenvalues --    3.19374   3.21313   3.22034   3.27095   3.29370
 Alpha virt. eigenvalues --    3.29624   3.30714   3.38460   3.40484   3.40951
 Alpha virt. eigenvalues --    3.41332   3.46368   3.48198   3.49342   3.54885
 Alpha virt. eigenvalues --    3.56486   3.57251   3.83230   4.04828   4.14623
 Alpha virt. eigenvalues --    4.15889   4.16754   4.23823   4.39133   4.43143
 Alpha virt. eigenvalues --    4.45283   4.49416   4.63925   4.69563   4.85997
          Condensed to atoms (all electrons):
               1          2          3          4          5          6
     1  N    6.859834   0.282823  -0.071043   0.004711   0.000620   0.000000
     2  C    0.282823   4.593662   0.546084  -0.027089  -0.031352   0.000321
     3  C   -0.071043   0.546084   4.942222   0.523347  -0.025858   0.005191
     4  C    0.004711  -0.027089   0.523347   4.974387   0.517842  -0.072788
     5  C    0.000620  -0.031352  -0.025858   0.517842   4.568957   0.292673
     6  N    0.000000   0.000321   0.005191  -0.072788   0.292673   7.026472
     7  C   -0.000000  -0.000005   0.000135  -0.005323  -0.035086   0.316449
     8  C    0.000000   0.000003  -0.000043  -0.002216  -0.002404  -0.070134
     9  C    0.000000   0.000009  -0.000070   0.004450  -0.033535   0.326598
    10  C    0.000000   0.000001   0.000003  -0.000252  -0.003489  -0.074762
    11  C    0.004782  -0.025479  -0.046349  -0.055481   0.517352  -0.073564
    12  C   -0.071198   0.545668  -0.052199  -0.045180  -0.025895   0.005203
    13  H    0.343328  -0.025994  -0.009848  -0.000053  -0.000005  -0.000000
    14  H    0.343348  -0.026152   0.005607  -0.000184  -0.000011  -0.000000
    15  H   -0.007394  -0.044000   0.362157  -0.032926   0.003700  -0.000106
    16  H   -0.000127   0.004305  -0.037197   0.360863  -0.040812  -0.010740
    17  H   -0.000000   0.000000  -0.000009   0.000065   0.003668  -0.032856
    18  H   -0.000000  -0.000018   0.000142   0.003143  -0.006140  -0.039261
    19  H    0.000000   0.000001  -0.000148   0.004716   0.004580  -0.006631
    20  H   -0.000000   0.000000   0.000001  -0.000146  -0.000033   0.005227
    21  H   -0.000000   0.000000   0.000003  -0.000037   0.000214  -0.000733
    22  H   -0.000000  -0.000000   0.000002  -0.000092   0.003828  -0.035806
    23  H   -0.000000  -0.000030  -0.000017   0.000174  -0.004450  -0.034558
    24  H    0.000000  -0.000000  -0.000000   0.000007   0.000042  -0.003744
    25  H   -0.000000  -0.000000  -0.000000   0.000005   0.000041   0.005504
    26  H    0.000000   0.000003  -0.000003  -0.000050   0.002430  -0.003820
    27  H   -0.000126   0.004263   0.000737   0.005854  -0.040041  -0.010398
    28  H   -0.007384  -0.043840   0.005601   0.000652   0.003702  -0.000100
               7          8          9         10         11         12
     1  N   -0.000000   0.000000   0.000000   0.000000   0.004782  -0.071198
     2  C   -0.000005   0.000003   0.000009   0.000001  -0.025479   0.545668
     3  C    0.000135  -0.000043  -0.000070   0.000003  -0.046349  -0.052199
     4  C   -0.005323  -0.002216   0.004450  -0.000252  -0.055481  -0.045180
     5  C   -0.035086  -0.002404  -0.033535  -0.003489   0.517352  -0.025895
     6  N    0.316449  -0.070134   0.326598  -0.074762  -0.073564   0.005203
     7  C    4.769424   0.369162  -0.045252   0.002902   0.005084  -0.000084
     8  C    0.369162   4.988802   0.003042  -0.000215  -0.000096  -0.000001
     9  C   -0.045252   0.003042   4.765677   0.370630  -0.006745  -0.000022
    10  C    0.002902  -0.000215   0.370630   4.995251  -0.000214   0.000050
    11  C    0.005084  -0.000096  -0.006745  -0.000214   4.981475   0.520309
    12  C   -0.000084  -0.000001  -0.000022   0.000050   0.520309   4.943739
    13  H    0.000000  -0.000000   0.000000  -0.000000  -0.000182   0.005661
    14  H    0.000000  -0.000000   0.000000   0.000000  -0.000029  -0.009850
    15  H    0.000004  -0.000004   0.000001  -0.000000   0.000629   0.005637
    16  H    0.004443  -0.001390  -0.000059  -0.000005   0.005972   0.000703
    17  H    0.390733  -0.045004  -0.005731  -0.000831  -0.000150   0.000002
    18  H    0.380286  -0.055901   0.001572  -0.000262  -0.000202   0.000009
    19  H   -0.032603   0.387295   0.000075   0.000069   0.000004  -0.000025
    20  H   -0.027130   0.361980  -0.000145  -0.000038  -0.000002   0.000000
    21  H   -0.033026   0.385338  -0.000161   0.000569  -0.000028  -0.000000
    22  H   -0.009496  -0.000574   0.387079  -0.054706   0.000131  -0.000007
    23  H    0.003304  -0.000303   0.382348  -0.053782   0.005614   0.000203
    24  H    0.002359  -0.001363  -0.030998   0.387775   0.000002  -0.000001
    25  H   -0.000260  -0.000004  -0.027049   0.357001  -0.000157   0.000000
    26  H   -0.000530   0.000252  -0.033993   0.388328   0.001059  -0.000077
    27  H   -0.000082   0.000003   0.003903  -0.001035   0.360364  -0.036782
    28  H    0.000002  -0.000000   0.000004  -0.000002  -0.032862   0.362302
              13         14         15         16         17         18
     1  N    0.343328   0.343348  -0.007394  -0.000127  -0.000000  -0.000000
     2  C   -0.025994  -0.026152  -0.044000   0.004305   0.000000  -0.000018
     3  C   -0.009848   0.005607   0.362157  -0.037197  -0.000009   0.000142
     4  C   -0.000053  -0.000184  -0.032926   0.360863   0.000065   0.003143
     5  C   -0.000005  -0.000011   0.003700  -0.040812   0.003668  -0.006140
     6  N   -0.000000  -0.000000  -0.000106  -0.010740  -0.032856  -0.039261
     7  C    0.000000   0.000000   0.000004   0.004443   0.390733   0.380286
     8  C   -0.000000  -0.000000  -0.000004  -0.001390  -0.045004  -0.055901
     9  C    0.000000   0.000000   0.000001  -0.000059  -0.005731   0.001572
    10  C   -0.000000   0.000000  -0.000000  -0.000005  -0.000831  -0.000262
    11  C   -0.000182  -0.000029   0.000629   0.005972  -0.000150  -0.000202
    12  C    0.005661  -0.009850   0.005637   0.000703   0.000002   0.000009
    13  H    0.442202  -0.028927   0.004643  -0.000008  -0.000000  -0.000000
    14  H   -0.028927   0.442265  -0.000091   0.000004   0.000000  -0.000000
    15  H    0.004643  -0.000091   0.628439  -0.007168  -0.000000   0.000011
    16  H   -0.000008   0.000004  -0.007168   0.631886  -0.000046   0.001683
    17  H   -0.000000   0.000000  -0.000000  -0.000046   0.605579  -0.034461
    18  H   -0.000000  -0.000000   0.000011   0.001683  -0.034461   0.640001
    19  H    0.000000   0.000000  -0.000004   0.000759   0.005183  -0.007035
    20  H   -0.000000  -0.000000   0.000000   0.000093  -0.002026   0.001430
    21  H   -0.000000  -0.000000   0.000000  -0.000014  -0.005101   0.005360
    22  H   -0.000000  -0.000000  -0.000000  -0.000003   0.004888   0.001274
    23  H   -0.000000  -0.000000   0.000000   0.000003   0.000472  -0.000058
    24  H    0.000000   0.000000   0.000000  -0.000001   0.000647  -0.000020
    25  H   -0.000000  -0.000000   0.000000   0.000000  -0.000032   0.000013
    26  H    0.000000   0.000000  -0.000000   0.000001   0.000021  -0.000005
    27  H    0.000004  -0.000007   0.000014  -0.000196  -0.000005   0.000000
    28  H   -0.000076   0.004760  -0.000213   0.000014  -0.000000   0.000000
              19         20         21         22         23         24
     1  N    0.000000  -0.000000  -0.000000  -0.000000  -0.000000   0.000000
     2  C    0.000001   0.000000   0.000000  -0.000000  -0.000030  -0.000000
     3  C   -0.000148   0.000001   0.000003   0.000002  -0.000017  -0.000000
     4  C    0.004716  -0.000146  -0.000037  -0.000092   0.000174   0.000007
     5  C    0.004580  -0.000033   0.000214   0.003828  -0.004450   0.000042
     6  N   -0.006631   0.005227  -0.000733  -0.035806  -0.034558  -0.003744
     7  C   -0.032603  -0.027130  -0.033026  -0.009496   0.003304   0.002359
     8  C    0.387295   0.361980   0.385338  -0.000574  -0.000303  -0.001363
     9  C    0.000075  -0.000145  -0.000161   0.387079   0.382348  -0.030998
    10  C    0.000069  -0.000038   0.000569  -0.054706  -0.053782   0.387775
    11  C    0.000004  -0.000002  -0.000028   0.000131   0.005614   0.000002
    12  C   -0.000025   0.000000  -0.000000  -0.000007   0.000203  -0.000001
    13  H    0.000000  -0.000000  -0.000000  -0.000000  -0.000000   0.000000
    14  H    0.000000  -0.000000  -0.000000  -0.000000  -0.000000   0.000000
    15  H   -0.000004   0.000000   0.000000  -0.000000   0.000000   0.000000
    16  H    0.000759   0.000093  -0.000014  -0.000003   0.000003  -0.000001
    17  H    0.005183  -0.002026  -0.005101   0.004888   0.000472   0.000647
    18  H   -0.007035   0.001430   0.005360   0.001274  -0.000058  -0.000020
    19  H    0.595670  -0.030556  -0.032294  -0.000015   0.000004   0.000014
    20  H   -0.030556   0.616924  -0.027875   0.000035   0.000007   0.000074
    21  H   -0.032294  -0.027875   0.592489   0.000144  -0.000013   0.002433
    22  H   -0.000015   0.000035   0.000144   0.624488  -0.030575  -0.006444
    23  H    0.000004   0.000007  -0.000013  -0.030575   0.621163   0.005136
    24  H    0.000014   0.000074   0.002433  -0.006444   0.005136   0.593213
    25  H   -0.000003   0.000001   0.000042   0.001004  -0.000504  -0.029213
    26  H   -0.000026   0.000001   0.000220   0.005285  -0.005157  -0.032792
    27  H   -0.000001   0.000000  -0.000003   0.000031   0.000196  -0.000086
    28  H   -0.000000   0.000000  -0.000000  -0.000000   0.000006   0.000000
              25         26         27         28
     1  N   -0.000000   0.000000  -0.000126  -0.007384
     2  C   -0.000000   0.000003   0.004263  -0.043840
     3  C   -0.000000  -0.000003   0.000737   0.005601
     4  C    0.000005  -0.000050   0.005854   0.000652
     5  C    0.000041   0.002430  -0.040041   0.003702
     6  N    0.005504  -0.003820  -0.010398  -0.000100
     7  C   -0.000260  -0.000530  -0.000082   0.000002
     8  C   -0.000004   0.000252   0.000003  -0.000000
     9  C   -0.027049  -0.033993   0.003903   0.000004
    10  C    0.357001   0.388328  -0.001035  -0.000002
    11  C   -0.000157   0.001059   0.360364  -0.032862
    12  C    0.000000  -0.000077  -0.036782   0.362302
    13  H   -0.000000   0.000000   0.000004  -0.000076
    14  H   -0.000000   0.000000  -0.000007   0.004760
    15  H    0.000000  -0.000000   0.000014  -0.000213
    16  H    0.000000   0.000001  -0.000196   0.000014
    17  H   -0.000032   0.000021  -0.000005  -0.000000
    18  H    0.000013  -0.000005   0.000000   0.000000
    19  H   -0.000003  -0.000026  -0.000001  -0.000000
    20  H    0.000001   0.000001   0.000000   0.000000
    21  H    0.000042   0.000220  -0.000003  -0.000000
    22  H    0.001004   0.005285   0.000031  -0.000000
    23  H   -0.000504  -0.005157   0.000196   0.000006
    24  H   -0.029213  -0.032792  -0.000086   0.000000
    25  H    0.622355  -0.029100   0.000195  -0.000000
    26  H   -0.029100   0.594670   0.001873  -0.000002
    27  H    0.000195   0.001873   0.629311  -0.007168
    28  H   -0.000000  -0.000002  -0.007168   0.627898
 Mulliken charges:
               1
     1  N   -0.682173
     2  C    0.246814
     3  C   -0.148450
     4  C   -0.158401
     5  C    0.329462
     6  N   -0.513640
     7  C   -0.055409
     8  C   -0.316227
     9  C   -0.061630
    10  C   -0.312984
    11  C   -0.161237
    12  C   -0.148167
    13  H    0.269257
    14  H    0.269268
    15  H    0.086669
    16  H    0.087037
    17  H    0.114995
    18  H    0.108439
    19  H    0.110971
    20  H    0.102178
    21  H    0.112471
    22  H    0.109528
    23  H    0.110816
    24  H    0.112958
    25  H    0.100160
    26  H    0.111412
    27  H    0.089179
    28  H    0.086705
 Sum of Mulliken charges =  -0.00000
 Mulliken charges with hydrogens summed into heavy atoms:
               1
     1  N   -0.143648
     2  C    0.246814
     3  C   -0.061781
     4  C   -0.071365
     5  C    0.329462
     6  N   -0.513640
     7  C    0.168025
     8  C    0.009392
     9  C    0.158714
    10  C    0.011546
    11  C   -0.072058
    12  C   -0.061462
 APT charges:
               1
     1  N   -1.346327
     2  C    0.171476
     3  C   -0.441308
     4  C   -0.603387
     5  C   -0.187187
     6  N   -0.291721
     7  C   -0.838196
     8  C   -1.105452
     9  C   -0.786667
    10  C   -1.159020
    11  C   -0.591742
    12  C   -0.447236
    13  H    0.743702
    14  H    0.731622
    15  H    0.579802
    16  H    0.408775
    17  H    0.614517
    18  H    0.343831
    19  H    0.139615
    20  H    0.654066
    21  H    0.353914
    22  H    0.570832
    23  H    0.328838
    24  H    0.431755
    25  H    0.630708
    26  H    0.127818
    27  H    0.398042
    28  H    0.568930
 Sum of APT charges =  -0.00000
 APT charges with hydrogens summed into heavy atoms:
               1
     1  N    0.128998
     2  C    0.171476
     3  C    0.138494
     4  C   -0.194612
     5  C   -0.187187
     6  N   -0.291721
     7  C    0.120153
     8  C    0.042142
     9  C    0.113002
    10  C    0.031261
    11  C   -0.193700
    12  C    0.121694
 Electronic spatial extent (au):  <R**2>=           2578.5350
 Charge=             -0.0000 electrons
 Dipole moment (field-independent basis, Debye):
    X=             -0.9564    Y=              0.2064    Z=              1.0498  Tot=              1.4350
 Quadrupole moment (field-independent basis, Debye-Ang):
   XX=            -60.2386   YY=            -67.0035   ZZ=            -76.6603
   XY=              0.7847   XZ=              8.6014   YZ=             -1.2308
 Traceless Quadrupole moment (field-independent basis, Debye-Ang):
   XX=              7.7289   YY=              0.9639   ZZ=             -8.6928
   XY=              0.7847   XZ=              8.6014   YZ=             -1.2308
 Octapole moment (field-independent basis, Debye-Ang**2):
  XXX=             32.6982  YYY=             -0.7113  ZZZ=              1.4855  XYY=              8.8109
  XXY=              6.0845  XXZ=             28.4701  XZZ=             -2.8561  YZZ=             -0.4922
  YYZ=             -1.7881  XYZ=             -4.1895
 Hexadecapole moment (field-independent basis, Debye-Ang**3):
 XXXX=          -2165.8694 YYYY=           -759.4225 ZZZZ=           -228.4746 XXXY=             16.3673
 XXXZ=            175.4273 YYYX=             -1.8906 YYYZ=             -6.2888 ZZZX=             12.4204
 ZZZY=              0.1310 XXYY=           -477.9912 XXZZ=           -447.8548 YYZZ=           -172.0798
 XXYZ=            -11.3450 YYXZ=             15.0730 ZZXY=             -0.9754
 N-N= 7.021391970674D+02 E-N=-2.563943610892D+03  KE= 4.953923801272D+02
  Exact polarizability:   0.000   0.000   0.000   0.000   0.000   0.000
 Approx polarizability: 246.491   0.714 197.729  17.895 -12.889 103.511
 D2PCM: PCM CHGder 2nd derivatives, FixD1E=F FixD2E=F DoIter=F DoCFld=F I1PDM=0
 Calling FoFJK, ICntrl=    100147 FMM=F ISym2X=0 I1Cent= 0 IOpClX= 0 NMat=1 NMatS=1 NMatT=0.
 ***** Axes restored to original set *****
 -------------------------------------------------------------------
 Center     Atomic                   Forces (Hartrees/Bohr)
 Number     Number              X              Y              Z
 -------------------------------------------------------------------
      1        7           0.008106018    0.001728081    0.000541055
      2        6           0.009906768   -0.006552752   -0.009969624
      3        6          -0.019225755    0.004188923    0.000080647
      4        6           0.008893073    0.011005637   -0.007596261
      5        6          -0.000041450    0.000819414   -0.000983758
      6        7          -0.012977551   -0.011341157   -0.011528000
      7        6           0.003796307   -0.001809782    0.004959419
      8        6          -0.001846376    0.008978561    0.000626773
      9        6           0.001171753    0.005401299    0.000866225
     10        6          -0.003453415   -0.005247210    0.007457918
     11        6           0.011539446   -0.008154523    0.008064763
     12        6          -0.017916829   -0.004832149    0.005597321
     13        1           0.001643094   -0.002316471    0.003603864
     14        1           0.000702072    0.004172468   -0.001545719
     15        1           0.000351365    0.000962225    0.000594049
     16        1          -0.001729310   -0.000887936    0.001007017
     17        1           0.004987116   -0.005367324    0.001440305
     18        1           0.002428811    0.001308070   -0.001081586
     19        1           0.000543179   -0.000382934   -0.000439268
     20        1          -0.000304600    0.001595343    0.000100404
     21        1          -0.000234374   -0.000770176   -0.000907515
     22        1           0.001177314    0.003787990   -0.002000461
     23        1           0.004183763    0.003853978   -0.000145417
     24        1           0.000086459   -0.000093716   -0.000186441
     25        1          -0.000887946   -0.000792147    0.001949250
     26        1           0.000450330   -0.000336620   -0.000547474
     27        1          -0.001791342    0.000652853   -0.000936631
     28        1           0.000442082    0.000430053    0.000979145
 -------------------------------------------------------------------
 Cartesian Forces:  Max     0.019225755 RMS     0.005411932
 FormGI is forming the generalized inverse of G from B-inverse, IUseBI=4.

 GradGradGradGradGradGradGradGradGradGradGradGradGradGradGradGradGradGrad
 Berny optimization.
 Internal  Forces:  Max     0.015313871 RMS     0.003672995
 Search for a local minimum.
 Step number   1 out of a maximum of  148
 All quantities printed in internal units (Hartrees-Bohrs-Radians)
 Mixed Optimization -- RFO/linear search
 Second derivative matrix not updated -- analytic derivatives used.
 ITU=  0
     Eigenvalues ---    0.00051   0.00165   0.00272   0.00337   0.00375
     Eigenvalues ---    0.00694   0.01456   0.01527   0.01713   0.01746
     Eigenvalues ---    0.01846   0.02076   0.02230   0.02492   0.02630
     Eigenvalues ---    0.02678   0.02906   0.04474   0.04492   0.04529
     Eigenvalues ---    0.04569   0.04603   0.04657   0.05027   0.05472
     Eigenvalues ---    0.08198   0.08360   0.11414   0.11767   0.11811
     Eigenvalues ---    0.12069   0.12236   0.12373   0.12474   0.12946
     Eigenvalues ---    0.13470   0.13618   0.13903   0.15391   0.16031
     Eigenvalues ---    0.16239   0.17777   0.19229   0.19241   0.19992
     Eigenvalues ---    0.21798   0.22600   0.23509   0.24930   0.28387
     Eigenvalues ---    0.29482   0.30040   0.32381   0.32608   0.32895
     Eigenvalues ---    0.33573   0.33755   0.33837   0.33855   0.33933
     Eigenvalues ---    0.34453   0.34671   0.34779   0.35296   0.35572
     Eigenvalues ---    0.35892   0.36023   0.36920   0.38229   0.38874
     Eigenvalues ---    0.43746   0.44207   0.45483   0.45757   0.45988
     Eigenvalues ---    0.49134   0.50251   0.52839
 RFO step:  Lambda=-8.04932741D-03 EMin= 5.12792688D-04
 Linear search not attempted -- first point.
 Iteration  1 RMS(Cart)=  0.05460397 RMS(Int)=  0.00116349
 Iteration  2 RMS(Cart)=  0.00162959 RMS(Int)=  0.00035658
 Iteration  3 RMS(Cart)=  0.00000134 RMS(Int)=  0.00035658
 Iteration  4 RMS(Cart)=  0.00000000 RMS(Int)=  0.00035658
 Variable       Old X    -DE/DX   Delta X   Delta X   Delta X     New X
                                 (Linear)    (Quad)   (Total)
    R1        2.64186   0.01059   0.00000   0.02271   0.02271   2.66458
    R2        1.91789  -0.00248   0.00000  -0.00250  -0.00250   1.91539
    R3        1.91788  -0.00243   0.00000  -0.00241  -0.00241   1.91548
    R4        2.62563   0.01280   0.00000   0.02258   0.02267   2.64830
    R5        2.62574   0.01278   0.00000   0.02205   0.02215   2.64789
    R6        2.65448  -0.00812   0.00000  -0.02092  -0.02092   2.63356
    R7        2.05286   0.00050   0.00000   0.00248   0.00248   2.05534
    R8        2.65414   0.00663   0.00000   0.01625   0.01615   2.67029
    R9        2.05042  -0.00019   0.00000  -0.00298  -0.00298   2.04744
   R10        2.63012   0.00105   0.00000   0.00905   0.00905   2.63917
   R11        2.65422   0.00674   0.00000   0.01596   0.01587   2.67009
   R12        2.77731  -0.00515   0.00000  -0.02012  -0.02012   2.75719
   R13        2.77559  -0.00425   0.00000  -0.02090  -0.02090   2.75469
   R14        2.87799   0.00712   0.00000   0.02110   0.02110   2.89909
   R15        2.07352  -0.00257   0.00000  -0.00713  -0.00713   2.06640
   R16        2.07033   0.00201   0.00000   0.00621   0.00621   2.07654
   R17        2.06703   0.00024   0.00000  -0.00014  -0.00014   2.06689
   R18        2.06866   0.00121   0.00000   0.00128   0.00128   2.06995
   R19        2.06790  -0.00054   0.00000  -0.00005  -0.00005   2.06785
   R20        2.87436   0.00890   0.00000   0.02582   0.02582   2.90018
   R21        2.07375  -0.00072   0.00000  -0.00243  -0.00243   2.07133
   R22        2.07138  -0.00043   0.00000  -0.00179  -0.00179   2.06958
   R23        2.06814  -0.00015   0.00000   0.00039   0.00039   2.06852
   R24        2.06843   0.00164   0.00000   0.00207   0.00207   2.07051
   R25        2.06762  -0.00005   0.00000   0.00029   0.00029   2.06791
   R26        2.65455  -0.00805   0.00000  -0.02053  -0.02052   2.63403
   R27        2.05064  -0.00040   0.00000  -0.00313  -0.00313   2.04752
   R28        2.05286   0.00049   0.00000   0.00250   0.00250   2.05536
    A1        1.98367   0.00190   0.00000  -0.00882  -0.00943   1.97424
    A2        1.98371   0.00185   0.00000  -0.00938  -0.00999   1.97372
    A3        1.96060  -0.00412   0.00000  -0.04948  -0.05049   1.91011
    A4        2.10623   0.00217   0.00000   0.01289   0.01155   2.11778
    A5        2.10613   0.00222   0.00000   0.01284   0.01152   2.11765
    A6        2.05571  -0.00381   0.00000  -0.01031  -0.01161   2.04410
    A7        2.10950   0.00226   0.00000   0.01273   0.01268   2.12218
    A8        2.10009  -0.00143   0.00000  -0.01370  -0.01368   2.08641
    A9        2.07359  -0.00083   0.00000   0.00098   0.00100   2.07459
   A10        2.13846  -0.00278   0.00000  -0.01296  -0.01323   2.12523
   A11        2.03334   0.00357   0.00000   0.02291   0.02300   2.05634
   A12        2.11111  -0.00078   0.00000  -0.00964  -0.00954   2.10156
   A13        2.13511  -0.00280   0.00000  -0.00956  -0.00939   2.12572
   A14        2.01128   0.00508   0.00000   0.01636   0.01602   2.02730
   A15        2.13673  -0.00228   0.00000  -0.00676  -0.00659   2.13014
   A16        2.12942  -0.00540   0.00000  -0.01937  -0.01951   2.10991
   A17        2.12021  -0.00192   0.00000  -0.00670  -0.00684   2.11336
   A18        2.03345   0.00732   0.00000   0.02649   0.02635   2.05980
   A19        1.95153   0.01188   0.00000   0.04964   0.04982   2.00134
   A20        1.92106  -0.00843   0.00000  -0.05056  -0.05129   1.86978
   A21        1.94156  -0.00344   0.00000  -0.01884  -0.01892   1.92264
   A22        1.87836   0.00195   0.00000   0.02354   0.02415   1.90251
   A23        1.93624  -0.00524   0.00000  -0.02093  -0.02060   1.91564
   A24        1.83017   0.00265   0.00000   0.01508   0.01460   1.84477
   A25        1.95560  -0.00113   0.00000  -0.00940  -0.00942   1.94618
   A26        1.92054   0.00186   0.00000   0.00325   0.00326   1.92380
   A27        1.94150  -0.00150   0.00000  -0.00790  -0.00792   1.93358
   A28        1.88077  -0.00030   0.00000   0.00327   0.00328   1.88405
   A29        1.87840   0.00110   0.00000   0.00677   0.00672   1.88511
   A30        1.88441   0.00001   0.00000   0.00487   0.00488   1.88929
   A31        1.94536   0.01531   0.00000   0.05850   0.05878   2.00413
   A32        1.91552  -0.00686   0.00000  -0.03423  -0.03502   1.88049
   A33        1.95034  -0.00793   0.00000  -0.04855  -0.04868   1.90166
   A34        1.89605  -0.00171   0.00000   0.00763   0.00797   1.90402
   A35        1.92969  -0.00341   0.00000  -0.01046  -0.00973   1.91996
   A36        1.82227   0.00372   0.00000   0.02519   0.02441   1.84668
   A37        1.93860  -0.00042   0.00000  -0.00208  -0.00209   1.93650
   A38        1.92220   0.00255   0.00000   0.00560   0.00561   1.92781
   A39        1.95166  -0.00141   0.00000  -0.00929  -0.00930   1.94237
   A40        1.88053  -0.00081   0.00000   0.00301   0.00300   1.88353
   A41        1.88094   0.00063   0.00000   0.00308   0.00305   1.88399
   A42        1.88754  -0.00058   0.00000   0.00009   0.00010   1.88764
   A43        2.13831  -0.00295   0.00000  -0.01286  -0.01308   2.12523
   A44        2.11205  -0.00066   0.00000  -0.01034  -0.01023   2.10182
   A45        2.03280   0.00361   0.00000   0.02319   0.02330   2.05610
   A46        2.10960   0.00237   0.00000   0.01246   0.01244   2.12204
   A47        2.10000  -0.00151   0.00000  -0.01373  -0.01372   2.08628
   A48        2.07357  -0.00086   0.00000   0.00124   0.00125   2.07482
    D1        0.52989  -0.00035   0.00000  -0.00282  -0.00355   0.52634
    D2       -2.80172   0.00281   0.00000   0.09203   0.09203  -2.70970
    D3        2.80150  -0.00275   0.00000  -0.09135  -0.09134   2.71015
    D4       -0.53011   0.00040   0.00000   0.00350   0.00423  -0.52588
    D5        3.04475   0.00137   0.00000   0.02678   0.02652   3.07127
    D6       -0.09663   0.00150   0.00000   0.02763   0.02746  -0.06918
    D7        0.08783  -0.00231   0.00000  -0.06777  -0.06753   0.02030
    D8       -3.05356  -0.00218   0.00000  -0.06692  -0.06659  -3.12015
    D9       -3.04389  -0.00168   0.00000  -0.03245  -0.03230  -3.07619
   D10        0.10423  -0.00150   0.00000  -0.02791  -0.02784   0.07639
   D11       -0.08696   0.00200   0.00000   0.06210   0.06175  -0.02521
   D12        3.06117   0.00218   0.00000   0.06664   0.06621   3.12737
   D13       -0.03722   0.00092   0.00000   0.02479   0.02506  -0.01216
   D14        3.12959   0.00051   0.00000   0.01071   0.01079   3.14038
   D15        3.10417   0.00079   0.00000   0.02396   0.02413   3.12830
   D16       -0.01221   0.00038   0.00000   0.00987   0.00986  -0.00235
   D17        3.13736   0.00011   0.00000   0.01909   0.01912  -3.12670
   D18       -0.01598   0.00047   0.00000   0.02340   0.02356   0.00757
   D19       -0.03055   0.00059   0.00000   0.03424   0.03421   0.00367
   D20        3.09929   0.00096   0.00000   0.03855   0.03865   3.13794
   D21       -0.24834   0.00149   0.00000   0.03536   0.03566  -0.21269
   D22        2.87739   0.00111   0.00000   0.06805   0.06783   2.94522
   D23        2.90584   0.00105   0.00000   0.03059   0.03081   2.93665
   D24       -0.25161   0.00067   0.00000   0.06328   0.06298  -0.18863
   D25        0.01687  -0.00079   0.00000  -0.02922  -0.02936  -0.01248
   D26       -3.13278  -0.00057   0.00000  -0.03029  -0.03051   3.11990
   D27       -3.13649  -0.00043   0.00000  -0.02492  -0.02493   3.12177
   D28       -0.00295  -0.00020   0.00000  -0.02600  -0.02608  -0.02903
   D29       -1.26299   0.00177   0.00000   0.00745   0.00711  -1.25588
   D30        2.93341  -0.00274   0.00000  -0.02049  -0.01974   2.91367
   D31        0.91259   0.00119   0.00000   0.00295   0.00262   0.91521
   D32        1.89372   0.00220   0.00000  -0.02343  -0.02383   1.86989
   D33       -0.19307  -0.00231   0.00000  -0.05138  -0.05068  -0.24375
   D34       -2.21389   0.00162   0.00000  -0.02794  -0.02832  -2.24221
   D35        1.63607  -0.00039   0.00000  -0.03911  -0.03926   1.59681
   D36       -2.54581   0.00280   0.00000  -0.01451  -0.01534  -2.56115
   D37       -0.53289  -0.00149   0.00000  -0.03301  -0.03246  -0.56535
   D38       -1.52055  -0.00085   0.00000  -0.00852  -0.00838  -1.52893
   D39        0.58075   0.00234   0.00000   0.01608   0.01555   0.59629
   D40        2.59367  -0.00195   0.00000  -0.00242  -0.00158   2.59209
   D41        1.09654   0.00039   0.00000  -0.01116  -0.01144   1.08511
   D42       -3.09454   0.00053   0.00000  -0.01097  -0.01127  -3.10580
   D43       -1.00697   0.00080   0.00000  -0.00782  -0.00813  -1.01510
   D44       -3.07489  -0.00152   0.00000  -0.02797  -0.02763  -3.10252
   D45       -0.98278  -0.00137   0.00000  -0.02778  -0.02745  -1.01024
   D46        1.10478  -0.00110   0.00000  -0.02462  -0.02432   1.08047
   D47       -1.08200   0.00000   0.00000  -0.00767  -0.00768  -1.08968
   D48        1.01011   0.00015   0.00000  -0.00748  -0.00751   1.00259
   D49        3.09767   0.00042   0.00000  -0.00433  -0.00437   3.09330
   D50        1.10388   0.00017   0.00000  -0.00455  -0.00438   1.09950
   D51       -3.09736   0.00055   0.00000   0.00151   0.00167  -3.09569
   D52       -0.99816   0.00062   0.00000  -0.00070  -0.00055  -0.99871
   D53       -1.00882   0.00020   0.00000  -0.00383  -0.00407  -1.01289
   D54        1.07313   0.00058   0.00000   0.00223   0.00198   1.07511
   D55       -3.11086   0.00065   0.00000   0.00003  -0.00023  -3.11110
   D56       -2.99876  -0.00145   0.00000  -0.03260  -0.03251  -3.03127
   D57       -0.91681  -0.00107   0.00000  -0.02655  -0.02646  -0.94327
   D58        1.18238  -0.00100   0.00000  -0.02875  -0.02867   1.15371
   D59        0.03540  -0.00027   0.00000  -0.01294  -0.01322   0.02218
   D60       -3.11262  -0.00045   0.00000  -0.01747  -0.01771  -3.13033
   D61       -3.09847  -0.00047   0.00000  -0.01178  -0.01196  -3.11043
   D62        0.03669  -0.00065   0.00000  -0.01631  -0.01644   0.02025
         Item               Value     Threshold  Converged?
 Maximum Force            0.015314     0.000450     NO 
 RMS     Force            0.003673     0.000300     NO 
 Maximum Displacement     0.215564     0.001800     NO 
 RMS     Displacement     0.054731     0.001200     NO 
 Predicted change in Energy=-4.413895D-03
 GradGradGradGradGradGradGradGradGradGradGradGradGradGradGradGradGradGrad

                          Input orientation:                          
 ---------------------------------------------------------------------
 Center     Atomic      Atomic             Coordinates (Angstroms)
 Number     Number       Type             X           Y           Z
 ---------------------------------------------------------------------
      1          7           0        4.483331    0.404843   -0.403362
      2          6           0        3.083267    0.252250   -0.334541
      3          6           0        2.222033    1.097345   -1.047328
      4          6           0        0.842392    0.900465   -1.049193
      5          6           0        0.242473   -0.168074   -0.345596
      6          7           0       -1.138428   -0.376220   -0.361338
      7          6           0       -2.043592    0.642541   -0.882496
      8          6           0       -2.197939    1.879722    0.011439
      9          6           0       -1.720068   -1.607067    0.159872
     10          6           0       -2.112428   -1.556942    1.642734
     11          6           0        1.120544   -1.016598    0.365336
     12          6           0        2.500043   -0.817089    0.358082
     13          1           0        4.771804    1.363473   -0.561961
     14          1           0        4.963572    0.038270    0.410537
     15          1           0        2.634644    1.927964   -1.615466
     16          1           0        0.233808    1.591348   -1.620318
     17          1           0       -3.021678    0.170188   -1.008793
     18          1           0       -1.729133    0.948994   -1.889814
     19          1           0       -1.247772    2.407619    0.133074
     20          1           0       -2.917935    2.577816   -0.429134
     21          1           0       -2.558113    1.598000    1.005578
     22          1           0       -2.609282   -1.835984   -0.438732
     23          1           0       -1.021928   -2.432496   -0.015279
     24          1           0       -2.893797   -0.810170    1.815872
     25          1           0       -2.496921   -2.529276    1.970166
     26          1           0       -1.254961   -1.299870    2.272132
     27          1           0        0.732812   -1.845735    0.945133
     28          1           0        3.133249   -1.505316    0.913396
 ---------------------------------------------------------------------
                    Distance matrix (angstroms):
                    1          2          3          4          5
     1  N    0.000000
     2  C    1.410035   0.000000
     3  C    2.451065   1.401419   0.000000
     4  C    3.730840   2.439760   1.393619   0.000000
     5  C    4.279771   2.871742   2.452013   1.413055   0.000000
     6  N    5.675914   4.268302   3.732917   2.454937   1.396589
     7  C    6.548800   5.170809   4.292967   2.902278   2.484241
     8  C    6.854683   5.537102   4.611859   3.365634   3.205706
     9  C    6.545775   5.174315   4.930652   3.783616   2.485511
    10  C    7.179076   5.846199   5.750584   4.692150   3.380528
    11  C    3.730915   2.439690   2.770857   2.398622   1.412949
    12  C    2.450784   1.401201   2.391134   2.770960   2.452143
    13  H    1.013578   2.034132   2.609165   3.986484   4.786156
    14  H    1.013627   2.033833   3.280708   4.456267   4.785717
    15  H    2.684536   2.156397   1.087638   2.142098   3.424679
    16  H    4.576813   3.400856   2.127297   1.083457   2.172685
    17  H    7.533045   6.142614   5.325186   3.932680   3.347975
    18  H    6.410955   5.105245   4.042710   2.705872   2.742204
    19  H    6.094621   4.860265   3.892263   2.835146   3.013992
    20  H    7.713702   6.436741   5.384535   4.163897   4.187489
    21  H    7.279468   5.952489   5.226363   4.033865   3.576027
    22  H    7.438260   6.064380   5.684753   4.446895   3.305013
    23  H    6.205560   4.915528   4.903894   3.956424   2.614465
    24  H    7.798928   6.440366   6.165082   5.009389   3.862696
    25  H    7.935150   6.647335   6.672793   5.659564   4.294451
    26  H    6.556852   5.293774   5.371679   4.502395   3.221144
    27  H    4.577110   3.400551   3.853491   3.395726   2.172777
    28  H    2.684265   2.156127   3.383577   3.858440   3.424888
                    6          7          8          9         10
     6  N    0.000000
     7  C    1.459041   0.000000
     8  C    2.520079   1.534131   0.000000
     9  C    1.457721   2.500387   3.522512   0.000000
    10  C    2.521722   3.349515   3.805140   1.534711   0.000000
    11  C    2.457864   3.784386   4.418850   2.908598   3.517928
    12  C    3.735024   4.930940   5.428074   4.297987   4.844853
    13  H    6.164222   6.860912   7.012319   7.175622   7.796291
    14  H    6.164576   7.151043   7.405232   6.887743   7.357498
    15  H    4.595451   4.906673   5.099313   5.883178   6.730165
    16  H    2.709130   2.575105   2.942649   4.149285   5.105297
    17  H    2.065040   1.093491   2.154513   2.493712   3.292462
    18  H    2.107454   1.098857   2.168132   3.276392   4.348048
    19  H    2.829515   2.186369   1.093749   4.042460   4.329485
    20  H    3.449285   2.171474   1.095369   4.392614   4.694433
    21  H    2.789535   2.177718   1.094260   3.419063   3.249349
    22  H    2.073720   2.580702   3.765412   1.096099   2.158061
    23  H    2.088445   3.354358   4.469780   1.095176   2.169053
    24  H    2.830172   3.180316   3.312962   2.180601   1.094616
    25  H    3.452110   4.289944   4.833763   2.175117   1.095664
    26  H    2.793183   3.787688   4.013694   2.184568   1.094293
    27  H    2.714384   4.152127   4.831160   2.586545   2.943711
    28  H    4.598590   5.885423   6.379151   4.912518   5.296388
                   11         12         13         14         15
    11  C    0.000000
    12  C    1.393871   0.000000
    13  H    4.456043   3.280583   0.000000
    14  H    3.985431   2.608326   1.654899   0.000000
    15  H    3.858305   3.383537   2.448669   3.619328   0.000000
    16  H    3.395660   3.853629   4.665346   5.376531   2.424323
    17  H    4.522686   5.773428   7.896958   8.111481   5.954141
    18  H    4.131575   5.104706   6.648096   7.135358   4.480647
    19  H    4.169907   4.949292   6.148871   6.653690   4.284928
    20  H    5.464458   6.442016   7.786165   8.323010   5.714964
    21  H    4.558349   5.642415   7.499324   7.704711   5.826102
    22  H    3.902502   5.270509   8.045629   7.847434   6.561308
    23  H    2.596116   3.892714   6.948062   6.489392   5.911406
    24  H    4.273359   5.587371   8.315062   8.027021   7.059399
    25  H    4.236712   5.522685   8.625516   8.042617   7.684836
    26  H    3.059271   4.242255   7.172683   6.627693   6.376625
    27  H    1.083499   2.127404   5.374366   4.662038   4.941096
    28  H    2.142475   1.087648   3.618216   2.446550   4.293152
                   16         17         18         19         20
    16  H    0.000000
    17  H    3.604421   0.000000
    18  H    2.082880   1.747400   0.000000
    19  H    2.436342   3.075175   2.539955   0.000000
    20  H    3.510772   2.478596   2.489959   1.770449   0.000000
    21  H    3.832779   2.512217   3.080862   1.770236   1.774234
    22  H    4.607159   2.125974   3.261350   4.493199   4.424589
    23  H    4.510471   3.429290   3.930457   4.847651   5.373020
    24  H    5.230355   2.992689   4.264177   3.986900   4.064367
    25  H    6.109665   4.054217   5.252362   5.413706   5.658293
    26  H    5.072154   4.005849   4.754369   4.280314   5.009867
    27  H    4.317880   4.688066   4.680663   4.761635   5.897826
    28  H    4.941234   6.662226   6.125715   5.925648   7.422343
                   21         22         23         24         25
    21  H    0.000000
    22  H    3.725708   0.000000
    23  H    4.432484   1.747808   0.000000
    24  H    2.562917   2.493287   3.080414   0.000000
    25  H    4.238937   2.509197   2.475271   1.771057   0.000000
    26  H    3.420529   3.077400   2.563083   1.770244   1.773439
    27  H    4.763732   3.617288   2.084656   3.870772   3.456746
    28  H    6.483106   5.908829   4.357476   6.133757   5.819285
                   26         27         28
    26  H    0.000000
    27  H    2.451558   0.000000
    28  H    4.598343   2.424663   0.000000
 Stoichiometry    C10H16N2
 Framework group  C1[X(C10H16N2)]
 Deg. of freedom    78
 Full point group                 C1      NOp   1
 Largest Abelian subgroup         C1      NOp   1
 Largest concise Abelian subgroup C1      NOp   1
                         Standard orientation:                         
 ---------------------------------------------------------------------
 Center     Atomic      Atomic             Coordinates (Angstroms)
 Number     Number       Type             X           Y           Z
 ---------------------------------------------------------------------
      1          7           0        4.180078   -0.088833    0.170008
      2          6           0        2.773191   -0.053120    0.082885
      3          6           0        2.088555    1.143752   -0.167605
      4          6           0        0.705545    1.172059   -0.336886
      5          6           0       -0.075206   -0.004306   -0.279274
      6          7           0       -1.458994    0.021076   -0.466216
      7          6           0       -2.191694    1.282802   -0.467115
      8          6           0       -2.323176    1.947860    0.909100
      9          6           0       -2.216957   -1.211057   -0.645909
     10          6           0       -2.770193   -1.821951    0.648724
[...]
 Using the CI density.
 There are       395 points.  Will hold       395 in memory.
 LenV=  1073569684 MDV=  1073741824.
 Box volume = 7740.309 fraction occupied=0.235
 Integrated density= 5.7854090592730714D+01 error=-3.2145909407269286D+01
 Molar volume = 1822.402 bohr**3/mol (162.629 cm**3/mol)
 Recommended a0 for SCRF calculation =  4.91 angstrom (  9.28 bohr)
 ******************************Gaussian NBO Version 3.1******************************
             N A T U R A L   A T O M I C   O R B I T A L   A N D
          N A T U R A L   B O N D   O R B I T A L   A N A L Y S I S
 ******************************Gaussian NBO Version 3.1******************************
       /RESON  / : Allow strongly delocalized NBO set

 Analyzing the CI density

 Job title: QNGVNLMMEQUVQK-UHFFFAOYSA-N_conf_0                              

 Storage needed:    205440 in NPA (1073737624 available)
 GSVD:  LWork=       37840 too small for GESVD, short by       20600 words or       20600 for optimal perf.


 NATURAL POPULATIONS:  Natural atomic orbital occupancies 
                                                          
   NAO  Atom  No  lang   Type(AO)    Occupancy
 --------------------------------------------
     1    N    1  S      Cor( 1S)     1.99951
     2    N    1  S      Val( 2S)     1.38644
     3    N    1  S      Ryd( 3S)     0.00011
     4    N    1  S      Ryd( 4S)     0.00001
     5    N    1  px     Val( 2p)     1.34831
     6    N    1  px     Ryd( 3p)     0.00240
     7    N    1  py     Val( 2p)     1.41596
     8    N    1  py     Ryd( 3p)     0.00211
     9    N    1  pz     Val( 2p)     1.62803
    10    N    1  pz     Ryd( 3p)     0.00306
    11    N    1  dxy    Ryd( 3d)     0.00029
    12    N    1  dxz    Ryd( 3d)     0.00099
    13    N    1  dyz    Ryd( 3d)     0.00108
    14    N    1  dx2y2  Ryd( 3d)     0.00061
    15    N    1  dz2    Ryd( 3d)     0.00066

    16    C    2  S      Cor( 1S)     1.99893
    17    C    2  S      Val( 2S)     0.85013
    18    C    2  S      Ryd( 3S)     0.00114
    19    C    2  S      Ryd( 4S)     0.00009
    20    C    2  px     Val( 2p)     0.89217
    21    C    2  px     Ryd( 3p)     0.00551
    22    C    2  py     Val( 2p)     1.10223
    23    C    2  py     Ryd( 3p)     0.00458
    24    C    2  pz     Val( 2p)     0.94284
    25    C    2  pz     Ryd( 3p)     0.00147
    26    C    2  dxy    Ryd( 3d)     0.00088
    27    C    2  dxz    Ryd( 3d)     0.00126
    28    C    2  dyz    Ryd( 3d)     0.00138
    29    C    2  dx2y2  Ryd( 3d)     0.00123
    30    C    2  dz2    Ryd( 3d)     0.00045

    31    C    3  S      Cor( 1S)     1.99905
    32    C    3  S      Val( 2S)     0.93828
    33    C    3  S      Ryd( 3S)     0.00075
    34    C    3  S      Ryd( 4S)     0.00004
    35    C    3  px     Val( 2p)     1.09451
    36    C    3  px     Ryd( 3p)     0.00473
    37    C    3  py     Val( 2p)     1.14661
    38    C    3  py     Ryd( 3p)     0.00452
    39    C    3  pz     Val( 2p)     1.19135
    40    C    3  pz     Ryd( 3p)     0.00705
    41    C    3  dxy    Ryd( 3d)     0.00068
    42    C    3  dxz    Ryd( 3d)     0.00057
    43    C    3  dyz    Ryd( 3d)     0.00032
    44    C    3  dx2y2  Ryd( 3d)     0.00054
    45    C    3  dz2    Ryd( 3d)     0.00039

    46    C    4  S      Cor( 1S)     1.99910
    47    C    4  S      Val( 2S)     0.93564
    48    C    4  S      Ryd( 3S)     0.00073
    49    C    4  S      Ryd( 4S)     0.00004
    50    C    4  px     Val( 2p)     1.09778
    51    C    4  px     Ryd( 3p)     0.00393
    52    C    4  py     Val( 2p)     1.14630
    53    C    4  py     Ryd( 3p)     0.00447
    54    C    4  pz     Val( 2p)     1.17695
    55    C    4  pz     Ryd( 3p)     0.00753
    56    C    4  dxy    Ryd( 3d)     0.00068
    57    C    4  dxz    Ryd( 3d)     0.00065
    58    C    4  dyz    Ryd( 3d)     0.00031
    59    C    4  dx2y2  Ryd( 3d)     0.00054
    60    C    4  dz2    Ryd( 3d)     0.00040

    61    C    5  S      Cor( 1S)     1.99900
    62    C    5  S      Val( 2S)     0.83068
    63    C    5  S      Ryd( 3S)     0.00130
    64    C    5  S      Ryd( 4S)     0.00008
    65    C    5  px     Val( 2p)     0.88165
    66    C    5  px     Ryd( 3p)     0.00446
    67    C    5  py     Val( 2p)     1.11316
    68    C    5  py     Ryd( 3p)     0.00709
    69    C    5  pz     Val( 2p)     0.99036
    70    C    5  pz     Ryd( 3p)     0.00162
    71    C    5  dxy    Ryd( 3d)     0.00077
    72    C    5  dxz    Ryd( 3d)     0.00113
    73    C    5  dyz    Ryd( 3d)     0.00147
    74    C    5  dx2y2  Ryd( 3d)     0.00117
    75    C    5  dz2    Ryd( 3d)     0.00044

    76    N    6  S      Cor( 1S)     1.99933
    77    N    6  S      Val( 2S)     1.19414
    78    N    6  S      Ryd( 3S)     0.00107
    79    N    6  S      Ryd( 4S)     0.00003
    80    N    6  px     Val( 2p)     1.30111
    81    N    6  px     Ryd( 3p)     0.00083
    82    N    6  py     Val( 2p)     1.28749
    83    N    6  py     Ryd( 3p)     0.00176
    84    N    6  pz     Val( 2p)     1.49574
    85    N    6  pz     Ryd( 3p)     0.00512
    86    N    6  dxy    Ryd( 3d)     0.00074
    87    N    6  dxz    Ryd( 3d)     0.00062
    88    N    6  dyz    Ryd( 3d)     0.00044
    89    N    6  dx2y2  Ryd( 3d)     0.00078
    90    N    6  dz2    Ryd( 3d)     0.00052

    91    C    7  S      Cor( 1S)     1.99934
    92    C    7  S      Val( 2S)     1.01867
    93    C    7  S      Ryd( 3S)     0.00139
    94    C    7  S      Ryd( 4S)     0.00003
    95    C    7  px     Val( 2p)     1.15094
    96    C    7  px     Ryd( 3p)     0.00499
    97    C    7  py     Val( 2p)     0.96158
    98    C    7  py     Ryd( 3p)     0.00332
    99    C    7  pz     Val( 2p)     1.13041
   100    C    7  pz     Ryd( 3p)     0.00144
   101    C    7  dxy    Ryd( 3d)     0.00112
   102    C    7  dxz    Ryd( 3d)     0.00098
   103    C    7  dyz    Ryd( 3d)     0.00109
   104    C    7  dx2y2  Ryd( 3d)     0.00064
   105    C    7  dz2    Ryd( 3d)     0.00065

   106    C    8  S      Cor( 1S)     1.99944
   107    C    8  S      Val( 2S)     1.11512
   108    C    8  S      Ryd( 3S)     0.00040
   109    C    8  S      Ryd( 4S)     0.00001
   110    C    8  px     Val( 2p)     1.24763
   111    C    8  px     Ryd( 3p)     0.00119
   112    C    8  py     Val( 2p)     1.22155
   113    C    8  py     Ryd( 3p)     0.00137
   114    C    8  pz     Val( 2p)     1.10727
   115    C    8  pz     Ryd( 3p)     0.00096
   116    C    8  dxy    Ryd( 3d)     0.00065
   117    C    8  dxz    Ryd( 3d)     0.00076
   118    C    8  dyz    Ryd( 3d)     0.00051
   119    C    8  dx2y2  Ryd( 3d)     0.00037
   120    C    8  dz2    Ryd( 3d)     0.00043

   121    C    9  S      Cor( 1S)     1.99934
   122    C    9  S      Val( 2S)     1.01867
   123    C    9  S      Ryd( 3S)     0.00139
   124    C    9  S      Ryd( 4S)     0.00003
   125    C    9  px     Val( 2p)     1.15087
   126    C    9  px     Ryd( 3p)     0.00499
   127    C    9  py     Val( 2p)     0.96163
   128    C    9  py     Ryd( 3p)     0.00332
   129    C    9  pz     Val( 2p)     1.13042
   130    C    9  pz     Ryd( 3p)     0.00144
   131    C    9  dxy    Ryd( 3d)     0.00112
   132    C    9  dxz    Ryd( 3d)     0.00098
   133    C    9  dyz    Ryd( 3d)     0.00109
   134    C    9  dx2y2  Ryd( 3d)     0.00064
   135    C    9  dz2    Ryd( 3d)     0.00065

   136    C   10  S      Cor( 1S)     1.99944
   137    C   10  S      Val( 2S)     1.11513
   138    C   10  S      Ryd( 3S)     0.00040
   139    C   10  S      Ryd( 4S)     0.00001
   140    C   10  px     Val( 2p)     1.24750
   141    C   10  px     Ryd( 3p)     0.00120
   142    C   10  py     Val( 2p)     1.22157
   143    C   10  py     Ryd( 3p)     0.00137
   144    C   10  pz     Val( 2p)     1.10738
   145    C   10  pz     Ryd( 3p)     0.00096
   146    C   10  dxy    Ryd( 3d)     0.00065
   147    C   10  dxz    Ryd( 3d)     0.00076
   148    C   10  dyz    Ryd( 3d)     0.00051
   149    C   10  dx2y2  Ryd( 3d)     0.00037
   150    C   10  dz2    Ryd( 3d)     0.00043

   151    C   11  S      Cor( 1S)     1.99910
   152    C   11  S      Val( 2S)     0.93564
   153    C   11  S      Ryd( 3S)     0.00073
   154    C   11  S      Ryd( 4S)     0.00004
   155    C   11  px     Val( 2p)     1.09782
   156    C   11  px     Ryd( 3p)     0.00392
   157    C   11  py     Val( 2p)     1.14627
   158    C   11  py     Ryd( 3p)     0.00447
   159    C   11  pz     Val( 2p)     1.17693
   160    C   11  pz     Ryd( 3p)     0.00753
   161    C   11  dxy    Ryd( 3d)     0.00068
   162    C   11  dxz    Ryd( 3d)     0.00065
   163    C   11  dyz    Ryd( 3d)     0.00031
   164    C   11  dx2y2  Ryd( 3d)     0.00054
   165    C   11  dz2    Ryd( 3d)     0.00040

   166    C   12  S      Cor( 1S)     1.99905
   167    C   12  S      Val( 2S)     0.93829
   168    C   12  S      Ryd( 3S)     0.00075
   169    C   12  S      Ryd( 4S)     0.00004
   170    C   12  px     Val( 2p)     1.09446
   171    C   12  px     Ryd( 3p)     0.00473
   172    C   12  py     Val( 2p)     1.14664
   173    C   12  py     Ryd( 3p)     0.00452
   174    C   12  pz     Val( 2p)     1.19137
   175    C   12  pz     Ryd( 3p)     0.00705
   176    C   12  dxy    Ryd( 3d)     0.00068
   177    C   12  dxz    Ryd( 3d)     0.00057
   178    C   12  dyz    Ryd( 3d)     0.00032
   179    C   12  dx2y2  Ryd( 3d)     0.00054
   180    C   12  dz2    Ryd( 3d)     0.00039

   181    H   13  S      Val( 1S)     0.58226
   182    H   13  S      Ryd( 2S)     0.00202
   183    H   13  px     Ryd( 2p)     0.00030
   184    H   13  py     Ryd( 2p)     0.00047
   185    H   13  pz     Ryd( 2p)     0.00052

   186    H   14  S      Val( 1S)     0.58226
   187    H   14  S      Ryd( 2S)     0.00202
   188    H   14  px     Ryd( 2p)     0.00030
   189    H   14  py     Ryd( 2p)     0.00047
   190    H   14  pz     Ryd( 2p)     0.00052

   191    H   15  S      Val( 1S)     0.77335
   192    H   15  S      Ryd( 2S)     0.00105
   193    H   15  px     Ryd( 2p)     0.00014
   194    H   15  py     Ryd( 2p)     0.00031
   195    H   15  pz     Ryd( 2p)     0.00022

   196    H   16  S      Val( 1S)     0.77090
   197    H   16  S      Ryd( 2S)     0.00107
   198    H   16  px     Ryd( 2p)     0.00014
   199    H   16  py     Ryd( 2p)     0.00032
   200    H   16  pz     Ryd( 2p)     0.00024

   201    H   17  S      Val( 1S)     0.74532
   202    H   17  S      Ryd( 2S)     0.00117
   203    H   17  px     Ryd( 2p)     0.00031
   204    H   17  py     Ryd( 2p)     0.00006
   205    H   17  pz     Ryd( 2p)     0.00017

   206    H   18  S      Val( 1S)     0.74375
   207    H   18  S      Ryd( 2S)     0.00265
   208    H   18  px     Ryd( 2p)     0.00015
   209    H   18  py     Ryd( 2p)     0.00020
   210    H   18  pz     Ryd( 2p)     0.00020

   211    H   19  S      Val( 1S)     0.75718
   212    H   19  S      Ryd( 2S)     0.00255
   213    H   19  px     Ryd( 2p)     0.00027
   214    H   19  py     Ryd( 2p)     0.00009
   215    H   19  pz     Ryd( 2p)     0.00016

   216    H   20  S      Val( 1S)     0.74968
   217    H   20  S      Ryd( 2S)     0.00084
   218    H   20  px     Ryd( 2p)     0.00014
   219    H   20  py     Ryd( 2p)     0.00029
   220    H   20  pz     Ryd( 2p)     0.00008

   221    H   21  S      Val( 1S)     0.76232
   222    H   21  S      Ryd( 2S)     0.00095
   223    H   21  px     Ryd( 2p)     0.00017
   224    H   21  py     Ryd( 2p)     0.00017
   225    H   21  pz     Ryd( 2p)     0.00016

   226    H   22  S      Val( 1S)     0.74532
   227    H   22  S      Ryd( 2S)     0.00117
   228    H   22  px     Ryd( 2p)     0.00031
   229    H   22  py     Ryd( 2p)     0.00006
   230    H   22  pz     Ryd( 2p)     0.00017

   231    H   23  S      Val( 1S)     0.74375
   232    H   23  S      Ryd( 2S)     0.00265
   233    H   23  px     Ryd( 2p)     0.00015
   234    H   23  py     Ryd( 2p)     0.00020
   235    H   23  pz     Ryd( 2p)     0.00020

   236    H   24  S      Val( 1S)     0.76232
   237    H   24  S      Ryd( 2S)     0.00095
   238    H   24  px     Ryd( 2p)     0.00018
   239    H   24  py     Ryd( 2p)     0.00017
   240    H   24  pz     Ryd( 2p)     0.00016

   241    H   25  S      Val( 1S)     0.74967
   242    H   25  S      Ryd( 2S)     0.00084
   243    H   25  px     Ryd( 2p)     0.00014
   244    H   25  py     Ryd( 2p)     0.00029
   245    H   25  pz     Ryd( 2p)     0.00008

   246    H   26  S      Val( 1S)     0.75719
   247    H   26  S      Ryd( 2S)     0.00255
   248    H   26  px     Ryd( 2p)     0.00027
   249    H   26  py     Ryd( 2p)     0.00009
   250    H   26  pz     Ryd( 2p)     0.00016

   251    H   27  S      Val( 1S)     0.77090
   252    H   27  S      Ryd( 2S)     0.00107
   253    H   27  px     Ryd( 2p)     0.00014
   254    H   27  py     Ryd( 2p)     0.00032
   255    H   27  pz     Ryd( 2p)     0.00024

   256    H   28  S      Val( 1S)     0.77335
   257    H   28  S      Ryd( 2S)     0.00105
   258    H   28  px     Ryd( 2p)     0.00014
   259    H   28  py     Ryd( 2p)     0.00031
   260    H   28  pz     Ryd( 2p)     0.00022

 WARNING:  1 low occupancy (<1.9990e) core orbital  found on  C    2
           1 low occupancy (<1.9990e) core orbital  found on  C    5


 Summary of Natural Population Analysis:                  
                                                          
                                       Natural Population 
                Natural  -----------------------------------------------
    Atom  No    Charge         Core      Valence    Rydberg      Total
 -----------------------------------------------------------------------
      N    1   -0.78956      1.99951     5.77874    0.01131     7.78956
      C    2    0.19572      1.99893     3.78738    0.01798     5.80428
      C    3   -0.38941      1.99905     4.37076    0.01960     6.38941
      C    4   -0.37505      1.99910     4.35666    0.01929     6.37505
      C    5    0.16561      1.99900     3.81585    0.01954     5.83439
      N    6   -0.28972      1.99933     5.27848    0.01190     7.28972
      C    7   -0.27658      1.99934     4.26161    0.01563     6.27658
      C    8   -0.69766      1.99944     4.69157    0.00665     6.69766
      C    9   -0.27657      1.99934     4.26160    0.01563     6.27657
      C   10   -0.69768      1.99944     4.69159    0.00665     6.69768
      C   11   -0.37504      1.99910     4.35665    0.01929     6.37504
      C   12   -0.38941      1.99905     4.37076    0.01960     6.38941
      H   13    0.41444      0.00000     0.58226    0.00330     0.58556
      H   14    0.41444      0.00000     0.58226    0.00330     0.58556
      H   15    0.22493      0.00000     0.77335    0.00172     0.77507
      H   16    0.22734      0.00000     0.77090    0.00177     0.77266
      H   17    0.25297      0.00000     0.74532    0.00171     0.74703
      H   18    0.25305      0.00000     0.74375    0.00320     0.74695
      H   19    0.23975      0.00000     0.75718    0.00307     0.76025
      H   20    0.24897      0.00000     0.74968    0.00135     0.75103
      H   21    0.23621      0.00000     0.76232    0.00146     0.76379
      H   22    0.25298      0.00000     0.74532    0.00171     0.74702
      H   23    0.25305      0.00000     0.74375    0.00321     0.74695
      H   24    0.23622      0.00000     0.76232    0.00146     0.76378
      H   25    0.24898      0.00000     0.74967    0.00135     0.75102
      H   26    0.23975      0.00000     0.75719    0.00307     0.76025
      H   27    0.22734      0.00000     0.77090    0.00177     0.77266
      H   28    0.22493      0.00000     0.77335    0.00172     0.77507
 =======================================================================
   * Total *    0.00000     23.99063    65.79114    0.21823    90.00000

                                 Natural Population      
 --------------------------------------------------------
   Core                      23.99063 ( 99.9609% of  24)
   Valence                   65.79114 ( 99.6835% of  66)
   Natural Minimal Basis     89.78177 ( 99.7575% of  90)
   Natural Rydberg Basis      0.21823 (  0.2425% of  90)
 --------------------------------------------------------

    Atom  No          Natural Electron Configuration
 ----------------------------------------------------------------------------
      N    1      [core]2S( 1.39)2p( 4.39)3p( 0.01)
      C    2      [core]2S( 0.85)2p( 2.94)3p( 0.01)3d( 0.01)
      C    3      [core]2S( 0.94)2p( 3.43)3p( 0.02)
      C    4      [core]2S( 0.94)2p( 3.42)3p( 0.02)
      C    5      [core]2S( 0.83)2p( 2.99)3p( 0.01)
      N    6      [core]2S( 1.19)2p( 4.08)3p( 0.01)
      C    7      [core]2S( 1.02)2p( 3.24)3p( 0.01)
      C    8      [core]2S( 1.12)2p( 3.58)
      C    9      [core]2S( 1.02)2p( 3.24)3p( 0.01)
      C   10      [core]2S( 1.12)2p( 3.58)
      C   11      [core]2S( 0.94)2p( 3.42)3p( 0.02)
      C   12      [core]2S( 0.94)2p( 3.43)3p( 0.02)
      H   13            1S( 0.58)
      H   14            1S( 0.58)
      H   15            1S( 0.77)
      H   16            1S( 0.77)
      H   17            1S( 0.75)
      H   18            1S( 0.74)
      H   19            1S( 0.76)
      H   20            1S( 0.75)
      H   21            1S( 0.76)
      H   22            1S( 0.75)
      H   23            1S( 0.74)
      H   24            1S( 0.76)
      H   25            1S( 0.75)
      H   26            1S( 0.76)
      H   27            1S( 0.77)
      H   28            1S( 0.77)


 NBO analysis skipped by request.
 1\1\GINC-CN13\SP\RB3LYP TD-FC\6-31G(d,p)\C10H16N2\QDUEZ\11-Jul-2024\0\
 \# TD(NStates=10, Root=1) B3LYP/6-31G** SCRF=(Solvent=water) volume po
 p=NPA density=current Geom=AllCheck Guess=Read\\QNGVNLMMEQUVQK-UHFFFAO
 YSA-N_conf_0\\0,1\N,0,4.4831943936,0.3795674113,-0.3765178273\C,0,3.08
 12386755,0.2191880277,-0.3322480651\C,0,2.2192899309,1.1528135827,-0.9
 237657301\C,0,0.8382788733,0.9654943222,-0.940854012\C,0,0.2350849962,
 -0.1803297221,-0.3724320522\N,0,-1.1442892117,-0.3979805492,-0.4342767
 118\C,0,-2.03339429,0.6108182654,-1.0016512288\C,0,-2.352948953,1.8030
 3189,-0.086426383\C,0,-1.7471377231,-1.5521240649,0.2249513672\C,0,-1.
 9275174343,-1.427598521,1.7458357932\C,0,1.1125354465,-1.1068197173,0.
 2371088972\C,0,2.4925347934,-0.9118113698,0.2497867306\H,0,4.767249247
 7,1.3522423918,-0.4132702482\H,0,4.9559933528,-0.0739258238,0.39739439
 15\H,0,2.6326204614,2.0502971632,-1.3785010503\H,0,0.2315487994,1.7332
 580751,-1.4046166337\H,0,-2.9658593662,0.1055626369,-1.2720022193\H,0,
 -1.607199013,0.975222959,-1.9442959046\H,0,-1.4420044098,2.3222085867,
 0.2253077218\H,0,-2.9896807769,2.5226520974,-0.6127399699\H,0,-2.88205
 91819,1.478379086,0.8142871003\H,0,-2.7240018451,-1.7172366662,-0.2402
 022918\H,0,-1.1533062614,-2.4457363931,-0.0026359294\H,0,-2.6091747917
 ,-0.6096407474,1.9967116134\H,0,-2.3459557875,-2.3545208381,2.15328426
 95\H,0,-0.97362719,-1.2383418626,2.2466594602\H,0,0.7252903728,-1.9974
 368079,0.716168899\H,0,3.1232968923,-1.657233412,0.7289400135\\Version
 =EM64L-G16RevA.03\State=1-A\HF=-500.2283634\RMSD=7.405e-09\Dipole=-1.3
 542316,0.1320848,0.5479188\Quadrupole=10.2443279,-2.7255808,-7.5187471
 ,4.4280574,4.9709913,-2.5558135\PG=C01 [X(C10H16N2)]\\@


      TO SUSPECT YOUR OWN MORTALITY IS TO KNOW THE BEGINNING OF TERROR.
      TO LEARN IRREFUTABLY THAT YOU ARE MORTAL IS TO KNOW THE END
      OF TERROR.

                                                  -- JESSICA
                                                     CHILDREN OF DUNE
                                                     BY FRANK HERBERT
 Job cpu time:       0 days  1 hours 19 minutes 40.4 seconds.
 Elapsed time:       0 days  0 hours 23 minutes 48.8 seconds.
 File lengths (MBytes):  RWF=    580 Int=      0 D2E=      0 Chk=     37 Scr=      1
 Normal termination of Gaussian 16 at Thu Jul 11 22:23:21 2024.
