 Entering Gaussian System, Link 0=g16
 Initial command:
 /opt/sw/arch/manual/gaussian/G16_A03/g16/l1.exe "/scratch/1380853/Gau-66045.inp" -scrdir="/scratch/1380853/"
 Entering Link 1 = /opt/sw/arch/manual/gaussian/G16_A03/g16/l1.exe PID=     66046.
  
 Copyright (c) 1988,1990,1992,1993,1995,1998,2003,2009,2016,
            Gaussian, Inc.  All Rights Reserved.
  
 This is part of the Gaussian(R) 16 program.  It is based on
 the Gaussian(R) 09 system (copyright 2009, Gaussian, Inc.),
 the Gaussian(R) 03 system (copyright 2003, Gaussian, Inc.),
 the Gaussian(R) 98 system (copyright 1998, Gaussian, Inc.),
 the Gaussian(R) 94 system (copyright 1995, Gaussian, Inc.),
 the Gaussian 92(TM) system (copyright 1992, Gaussian, Inc.),
 the Gaussian 90(TM) system (copyright 1990, Gaussian, Inc.),
 the Gaussian 88(TM) system (copyright 1988, Gaussian, Inc.),
 the Gaussian 86(TM) system (copyright 1986, Carnegie Mellon
 University), and the Gaussian 82(TM) system (copyright 1983,
 Carnegie Mellon University). Gaussian is a federally registered
 trademark of Gaussian, Inc.
  
 This software contains proprietary and confidential information,
 including trade secrets, belonging to Gaussian, Inc.
  
 This software is provided under written license and may be
 used, copied, transmitted, or stored only in accord with that
 written license.
  
 The following legend is applicable only to US Government
 contracts under FAR:
  
                    RESTRICTED RIGHTS LEGEND
  
 Use, reproduction and disclosure by the US Government is
 subject to restrictions as set forth in subparagraphs (a)
 and (c) of the Commercial Computer Software - Restricted
 Rights clause in FAR 52.227-19.
  
 Gaussian, Inc.
 340 Quinnipiac St., Bldg. 40, Wallingford CT 06492
  
  
 ---------------------------------------------------------------
 Warning -- This program may not be used in any manner that
 competes with the business of Gaussian, Inc. or will provide
 assistance to any competitor of Gaussian, Inc.  The licensee
 of this program is prohibited from giving any competitor of
 Gaussian, Inc. access to this program.  By using this program,
 the user acknowledges that Gaussian, Inc. is engaged in the
 business of creating and licensing software in the field of
 computational chemistry and represents and warrants to the
 licensee that it is not a competitor of Gaussian, Inc. and that
 it will not use this program in any manner prohibited above.
 ---------------------------------------------------------------
  

 Cite this work as:
 Gaussian 16, Revision A.03,
 M. J. Frisch, G. W. Trucks, H. B. Schlegel, G. E. Scuseria, 
 M. A. Robb, J. R. Cheeseman, G. Scalmani, V. Barone, 
 G. A. Petersson, H. Nakatsuji, X. Li, M. Caricato, A. V. Marenich, 
 J. Bloino, B. G. Janesko, R. Gomperts, B. Mennucci, H. P. Hratchian, 
 J. V. Ortiz, A. F. Izmaylov, J. L. Sonnenberg, D. Williams-Young, 
 F. Ding, F. Lipparini, F. Egidi, J. Goings, B. Peng, A. Petrone, 
 T. Henderson, D. Ranasinghe, V. G. Zakrzewski, J. Gao, N. Rega, 
 G. Zheng, W. Liang, M. Hada, M. Ehara, K. Toyota, R. Fukuda, 
 J. Hasegawa, M. Ishida, T. Nakajima, Y. Honda, O. Kitao, H. Nakai, 
 T. Vreven, K. Throssell, J. A. Montgomery, Jr., J. E. Peralta, 
 F. Ogliaro, M. J. Bearpark, J. J. Heyd, E. N. Brothers, K. N. Kudin, 
 V. N. Staroverov, T. A. Keith, R. Kobayashi, J. Normand, 
 K. Raghavachari, A. P. Rendell, J. C. Burant, S. S. Iyengar, 
 J. Tomasi, M. Cossi, J. M. Millam, M. Klene, C. Adamo, R. Cammi, 
 J. W. Ochterski, R. L. Martin, K. Morokuma, O. Farkas, 
 J. B. Foresman, and D. J. Fox, Gaussian, Inc., Wallingford CT, 2016.
 
 ******************************************
 Gaussian 16:  ES64L-G16RevA.03 25-Dec-2016
                17-Jul-2024 
 ******************************************
 %nprocshared=4
 Will use up to    4 processors via shared memory.
 %mem=8GB
 %Chk=ICNFHJVPAJKPHW-UHFFFAOYSA-N_conf_1_0.chk
 -------------------------------------------------------
 # opt=CalcFc B3LYP/6-31G** SCRF=(Solvent=water) scf=xqc
 -------------------------------------------------------
 1/10=4,18=20,19=15,26=3,38=1/1,3;
 2/9=110,12=2,17=6,18=5,40=1/2;
 3/5=1,6=6,7=101,11=2,25=1,30=1,70=2201,71=2,72=1,74=-5,140=1/1,2,3;
 4//1;
 5/5=2,8=3,13=1,38=5,53=1/2,8;
 8/6=4,10=90,11=11/1;
 11/6=1,8=1,9=11,15=111,16=1/1,2,10;
 10/6=1,13=1/2;
 6/7=2,8=2,9=2,10=2,28=1/1;
 7/10=1,18=20,25=1/1,2,3,16;
 1/10=4,18=20,19=15,26=3/3(2);
 2/9=110/2;
 99//99;
 2/9=110/2;
 3/5=1,6=6,7=101,11=2,25=1,30=1,70=2205,71=1,72=1,74=-5/1,2,3;
 4/5=5,16=3,69=1/1;
 5/5=2,8=3,13=1,38=5,53=1/2,8;
 7//1,2,3,16;
 1/18=20,19=15,26=3/3(-5);
 2/9=110/2;
 6/7=2,8=2,9=2,10=2,19=2,28=1/1;
 99/9=1/99;
 ----------------------------------
 ICNFHJVPAJKPHW-UHFFFAOYSA-N_conf_1
 ----------------------------------
 Symbolic Z-matrix:
 Charge =  0 Multiplicity = 1
 N                     4.67639   1.39925   0.53165 
 C                     3.63635   0.51139   0.23653 
 C                     2.66736   0.85108  -0.70966 
 C                     1.5589    0.02559  -0.92707 
 C                     1.37784  -1.12893  -0.16124 
 S                    -0.01865  -2.20973  -0.41253 
 C                    -1.39711  -1.08743  -0.26507 
 C                    -2.34102  -1.02507  -1.29281 
 C                    -3.43426  -0.15724  -1.19725 
 C                    -3.6282    0.62384  -0.05624 
 N                    -4.65318   1.57517  -0.01848 
 C                    -2.65667   0.59495   0.9462 
 C                    -1.56206  -0.27182   0.85734 
 C                     2.31966  -1.44569   0.82045 
 C                     3.42678  -0.61686   1.03197 
 H                     4.94213   1.99332  -0.24755 
 H                     5.47874   0.96028   0.9721 
 H                     2.76583   1.76344  -1.29179 
 H                     0.83486   0.30433  -1.68866 
 H                    -2.22814  -1.63826  -2.18352 
 H                    -4.1355   -0.10023  -2.02544 
 H                    -4.91171   1.8626    0.92026 
 H                    -5.46112   1.33119  -0.58254 
 H                    -2.74234   1.24687   1.81145 
 H                    -0.83587  -0.2892    1.66622 
 H                     2.19453  -2.33029   1.44007 
 H                     4.12647  -0.86484   1.82559 
 

 GradGradGradGradGradGradGradGradGradGradGradGradGradGradGradGradGradGrad
 Berny optimization.
 Initialization pass.
                           ----------------------------
                           !    Initial Parameters    !
                           ! (Angstroms and Degrees)  !
 --------------------------                            --------------------------
 ! Name  Definition              Value          Derivative Info.                !
 --------------------------------------------------------------------------------
 ! R1    R(1,2)                  1.399          calculate D2E/DX2 analytically  !
 ! R2    R(1,16)                 1.0152         calculate D2E/DX2 analytically  !
 ! R3    R(1,17)                 1.0151         calculate D2E/DX2 analytically  !
 ! R4    R(2,3)                  1.3963         calculate D2E/DX2 analytically  !
 ! R5    R(2,15)                 1.3963         calculate D2E/DX2 analytically  !
 ! R6    R(3,4)                  1.3991         calculate D2E/DX2 analytically  !
 ! R7    R(3,18)                 1.0867         calculate D2E/DX2 analytically  !
 ! R8    R(4,5)                  1.3972         calculate D2E/DX2 analytically  !
 ! R9    R(4,19)                 1.0872         calculate D2E/DX2 analytically  !
 ! R10   R(5,6)                  1.7837         calculate D2E/DX2 analytically  !
 ! R11   R(5,14)                 1.3968         calculate D2E/DX2 analytically  !
 ! R12   R(6,7)                  1.7837         calculate D2E/DX2 analytically  !
 ! R13   R(7,8)                  1.3968         calculate D2E/DX2 analytically  !
 ! R14   R(7,13)                 1.3972         calculate D2E/DX2 analytically  !
 ! R15   R(8,9)                  1.3991         calculate D2E/DX2 analytically  !
 ! R16   R(8,20)                 1.0872         calculate D2E/DX2 analytically  !
 ! R17   R(9,10)                 1.3963         calculate D2E/DX2 analytically  !
 ! R18   R(9,21)                 1.0867         calculate D2E/DX2 analytically  !
 ! R19   R(10,11)                1.399          calculate D2E/DX2 analytically  !
 ! R20   R(10,12)                1.3963         calculate D2E/DX2 analytically  !
 ! R21   R(11,22)                1.0152         calculate D2E/DX2 analytically  !
 ! R22   R(11,23)                1.0151         calculate D2E/DX2 analytically  !
 ! R23   R(12,13)                1.3991         calculate D2E/DX2 analytically  !
 ! R24   R(12,24)                1.0867         calculate D2E/DX2 analytically  !
 ! R25   R(13,25)                1.0872         calculate D2E/DX2 analytically  !
 ! R26   R(14,15)                1.3991         calculate D2E/DX2 analytically  !
 ! R27   R(14,26)                1.0872         calculate D2E/DX2 analytically  !
 ! R28   R(15,27)                1.0867         calculate D2E/DX2 analytically  !
 ! A1    A(2,1,16)             113.8326         calculate D2E/DX2 analytically  !
 ! A2    A(2,1,17)             113.8723         calculate D2E/DX2 analytically  !
 ! A3    A(16,1,17)            112.2824         calculate D2E/DX2 analytically  !
 ! A4    A(1,2,3)              120.2973         calculate D2E/DX2 analytically  !
 ! A5    A(1,2,15)             120.2808         calculate D2E/DX2 analytically  !
 ! A6    A(3,2,15)             118.5853         calculate D2E/DX2 analytically  !
 ! A7    A(2,3,4)              120.7704         calculate D2E/DX2 analytically  !
 ! A8    A(2,3,18)             120.2886         calculate D2E/DX2 analytically  !
 ! A9    A(4,3,18)             118.9409         calculate D2E/DX2 analytically  !
 ! A10   A(3,4,5)              120.3338         calculate D2E/DX2 analytically  !
 ! A11   A(3,4,19)             119.0283         calculate D2E/DX2 analytically  !
 ! A12   A(5,4,19)             120.6312         calculate D2E/DX2 analytically  !
 ! A13   A(4,5,6)              121.6639         calculate D2E/DX2 analytically  !
 ! A14   A(4,5,14)             119.027          calculate D2E/DX2 analytically  !
 ! A15   A(6,5,14)             119.3083         calculate D2E/DX2 analytically  !
 ! A16   A(5,6,7)              102.2488         calculate D2E/DX2 analytically  !
 ! A17   A(6,7,8)              119.3083         calculate D2E/DX2 analytically  !
 ! A18   A(6,7,13)             121.6639         calculate D2E/DX2 analytically  !
 ! A19   A(8,7,13)             119.027          calculate D2E/DX2 analytically  !
 ! A20   A(7,8,9)              120.363          calculate D2E/DX2 analytically  !
 ! A21   A(7,8,20)             120.4929         calculate D2E/DX2 analytically  !
 ! A22   A(9,8,20)             119.1375         calculate D2E/DX2 analytically  !
 ! A23   A(8,9,10)             120.7527         calculate D2E/DX2 analytically  !
 ! A24   A(8,9,21)             118.9949         calculate D2E/DX2 analytically  !
 ! A25   A(10,9,21)            120.2522         calculate D2E/DX2 analytically  !
 ! A26   A(9,10,11)            120.2808         calculate D2E/DX2 analytically  !
 ! A27   A(9,10,12)            118.5853         calculate D2E/DX2 analytically  !
 ! A28   A(11,10,12)           120.2973         calculate D2E/DX2 analytically  !
 ! A29   A(10,11,22)           113.8326         calculate D2E/DX2 analytically  !
 ! A30   A(10,11,23)           113.8723         calculate D2E/DX2 analytically  !
 ! A31   A(22,11,23)           112.2824         calculate D2E/DX2 analytically  !
 ! A32   A(10,12,13)           120.7704         calculate D2E/DX2 analytically  !
 ! A33   A(10,12,24)           120.2885         calculate D2E/DX2 analytically  !
 ! A34   A(13,12,24)           118.9409         calculate D2E/DX2 analytically  !
 ! A35   A(7,13,12)            120.3338         calculate D2E/DX2 analytically  !
 ! A36   A(7,13,25)            120.6312         calculate D2E/DX2 analytically  !
 ! A37   A(12,13,25)           119.0283         calculate D2E/DX2 analytically  !
 ! A38   A(5,14,15)            120.363          calculate D2E/DX2 analytically  !
 ! A39   A(5,14,26)            120.4929         calculate D2E/DX2 analytically  !
 ! A40   A(15,14,26)           119.1375         calculate D2E/DX2 analytically  !
 ! A41   A(2,15,14)            120.7527         calculate D2E/DX2 analytically  !
 ! A42   A(2,15,27)            120.2522         calculate D2E/DX2 analytically  !
 ! A43   A(14,15,27)           118.9949         calculate D2E/DX2 analytically  !
 ! D1    D(16,1,2,3)           -29.9022         calculate D2E/DX2 analytically  !
 ! D2    D(16,1,2,15)          160.717          calculate D2E/DX2 analytically  !
 ! D3    D(17,1,2,3)          -160.3528         calculate D2E/DX2 analytically  !
 ! D4    D(17,1,2,15)           30.2664         calculate D2E/DX2 analytically  !
 ! D5    D(1,2,3,4)           -174.2768         calculate D2E/DX2 analytically  !
 ! D6    D(1,2,3,18)             5.8799         calculate D2E/DX2 analytically  !
 ! D7    D(15,2,3,4)            -4.7181         calculate D2E/DX2 analytically  !
 ! D8    D(15,2,3,18)          175.4385         calculate D2E/DX2 analytically  !
 ! D9    D(1,2,15,14)          174.2063         calculate D2E/DX2 analytically  !
 ! D10   D(1,2,15,27)           -5.945          calculate D2E/DX2 analytically  !
 ! D11   D(3,2,15,14)            4.646          calculate D2E/DX2 analytically  !
 ! D12   D(3,2,15,27)         -175.5054         calculate D2E/DX2 analytically  !
 ! D13   D(2,3,4,5)              2.4935         calculate D2E/DX2 analytically  !
 ! D14   D(2,3,4,19)          -178.4445         calculate D2E/DX2 analytically  !
 ! D15   D(18,3,4,5)          -177.6611         calculate D2E/DX2 analytically  !
 ! D16   D(18,3,4,19)            1.4009         calculate D2E/DX2 analytically  !
 ! D17   D(3,4,5,6)           -179.7609         calculate D2E/DX2 analytically  !
 ! D18   D(3,4,5,14)            -0.0998         calculate D2E/DX2 analytically  !
 ! D19   D(19,4,5,6)             1.1922         calculate D2E/DX2 analytically  !
 ! D20   D(19,4,5,14)         -179.1466         calculate D2E/DX2 analytically  !
 ! D21   D(4,5,6,7)            -54.2612         calculate D2E/DX2 analytically  !
 ! D22   D(14,5,6,7)           126.0785         calculate D2E/DX2 analytically  !
 ! D23   D(4,5,14,15)            0.029          calculate D2E/DX2 analytically  !
 ! D24   D(4,5,14,26)          179.0867         calculate D2E/DX2 analytically  !
 ! D25   D(6,5,14,15)          179.6983         calculate D2E/DX2 analytically  !
 ! D26   D(6,5,14,26)           -1.2441         calculate D2E/DX2 analytically  !
 ! D27   D(5,6,7,8)            126.0785         calculate D2E/DX2 analytically  !
 ! D28   D(5,6,7,13)           -54.2613         calculate D2E/DX2 analytically  !
 ! D29   D(6,7,8,9)            179.6983         calculate D2E/DX2 analytically  !
 ! D30   D(6,7,8,20)            -1.2442         calculate D2E/DX2 analytically  !
 ! D31   D(13,7,8,9)             0.029          calculate D2E/DX2 analytically  !
 ! D32   D(13,7,8,20)          179.0865         calculate D2E/DX2 analytically  !
 ! D33   D(6,7,13,12)         -179.7609         calculate D2E/DX2 analytically  !
 ! D34   D(6,7,13,25)            1.1922         calculate D2E/DX2 analytically  !
 ! D35   D(8,7,13,12)           -0.0997         calculate D2E/DX2 analytically  !
 ! D36   D(8,7,13,25)         -179.1466         calculate D2E/DX2 analytically  !
 ! D37   D(7,8,9,10)            -2.3497         calculate D2E/DX2 analytically  !
 ! D38   D(7,8,9,21)           177.7997         calculate D2E/DX2 analytically  !
 ! D39   D(20,8,9,10)          178.58           calculate D2E/DX2 analytically  !
 ! D40   D(20,8,9,21)           -1.2706         calculate D2E/DX2 analytically  !
 ! D41   D(8,9,10,11)          174.2064         calculate D2E/DX2 analytically  !
 ! D42   D(8,9,10,12)            4.646          calculate D2E/DX2 analytically  !
 ! D43   D(21,9,10,11)          -5.9449         calculate D2E/DX2 analytically  !
 ! D44   D(21,9,10,12)        -175.5053         calculate D2E/DX2 analytically  !
 ! D45   D(9,10,11,22)         160.7169         calculate D2E/DX2 analytically  !
 ! D46   D(9,10,11,23)          30.2664         calculate D2E/DX2 analytically  !
 ! D47   D(12,10,11,22)        -29.9023         calculate D2E/DX2 analytically  !
 ! D48   D(12,10,11,23)       -160.3528         calculate D2E/DX2 analytically  !
 ! D49   D(9,10,12,13)          -4.7182         calculate D2E/DX2 analytically  !
 ! D50   D(9,10,12,24)         175.4385         calculate D2E/DX2 analytically  !
 ! D51   D(11,10,12,13)       -174.2768         calculate D2E/DX2 analytically  !
 ! D52   D(11,10,12,24)          5.8799         calculate D2E/DX2 analytically  !
 ! D53   D(10,12,13,7)           2.4935         calculate D2E/DX2 analytically  !
 ! D54   D(10,12,13,25)       -178.4445         calculate D2E/DX2 analytically  !
 ! D55   D(24,12,13,7)        -177.6611         calculate D2E/DX2 analytically  !
 ! D56   D(24,12,13,25)          1.4009         calculate D2E/DX2 analytically  !
 ! D57   D(5,14,15,2)           -2.3497         calculate D2E/DX2 analytically  !
 ! D58   D(5,14,15,27)         177.7998         calculate D2E/DX2 analytically  !
 ! D59   D(26,14,15,2)         178.58           calculate D2E/DX2 analytically  !
 ! D60   D(26,14,15,27)         -1.2706         calculate D2E/DX2 analytically  !
 --------------------------------------------------------------------------------
 Trust Radius=3.00D-01 FncErr=1.00D-07 GrdErr=1.00D-06 EigMax=2.50D+02 EigMin=1.00D-04
 Number of steps in this run=    141 maximum allowed number of steps=    162.
 GradGradGradGradGradGradGradGradGradGradGradGradGradGradGradGradGradGrad

                          Input orientation:                          
 ---------------------------------------------------------------------
 Center     Atomic      Atomic             Coordinates (Angstroms)
 Number     Number       Type             X           Y           Z
 ---------------------------------------------------------------------
      1          7           0        4.676389    1.399253    0.531645
      2          6           0        3.636349    0.511394    0.236533
      3          6           0        2.667361    0.851075   -0.709660
      4          6           0        1.558902    0.025595   -0.927074
      5          6           0        1.377836   -1.128933   -0.161241
      6         16           0       -0.018654   -2.209733   -0.412526
      7          6           0       -1.397114   -1.087430   -0.265072
      8          6           0       -2.341020   -1.025068   -1.292806
      9          6           0       -3.434258   -0.157242   -1.197250
     10          6           0       -3.628197    0.623836   -0.056242
     11          7           0       -4.653184    1.575173   -0.018478
     12          6           0       -2.656666    0.594952    0.946203
     13          6           0       -1.562056   -0.271824    0.857336
     14          6           0        2.319662   -1.445690    0.820450
     15          6           0        3.426785   -0.616861    1.031970
     16          1           0        4.942127    1.993316   -0.247549
     17          1           0        5.478737    0.960282    0.972099
     18          1           0        2.765834    1.763445   -1.291788
     19          1           0        0.834857    0.304329   -1.688657
     20          1           0       -2.228142   -1.638257   -2.183517
     21          1           0       -4.135499   -0.100226   -2.025435
     22          1           0       -4.911710    1.862597    0.920257
     23          1           0       -5.461121    1.331187   -0.582540
     24          1           0       -2.742337    1.246867    1.811452
     25          1           0       -0.835873   -0.289198    1.666223
     26          1           0        2.194527   -2.330288    1.440075
     27          1           0        4.126465   -0.864842    1.825592
 ---------------------------------------------------------------------
                    Distance matrix (angstroms):
                    1          2          3          4          5
     1  N    0.000000
     2  C    1.398952   0.000000
     3  C    2.424361   1.396282   0.000000
     4  C    3.705876   2.430179   1.399060   0.000000
     5  C    4.213343   2.819535   2.425710   1.397219   0.000000
     6  S    5.996637   4.602701   4.083076   2.783906   1.783664
     7  C    6.611035   5.305054   4.524977   3.227243   2.777202
     8  C    7.645259   6.358344   5.379950   4.055496   3.888589
     9  C    8.437674   7.245432   6.203563   5.003805   5.017345
    10  C    8.361401   7.271313   6.333454   5.293603   5.305054
    11  N    9.347433   8.361401   7.388669   6.466587   6.611035
    12  C    7.388670   6.333455   5.581464   4.648047   4.524977
    13  C    6.466588   5.293604   4.648048   3.607347   3.227244
    14  C    3.705572   2.429980   2.781593   2.407752   1.396813
    15  C    2.424159   1.396280   2.401007   2.782012   2.425729
    16  H    1.015220   2.033589   2.587048   3.972391   4.739204
    17  H    1.015114   2.033949   3.277815   4.454840   4.739901
    18  H    2.666039   2.158980   1.086733   2.147050   3.401548
    19  H    4.570116   3.405523   2.148356   1.087171   2.163809
    20  H    8.016927   6.698500   5.686386   4.323049   4.165585
    21  H    9.297121   8.117402   6.993937   5.800727   5.910189
    22  H    9.607150   8.681160   7.818063   6.975387   7.048211
    23  H   10.198782   9.170982   8.143641   7.148706   7.280181
    24  H    7.529849   6.611273   5.981429   5.243252   5.148959
    25  H    5.875641   4.762954   4.383799   3.543900   2.990868
    26  H    4.571034   3.406247   3.868592   3.399646   2.162047
    27  H    2.665115   2.158552   3.391291   3.868129   3.401795
                    6          7          8          9         10
     6  S    0.000000
     7  C    1.783664   0.000000
     8  C    2.751674   1.396813   0.000000
     9  C    4.061386   2.425729   1.399078   0.000000
    10  C    4.602701   2.819535   2.429980   1.396280   0.000000
    11  N    5.996637   4.213343   3.705572   2.424159   1.398952
    12  C    4.083076   2.425710   2.781593   2.401007   1.396282
    13  C    2.783906   1.397218   2.407752   2.782012   2.430179
    14  C    2.751674   3.888590   5.134660   6.232078   6.358345
    15  C    4.061387   5.017345   6.232078   7.228733   7.245433
    16  H    6.504013   7.048211   7.952826   8.700037   8.681159
    17  H    6.495189   7.280181   8.379738   9.241017   9.170982
    18  H    4.930783   5.148958   5.818571   6.491465   6.611272
    19  H    2.945760   2.990867   3.465573   4.322022   4.762952
    20  H    2.888742   2.162047   1.087248   2.149614   3.406247
    21  H    4.898971   3.401795   2.147611   1.086684   2.158552
    22  H    6.504013   4.739204   4.454739   3.278178   2.033589
    23  H    6.495189   4.739900   3.973845   2.588719   2.033949
    24  H    4.930783   3.401547   3.867708   3.391543   2.158980
    25  H    2.945760   2.163808   3.400416   3.868914   3.405523
    26  H    2.888742   4.165586   5.453754   6.584894   6.698502
    27  H    4.898971   5.910190   7.181814   8.173298   8.117404
                   11         12         13         14         15
    11  N    0.000000
    12  C    2.424361   0.000000
    13  C    3.705876   1.399060   0.000000
    14  C    7.645260   5.379951   4.055497   0.000000
    15  C    8.437675   6.203565   5.003807   1.399078   0.000000
    16  H    9.607149   7.818063   6.975387   4.454740   3.278178
    17  H   10.198782   8.143642   7.148707   3.973846   2.588720
    18  H    7.529848   5.981428   5.243252   3.867708   3.391543
    19  H    5.875640   4.383797   3.543899   3.400416   3.868913
    20  H    4.571034   3.868592   3.399646   5.453753   6.584893
    21  H    2.665115   3.391291   3.868129   7.181813   8.173297
    22  H    1.015220   2.587049   3.972391   7.952827   8.700039
    23  H    1.015114   3.277815   4.454840   8.379738   9.241018
    24  H    2.666039   1.086733   2.147050   5.818573   6.491467
    25  H    4.570116   2.148356   1.087172   3.465575   4.322024
    26  H    8.016929   5.686388   4.323052   1.087248   2.149614
    27  H    9.297124   6.993939   5.800730   2.147611   1.086684
                   16         17         18         19         20
    16  H    0.000000
    17  H    1.686016   0.000000
    18  H    2.424773   3.623547   0.000000
    19  H    4.668954   5.392171   2.452589   0.000000
    20  H    8.267349   8.723892   6.107909   3.660669   0.000000
    21  H    9.484044  10.126373   7.186092   4.998153   2.455309
    22  H    9.923656  10.429680   7.990473   6.500589   5.393601
    23  H   10.429679  11.055992   8.268777   6.474355   4.672567
    24  H    7.990473   8.268779   6.343257   5.092687   4.954606
    25  H    6.500590   6.474357   5.092688   3.794579   4.310322
    26  H    5.393601   4.672567   4.954606   4.310321   5.759282
    27  H    3.623849   2.426554   4.298519   4.954955   7.553288
                   21         22         23         24         25
    21  H    0.000000
    22  H    3.623849   0.000000
    23  H    2.426554   1.686016   0.000000
    24  H    4.298519   2.424774   3.623547   0.000000
    25  H    4.954956   4.668954   5.392171   2.452589   0.000000
    26  H    7.553289   8.267352   8.723894   6.107913   3.660672
    27  H    9.147410   9.484048  10.126374   7.186095   4.998156
                   26         27
    26  H    0.000000
    27  H    2.455309   0.000000
 Stoichiometry    C12H12N2S
 Framework group  C1[X(C12H12N2S)]
 Deg. of freedom    75
 Full point group                 C1      NOp   1
 Largest Abelian subgroup         C1      NOp   1
 Largest concise Abelian subgroup C1      NOp   1
                         Standard orientation:                         
 ---------------------------------------------------------------------
 Center     Atomic      Atomic             Coordinates (Angstroms)
 Number     Number       Type             X           Y           Z
 ---------------------------------------------------------------------
      1          7           0        4.672607   -1.770421    0.101824
      2          6           0        3.632645   -0.835853    0.147942
      3          6           0        2.583407   -0.993782    1.055553
      4          6           0        1.480083   -0.133879    1.030821
      5          6           0        1.387280    0.867225    0.060565
      6         16           0       -0.000000    1.986710    0.000000
      7          6           0       -1.387280    0.867225   -0.060565
      8          6           0       -2.411778    0.996493    0.880063
      9          6           0       -3.513221    0.134355    0.849069
     10          6           0       -3.632645   -0.835853   -0.147942
     11          7           0       -4.672608   -1.770421   -0.101825
     12          6           0       -2.583407   -0.993781   -1.055555
     13          6           0       -1.480083   -0.133878   -1.030822
     14          6           0        2.411778    0.996494   -0.880061
     15          6           0        3.513222    0.134356   -0.849068
     16          1           0        4.861426   -2.218342    0.993108
     17          1           0        5.517458   -1.423384   -0.341177
     18          1           0        2.614137   -1.788658    1.795970
     19          1           0        0.691130   -0.266688    1.766931
     20          1           0       -2.356856    1.757577    1.654557
     21          1           0       -4.279767    0.231391    1.613186
     22          1           0       -4.861428   -2.218339   -0.993109
     23          1           0       -5.517458   -1.423384    0.341177
     24          1           0       -2.614138   -1.788656   -1.795972
     25          1           0       -0.691131   -0.266685   -1.766932
     26          1           0        2.356859    1.757580   -1.654554
     27          1           0        4.279769    0.231394   -1.613183
 ---------------------------------------------------------------------
 Rotational constants (GHZ):           1.1520358           0.2646509           0.2385356
 Standard basis: 6-31G(d,p) (6D, 7F)
 There are   289 symmetry adapted cartesian basis functions of A   symmetry.
 There are   289 symmetry adapted basis functions of A   symmetry.
   289 basis functions,   528 primitive gaussians,   289 cartesian basis functions
    57 alpha electrons       57 beta electrons
       nuclear repulsion energy       992.2738446673 Hartrees.
 NAtoms=   27 NActive=   27 NUniq=   27 SFac= 1.00D+00 NAtFMM=   60 NAOKFM=F Big=F
 Integral buffers will be    131072 words long.
 Raffenetti 2 integral format.
 Two-electron integral symmetry is turned on.
 Force inversion solution in PCM.
 ------------------------------------------------------------------------------
 Polarizable Continuum Model (PCM)
 =================================
 Model                : PCM.
 Atomic radii         : UFF (Universal Force Field).
 Polarization charges : Total charges.
 Charge compensation  : None.
 Solution method      : Matrix inversion.
 Cavity type          : Scaled VdW (van der Waals Surface) (Alpha=1.100).
 Cavity algorithm     : GePol (No added spheres)
                        Default sphere list used, NSphG=   27.
                        Lebedev-Laikov grids with approx.  5.0 points / Ang**2.
                        Smoothing algorithm: York/Karplus (Gamma=1.0000).
                        Polarization charges: spherical gaussians, with
                                              point-specific exponents (IZeta= 3).
                        Self-potential: point-specific (ISelfS= 7).
                        Self-field    : sphere-specific E.n sum rule (ISelfD= 2).
 1st derivatives      : Analytical E(r).r(x)/FMM algorithm (CHGder, D1EAlg=3).
                        Cavity 1st derivative terms included.
 2nd derivatives      : Analytical E(r).r(xy)/FMM algorithm (CHGder, D2EAlg=3).
                        Cavity 2nd derivative terms included.
 Solvent              : Water, Eps=  78.355300 Eps(inf)=   1.777849
 ------------------------------------------------------------------------------
 One-electron integrals computed using PRISM.
 NBasis=   289 RedAO= T EigKep=  4.61D-04  NBF=   289
 NBsUse=   289 1.00D-06 EigRej= -1.00D+00 NBFU=   289
 ExpMin= 1.17D-01 ExpMax= 2.19D+04 ExpMxC= 3.30D+03 IAcc=3 IRadAn=         5 AccDes= 0.00D+00
 Harris functional with IExCor=  402 and IRadAn=       5 diagonalized for initial guess.
 HarFok:  IExCor=  402 AccDes= 0.00D+00 IRadAn=         5 IDoV= 1 UseB2=F ITyADJ=14
 ICtDFT=  3500011 ScaDFX=  1.000000  1.000000  1.000000  1.000000
 FoFCou: FMM=F IPFlag=           0 FMFlag=      100000 FMFlg1=           0
         NFxFlg=           0 DoJE=T BraDBF=F KetDBF=T FulRan=T
         wScrn=  0.000000 ICntrl=       500 IOpCl=  0 I1Cent=   200000004 NGrid=           0
         NMat0=    1 NMatS0=      1 NMatT0=    0 NMatD0=    1 NMtDS0=    0 NMtDT0=    0
 Petite list used in FoFCou.
 Keep R1 ints in memory in canonical form, NReq=890231612.
 Requested convergence on RMS density matrix=1.00D-08 within  32 cycles.
 Requested convergence on MAX density matrix=1.00D-06.
 Requested convergence on             energy=1.00D-06.
 No special actions if energy rises.
 Inv3:  Mode=1 IEnd=    13932075.
 Iteration    1 A*A^-1 deviation from unit magnitude is 3.44D-15 for    119.
 Iteration    1 A*A^-1 deviation from orthogonality  is 1.86D-15 for   1473    617.
 Iteration    1 A^-1*A deviation from unit magnitude is 3.33D-15 for   1484.
 Iteration    1 A^-1*A deviation from orthogonality  is 2.19D-15 for   1453   1366.
 Error on total polarization charges =  0.01079
 SCF Done:  E(RB3LYP) =  -972.229129575     A.U. after   12 cycles
            NFock= 12  Conv=0.83D-08     -V/T= 2.0071
 QCSCF skips out because SCF is already converged.
 DoSCS=F DFT=T ScalE2(SS,OS)=  1.000000  1.000000
 Range of M.O.s used for correlation:     1   289
 NBasis=   289 NAE=    57 NBE=    57 NFC=     0 NFV=     0
 NROrb=    289 NOA=    57 NOB=    57 NVA=   232 NVB=   232
 Symmetrizing basis deriv contribution to polar:
 IMax=3 JMax=2 DiffMx= 0.00D+00
 G2DrvN: will do    28 centers at a time, making    1 passes.
 Calling FoFCou, ICntrl=  3107 FMM=F I1Cent=   0 AccDes= 0.00D+00.
 NEqPCM:  Using equilibrium solvation (IEInf=0, Eps=  78.3553, EpsInf=   1.7778)
 G2PCM: DoFxE=T DoFxN=T DoGrad=T DoDP/DQ/DG/TGxP=FFFF NFrqRd=   0 IEInf=0 SqF1=F DoCFld=F IF1Alg=4.
 End of G2Drv F.D. properties file   721 does not exist.
 End of G2Drv F.D. properties file   722 does not exist.
 End of G2Drv F.D. properties file   788 does not exist.
          IDoAtm=111111111111111111111111111
 NEqPCM:  Using equilibrium solvation (IEInf=0, Eps=  78.3553, EpsInf=   1.7778)
          Differentiating once with respect to nuclear coordinates.
 Keep R1 ints in memory in canonical form, NReq=890242852.
          There are    84 degrees of freedom in the 1st order CPHF.  IDoFFX=6 NUNeed=     0.
     78 vectors produced by pass  0 Test12= 1.57D-14 1.19D-09 XBig12= 1.07D-01 7.99D-02.
 AX will form    78 AO Fock derivatives at one time.
     78 vectors produced by pass  1 Test12= 1.57D-14 1.19D-09 XBig12= 1.55D-02 2.10D-02.
     78 vectors produced by pass  2 Test12= 1.57D-14 1.19D-09 XBig12= 1.65D-04 1.71D-03.
     78 vectors produced by pass  3 Test12= 1.57D-14 1.19D-09 XBig12= 8.93D-07 8.64D-05.
     78 vectors produced by pass  4 Test12= 1.57D-14 1.19D-09 XBig12= 1.25D-09 2.53D-06.
     60 vectors produced by pass  5 Test12= 1.57D-14 1.19D-09 XBig12= 1.33D-12 1.06D-07.
     12 vectors produced by pass  6 Test12= 1.57D-14 1.19D-09 XBig12= 1.56D-15 4.46D-09.
 InvSVY:  IOpt=1 It=  1 EMax= 4.44D-16
 Solved reduced A of dimension   462 with    84 vectors.
 End of Minotr F.D. properties file   721 does not exist.
 End of Minotr F.D. properties file   722 does not exist.
 End of Minotr F.D. properties file   788 does not exist.

 **********************************************************************

            Population analysis using the SCF density.

 **********************************************************************

 Orbital symmetries:
       Occupied  (A) (A) (A) (A) (A) (A) (A) (A) (A) (A) (A) (A)
                 (A) (A) (A) (A) (A) (A) (A) (A) (A) (A) (A) (A)
                 (A) (A) (A) (A) (A) (A) (A) (A) (A) (A) (A) (A)
                 (A) (A) (A) (A) (A) (A) (A) (A) (A) (A) (A) (A)
                 (A) (A) (A) (A) (A) (A) (A) (A) (A)
       Virtual   (A) (A) (A) (A) (A) (A) (A) (A) (A) (A) (A) (A)
                 (A) (A) (A) (A) (A) (A) (A) (A) (A) (A) (A) (A)
                 (A) (A) (A) (A) (A) (A) (A) (A) (A) (A) (A) (A)
                 (A) (A) (A) (A) (A) (A) (A) (A) (A) (A) (A) (A)
                 (A) (A) (A) (A) (A) (A) (A) (A) (A) (A) (A) (A)
                 (A) (A) (A) (A) (A) (A) (A) (A) (A) (A) (A) (A)
                 (A) (A) (A) (A) (A) (A) (A) (A) (A) (A) (A) (A)
                 (A) (A) (A) (A) (A) (A) (A) (A) (A) (A) (A) (A)
                 (A) (A) (A) (A) (A) (A) (A) (A) (A) (A) (A) (A)
                 (A) (A) (A) (A) (A) (A) (A) (A) (A) (A) (A) (A)
                 (A) (A) (A) (A) (A) (A) (A) (A) (A) (A) (A) (A)
                 (A) (A) (A) (A) (A) (A) (A) (A) (A) (A) (A) (A)
                 (A) (A) (A) (A) (A) (A) (A) (A) (A) (A) (A) (A)
                 (A) (A) (A) (A) (A) (A) (A) (A) (A) (A) (A) (A)
                 (A) (A) (A) (A) (A) (A) (A) (A) (A) (A) (A) (A)
                 (A) (A) (A) (A) (A) (A) (A) (A) (A) (A) (A) (A)
                 (A) (A) (A) (A) (A) (A) (A) (A) (A) (A) (A) (A)
                 (A) (A) (A) (A) (A) (A) (A) (A) (A) (A) (A) (A)
                 (A) (A) (A) (A) (A) (A) (A) (A) (A) (A) (A) (A)
                 (A) (A) (A) (A)
 The electronic state is 1-A.
 Alpha  occ. eigenvalues --  -88.88006 -14.33901 -14.33901 -10.22997 -10.22997
 Alpha  occ. eigenvalues --  -10.21051 -10.21051 -10.19497 -10.19496 -10.19495
 Alpha  occ. eigenvalues --  -10.19495 -10.18718 -10.18718 -10.18638 -10.18638
 Alpha  occ. eigenvalues --   -7.94042  -5.90562  -5.90176  -5.89551  -0.91730
 Alpha  occ. eigenvalues --   -0.91703  -0.85630  -0.83967  -0.77863  -0.74684
 Alpha  occ. eigenvalues --   -0.74673  -0.72852  -0.67476  -0.61787  -0.61698
 Alpha  occ. eigenvalues --   -0.59636  -0.57353  -0.52182  -0.51327  -0.50711
 Alpha  occ. eigenvalues --   -0.50615  -0.47252  -0.44787  -0.43592  -0.43281
 Alpha  occ. eigenvalues --   -0.43234  -0.41867  -0.41858  -0.40997  -0.39110
 Alpha  occ. eigenvalues --   -0.38289  -0.35970  -0.34832  -0.34772  -0.33760
 Alpha  occ. eigenvalues --   -0.31575  -0.30486  -0.25481  -0.25205  -0.25065
 Alpha  occ. eigenvalues --   -0.21348  -0.19140
 Alpha virt. eigenvalues --   -0.01148  -0.00632  -0.00337   0.00774   0.06085
 Alpha virt. eigenvalues --    0.07908   0.09605   0.09698   0.12312   0.12979
 Alpha virt. eigenvalues --    0.13096   0.13316   0.15619   0.16203   0.16916
 Alpha virt. eigenvalues --    0.17336   0.17844   0.18393   0.20042   0.20177
 Alpha virt. eigenvalues --    0.23493   0.24886   0.26952   0.28794   0.29023
 Alpha virt. eigenvalues --    0.31369   0.33080   0.33348   0.33931   0.35242
 Alpha virt. eigenvalues --    0.37724   0.38169   0.40638   0.41117   0.45747
 Alpha virt. eigenvalues --    0.49621   0.50074   0.52567   0.53425   0.53516
 Alpha virt. eigenvalues --    0.54348   0.55366   0.56373   0.56780   0.58795
 Alpha virt. eigenvalues --    0.59035   0.59543   0.59670   0.59773   0.59821
 Alpha virt. eigenvalues --    0.60043   0.61164   0.61600   0.62503   0.62815
 Alpha virt. eigenvalues --    0.64535   0.65269   0.65734   0.67722   0.69781
 Alpha virt. eigenvalues --    0.69953   0.73191   0.75124   0.76309   0.76615
 Alpha virt. eigenvalues --    0.78090   0.78520   0.81817   0.81828   0.82312
 Alpha virt. eigenvalues --    0.82960   0.84269   0.84354   0.85471   0.85587
 Alpha virt. eigenvalues --    0.87247   0.88444   0.88682   0.88967   0.89081
 Alpha virt. eigenvalues --    0.90574   0.91945   0.92335   0.93398   0.94517
 Alpha virt. eigenvalues --    0.96610   0.98365   0.99966   1.00819   1.02000
 Alpha virt. eigenvalues --    1.02416   1.02984   1.05915   1.08418   1.08646
 Alpha virt. eigenvalues --    1.11605   1.15227   1.15832   1.16037   1.19564
 Alpha virt. eigenvalues --    1.20811   1.25860   1.26547   1.28664   1.28678
 Alpha virt. eigenvalues --    1.30179   1.31876   1.36311   1.37555   1.39004
 Alpha virt. eigenvalues --    1.39043   1.40442   1.40472   1.41784   1.42695
 Alpha virt. eigenvalues --    1.45327   1.45741   1.51350   1.51527   1.54895
 Alpha virt. eigenvalues --    1.56335   1.73782   1.74271   1.76247   1.76738
 Alpha virt. eigenvalues --    1.77951   1.78580   1.79048   1.81305   1.81335
 Alpha virt. eigenvalues --    1.82705   1.86186   1.87526   1.92509   1.92667
 Alpha virt. eigenvalues --    1.93745   1.94464   1.96171   1.97225   1.97420
 Alpha virt. eigenvalues --    1.98198   2.00542   2.01609   2.02115   2.05317
 Alpha virt. eigenvalues --    2.07688   2.08255   2.08770   2.10220   2.12536
 Alpha virt. eigenvalues --    2.12881   2.16638   2.16733   2.24234   2.24347
 Alpha virt. eigenvalues --    2.26448   2.26453   2.30174   2.30779   2.32991
 Alpha virt. eigenvalues --    2.33226   2.35284   2.35427   2.40345   2.40912
 Alpha virt. eigenvalues --    2.41078   2.41235   2.45030   2.45232   2.45886
 Alpha virt. eigenvalues --    2.46433   2.46503   2.47090   2.47992   2.49213
 Alpha virt. eigenvalues --    2.52539   2.52978   2.55534   2.56899   2.58054
 Alpha virt. eigenvalues --    2.59204   2.59323   2.59835   2.65030   2.65723
 Alpha virt. eigenvalues --    2.69005   2.69048   2.74033   2.74399   2.74953
 Alpha virt. eigenvalues --    2.75933   2.76314   2.76893   2.85645   2.86007
 Alpha virt. eigenvalues --    2.97992   2.98194   2.99240   2.99568   3.05408
 Alpha virt. eigenvalues --    3.05431   3.17175   3.19397   3.24771   3.24959
 Alpha virt. eigenvalues --    3.28048   3.28159   3.28237   3.28315   3.36149
 Alpha virt. eigenvalues --    3.36752   3.48220   3.48603   3.52840   3.53256
 Alpha virt. eigenvalues --    3.77255   3.80532   4.00966   4.03646   4.04214
 Alpha virt. eigenvalues --    4.13291   4.13497   4.14900   4.16148   4.17302
 Alpha virt. eigenvalues --    4.20818   4.41662   4.41804   4.42565   4.45142
 Alpha virt. eigenvalues --    4.79283   4.79422
          Condensed to atoms (all electrons):
               1          2          3          4          5          6
     1  N    6.826123   0.299051  -0.070257   0.004541   0.000577   0.000009
     2  C    0.299051   4.575818   0.532468  -0.016614  -0.035355   0.000626
     3  C   -0.070257   0.532468   4.935426   0.523247  -0.042541   0.005162
     4  C    0.004541  -0.016614   0.523247   4.872702   0.499902  -0.059882
     5  C    0.000577  -0.035355  -0.042541   0.499902   5.101910   0.248245
     6  S    0.000009   0.000626   0.005162  -0.059882   0.248245  15.687800
     7  C    0.000000   0.000036   0.000066  -0.003684  -0.028142   0.248245
     8  C    0.000000   0.000000   0.000003   0.000194  -0.000741  -0.058448
     9  C   -0.000000   0.000000   0.000000  -0.000054  -0.000109   0.005389
    10  C   -0.000000  -0.000000   0.000001   0.000007   0.000036   0.000626
    11  N    0.000000  -0.000000  -0.000000  -0.000000   0.000000   0.000009
    12  C   -0.000000   0.000001  -0.000012  -0.000098   0.000066   0.005162
    13  C   -0.000000   0.000007  -0.000098   0.001267  -0.003684  -0.059882
    14  C    0.004478  -0.017580  -0.041598  -0.026467   0.519380  -0.058448
    15  C   -0.070451   0.536124  -0.053599  -0.042084  -0.044577   0.005389
    16  H    0.343592  -0.024740  -0.009167  -0.000060   0.000007  -0.000000
    17  H    0.343695  -0.024610   0.005467  -0.000183   0.000003  -0.000000
    18  H   -0.007412  -0.043274   0.368153  -0.036585   0.004952  -0.000217
    19  H   -0.000113   0.003892  -0.035045   0.373303  -0.049324  -0.005507
    20  H   -0.000000  -0.000000   0.000001  -0.000002  -0.000033   0.000831
    21  H    0.000000  -0.000000   0.000000   0.000001   0.000000  -0.000235
    22  H    0.000000  -0.000000   0.000000   0.000000   0.000000  -0.000000
    23  H    0.000000  -0.000000  -0.000000   0.000000   0.000000  -0.000000
    24  H    0.000000  -0.000000  -0.000000   0.000004  -0.000001  -0.000217
    25  H    0.000000  -0.000036  -0.000065   0.000472   0.003433  -0.005507
    26  H   -0.000112   0.003989   0.000657   0.004842  -0.049246   0.000831
    27  H   -0.007424  -0.043569   0.005281   0.000424   0.005034  -0.000235
               7          8          9         10         11         12
     1  N    0.000000   0.000000  -0.000000  -0.000000   0.000000  -0.000000
     2  C    0.000036   0.000000   0.000000  -0.000000  -0.000000   0.000001
     3  C    0.000066   0.000003   0.000000   0.000001  -0.000000  -0.000012
     4  C   -0.003684   0.000194  -0.000054   0.000007  -0.000000  -0.000098
     5  C   -0.028142  -0.000741  -0.000109   0.000036   0.000000   0.000066
     6  S    0.248245  -0.058448   0.005389   0.000626   0.000009   0.005162
     7  C    5.101910   0.519380  -0.044577  -0.035355   0.000577  -0.042541
     8  C    0.519380   4.870089   0.515688  -0.017581   0.004478  -0.041598
     9  C   -0.044577   0.515688   4.943731   0.536124  -0.070451  -0.053599
    10  C   -0.035355  -0.017581   0.536124   4.575818   0.299051   0.532468
    11  N    0.000577   0.004478  -0.070451   0.299051   6.826123  -0.070257
    12  C   -0.042541  -0.041598  -0.053599   0.532468  -0.070257   4.935426
    13  C    0.499902  -0.026467  -0.042084  -0.016614   0.004541   0.523247
    14  C   -0.000741  -0.000046   0.000001   0.000000   0.000000   0.000003
    15  C   -0.000109   0.000001  -0.000000   0.000000  -0.000000   0.000000
    16  H    0.000000   0.000000   0.000000  -0.000000   0.000000   0.000000
    17  H    0.000000   0.000000  -0.000000  -0.000000   0.000000  -0.000000
    18  H   -0.000001   0.000000  -0.000000  -0.000000   0.000000  -0.000000
    19  H    0.003433   0.001288   0.000087  -0.000036   0.000000  -0.000065
    20  H   -0.049246   0.372740  -0.034995   0.003989  -0.000112   0.000657
    21  H    0.005034  -0.036011   0.367748  -0.043569  -0.007424   0.005281
    22  H    0.000007  -0.000184   0.005484  -0.024740   0.343592  -0.009167
    23  H    0.000003  -0.000052  -0.009204  -0.024610   0.343695   0.005467
    24  H    0.004952   0.000476   0.005208  -0.043274  -0.007412   0.368153
    25  H   -0.049324   0.004574   0.000689   0.003892  -0.000113  -0.035045
    26  H   -0.000033  -0.000001   0.000000  -0.000000  -0.000000   0.000001
    27  H    0.000000  -0.000000   0.000000  -0.000000   0.000000   0.000000
              13         14         15         16         17         18
     1  N   -0.000000   0.004478  -0.070451   0.343592   0.343695  -0.007412
     2  C    0.000007  -0.017580   0.536124  -0.024740  -0.024610  -0.043274
     3  C   -0.000098  -0.041598  -0.053599  -0.009167   0.005467   0.368153
     4  C    0.001267  -0.026467  -0.042084  -0.000060  -0.000183  -0.036585
     5  C   -0.003684   0.519380  -0.044577   0.000007   0.000003   0.004952
     6  S   -0.059882  -0.058448   0.005389  -0.000000  -0.000000  -0.000217
     7  C    0.499902  -0.000741  -0.000109   0.000000   0.000000  -0.000001
     8  C   -0.026467  -0.000046   0.000001   0.000000   0.000000   0.000000
     9  C   -0.042084   0.000001  -0.000000   0.000000  -0.000000  -0.000000
    10  C   -0.016614   0.000000   0.000000  -0.000000  -0.000000  -0.000000
    11  N    0.004541   0.000000  -0.000000   0.000000   0.000000   0.000000
    12  C    0.523247   0.000003   0.000000   0.000000  -0.000000  -0.000000
    13  C    4.872702   0.000194  -0.000054   0.000000   0.000000   0.000004
    14  C    0.000194   4.870089   0.515688  -0.000184  -0.000052   0.000476
    15  C   -0.000054   0.515688   4.943731   0.005484  -0.009204   0.005208
    16  H    0.000000  -0.000184   0.005484   0.429227  -0.028141   0.004598
    17  H    0.000000  -0.000052  -0.009204  -0.028141   0.428987  -0.000046
    18  H    0.000004   0.000476   0.005208   0.004598  -0.000046   0.609828
    19  H    0.000472   0.004574   0.000689  -0.000005   0.000003  -0.006259
    20  H    0.004842  -0.000001   0.000000  -0.000000  -0.000000  -0.000000
    21  H    0.000424  -0.000000   0.000000  -0.000000  -0.000000   0.000000
    22  H   -0.000060   0.000000   0.000000  -0.000000  -0.000000  -0.000000
    23  H   -0.000183   0.000000  -0.000000  -0.000000  -0.000000  -0.000000
    24  H   -0.036585   0.000000  -0.000000  -0.000000  -0.000000   0.000000
    25  H    0.373303   0.001287   0.000087  -0.000000  -0.000000   0.000000
    26  H   -0.000002   0.372740  -0.034995   0.000003  -0.000006   0.000015
    27  H    0.000001  -0.036011   0.367748  -0.000057   0.004453  -0.000184
              19         20         21         22         23         24
     1  N   -0.000113  -0.000000   0.000000   0.000000   0.000000   0.000000
     2  C    0.003892  -0.000000  -0.000000  -0.000000  -0.000000  -0.000000
     3  C   -0.035045   0.000001   0.000000   0.000000  -0.000000  -0.000000
     4  C    0.373303  -0.000002   0.000001   0.000000   0.000000   0.000004
     5  C   -0.049324  -0.000033   0.000000   0.000000   0.000000  -0.000001
     6  S   -0.005507   0.000831  -0.000235  -0.000000  -0.000000  -0.000217
     7  C    0.003433  -0.049246   0.005034   0.000007   0.000003   0.004952
     8  C    0.001288   0.372740  -0.036011  -0.000184  -0.000052   0.000476
     9  C    0.000087  -0.034995   0.367748   0.005484  -0.009204   0.005208
    10  C   -0.000036   0.003989  -0.043569  -0.024740  -0.024610  -0.043274
    11  N    0.000000  -0.000112  -0.007424   0.343592   0.343695  -0.007412
    12  C   -0.000065   0.000657   0.005281  -0.009167   0.005467   0.368153
    13  C    0.000472   0.004842   0.000424  -0.000060  -0.000183  -0.036585
    14  C    0.004574  -0.000001  -0.000000   0.000000   0.000000   0.000000
    15  C    0.000689   0.000000   0.000000   0.000000  -0.000000  -0.000000
    16  H   -0.000005  -0.000000  -0.000000  -0.000000  -0.000000  -0.000000
    17  H    0.000003  -0.000000  -0.000000  -0.000000  -0.000000  -0.000000
    18  H   -0.006259  -0.000000   0.000000  -0.000000  -0.000000   0.000000
    19  H    0.601457   0.000047  -0.000000  -0.000000  -0.000000   0.000000
    20  H    0.000047   0.601231  -0.006517   0.000003  -0.000006   0.000015
    21  H   -0.000000  -0.006517   0.611084  -0.000057   0.004453  -0.000184
    22  H   -0.000000   0.000003  -0.000057   0.429227  -0.028141   0.004598
    23  H   -0.000000  -0.000006   0.004453  -0.028141   0.428987  -0.000046
    24  H    0.000000   0.000015  -0.000184   0.004598  -0.000046   0.609828
    25  H   -0.000034  -0.000168   0.000014  -0.000005   0.000003  -0.006259
    26  H   -0.000168   0.000000   0.000000  -0.000000  -0.000000  -0.000000
    27  H    0.000014   0.000000  -0.000000  -0.000000  -0.000000   0.000000
              25         26         27
     1  N    0.000000  -0.000112  -0.007424
     2  C   -0.000036   0.003989  -0.043569
     3  C   -0.000065   0.000657   0.005281
     4  C    0.000472   0.004842   0.000424
     5  C    0.003433  -0.049246   0.005034
     6  S   -0.005507   0.000831  -0.000235
     7  C   -0.049324  -0.000033   0.000000
     8  C    0.004574  -0.000001  -0.000000
     9  C    0.000689   0.000000   0.000000
    10  C    0.003892  -0.000000  -0.000000
    11  N   -0.000113  -0.000000   0.000000
    12  C   -0.035045   0.000001   0.000000
    13  C    0.373303  -0.000002   0.000001
    14  C    0.001287   0.372740  -0.036011
    15  C    0.000087  -0.034995   0.367748
    16  H   -0.000000   0.000003  -0.000057
    17  H   -0.000000  -0.000006   0.004453
    18  H    0.000000   0.000015  -0.000184
    19  H   -0.000034  -0.000168   0.000014
    20  H   -0.000168   0.000000   0.000000
    21  H    0.000014   0.000000  -0.000000
    22  H   -0.000005  -0.000000  -0.000000
    23  H    0.000003  -0.000000  -0.000000
    24  H   -0.006259  -0.000000   0.000000
    25  H    0.601457   0.000047  -0.000000
    26  H    0.000047   0.601231  -0.006517
    27  H   -0.000000  -0.006517   0.611084
 Mulliken charges:
               1
     1  N   -0.666296
     2  C    0.253766
     3  C   -0.123551
     4  C   -0.095193
     5  C   -0.129792
     6  S    0.040252
     7  C   -0.129792
     8  C   -0.107783
     9  C   -0.125077
    10  C    0.253766
    11  N   -0.666296
    12  C   -0.123551
    13  C   -0.095193
    14  C   -0.107783
    15  C   -0.125077
    16  H    0.279443
    17  H    0.279634
    18  H    0.100745
    19  H    0.107296
    20  H    0.106724
    21  H    0.099958
    22  H    0.279443
    23  H    0.279634
    24  H    0.100745
    25  H    0.107296
    26  H    0.106724
    27  H    0.099958
 Sum of Mulliken charges =  -0.00000
 Mulliken charges with hydrogens summed into heavy atoms:
               1
     1  N   -0.107219
     2  C    0.253766
     3  C   -0.022807
     4  C    0.012102
     5  C   -0.129792
     6  S    0.040252
     7  C   -0.129792
     8  C   -0.001058
     9  C   -0.025119
    10  C    0.253766
    11  N   -0.107219
    12  C   -0.022807
    13  C    0.012102
    14  C   -0.001058
    15  C   -0.025119
 APT charges:
               1
     1  N   -1.579493
     2  C    0.261269
     3  C   -0.425062
     4  C   -0.620338
     5  C   -0.428686
     6  S   -0.035982
     7  C   -0.428686
     8  C   -0.549603
     9  C   -0.432676
    10  C    0.261268
    11  N   -1.579493
    12  C   -0.425063
    13  C   -0.620338
    14  C   -0.549603
    15  C   -0.432677
    16  H    0.766913
    17  H    1.040015
    18  H    0.500864
    19  H    0.243121
    20  H    0.492796
    21  H    0.748871
    22  H    0.766914
    23  H    1.040015
    24  H    0.500864
    25  H    0.243121
    26  H    0.492797
    27  H    0.748872
 Sum of APT charges =  -0.00000
 APT charges with hydrogens summed into heavy atoms:
               1
     1  N    0.227436
     2  C    0.261269
     3  C    0.075802
     4  C   -0.377217
     5  C   -0.428686
     6  S   -0.035982
     7  C   -0.428686
     8  C   -0.056807
     9  C    0.316195
    10  C    0.261268
    11  N    0.227435
    12  C    0.075802
    13  C   -0.377217
    14  C   -0.056807
    15  C    0.316195
 Electronic spatial extent (au):  <R**2>=           4558.6700
 Charge=             -0.0000 electrons
 Dipole moment (field-independent basis, Debye):
    X=             -0.0000    Y=             -3.1347    Z=              0.0000  Tot=              3.1347
 Quadrupole moment (field-independent basis, Debye-Ang):
   XX=            -48.6354   YY=            -98.8737   ZZ=            -88.7062
   XY=             -0.0000   XZ=              2.8195   YZ=             -0.0000
 Traceless Quadrupole moment (field-independent basis, Debye-Ang):
   XX=             30.1030   YY=            -20.1353   ZZ=             -9.9678
   XY=             -0.0000   XZ=              2.8195   YZ=             -0.0000
 Octapole moment (field-independent basis, Debye-Ang**2):
  XXX=              0.0000  YYY=            -18.2009  ZZZ=              0.0000  XYY=              0.0001
  XXY=            -64.9765  XXZ=             -0.0000  XZZ=             -0.0001  YZZ=            -11.9531
  YYZ=              0.0000  XYZ=            -38.7917
 Hexadecapole moment (field-independent basis, Debye-Ang**3):
 XXXX=          -3024.7864 YYYY=           -978.3316 ZZZZ=           -422.8402 XXXY=             -0.0001
 XXXZ=             28.5866 YYYX=             -0.0003 YYYZ=             -0.0001 ZZZX=              1.8322
 ZZZY=              0.0000 XXYY=           -877.6751 XXZZ=           -772.6749 YYZZ=           -206.9608
 XXYZ=             -0.0001 YYXZ=             70.8160 ZZXY=              0.0001
 N-N= 9.922738446673D+02 E-N=-4.263190352008D+03  KE= 9.653870184896D+02
  Exact polarizability:   0.000   0.000   0.000   0.000   0.000   0.000
 Approx polarizability: 315.428   0.000 236.372 -50.331  -0.000 204.232
 D2PCM: PCM CHGder 2nd derivatives, FixD1E=F FixD2E=F DoIter=F DoCFld=F I1PDM=0
 Calling FoFJK, ICntrl=    100147 FMM=F ISym2X=0 I1Cent= 0 IOpClX= 0 NMat=1 NMatS=1 NMatT=0.
 ***** Axes restored to original set *****
 -------------------------------------------------------------------
 Center     Atomic                   Forces (Hartrees/Bohr)
 Number     Number              X              Y              Z
 -------------------------------------------------------------------
      1        7           0.001189437   -0.003330955   -0.003670549
      2        6           0.002266874    0.014086336    0.012933001
      3        6          -0.011926198   -0.004158813   -0.011359156
      4        6           0.007367297    0.007577841   -0.001294549
      5        6          -0.000016966   -0.001059441    0.000841080
      6       16          -0.000064024   -0.007822558   -0.001415807
      7        6           0.000002615   -0.000697730   -0.001159268
      8        6          -0.006783374    0.004919402   -0.001980652
      9        6           0.002657194   -0.013811676   -0.005625902
     10        6          -0.002006276    0.017759649   -0.007169161
     11        7          -0.001252498   -0.004386871    0.002273641
     12        6           0.011826006   -0.008064561    0.009146844
     13        6          -0.007249831    0.006759262    0.003889694
     14        6           0.006854944    0.003805150    0.003559533
     15        6          -0.002891940   -0.014863472    0.000435906
     16        1           0.001972228   -0.001536311    0.002851223
     17        1          -0.000357546    0.002786636   -0.002471279
     18        1           0.001620446   -0.000266208   -0.000282653
     19        1           0.000109548   -0.000946315    0.001372269
     20        1           0.001153497    0.000938345    0.000951676
     21        1          -0.001190954    0.000091017    0.000915704
     22        1          -0.001988151   -0.000408064   -0.003203032
     23        1           0.000394528    0.001737700    0.003290097
     24        1          -0.001625248   -0.000322660    0.000176079
     25        1          -0.000120689   -0.000403465   -0.001616672
     26        1          -0.001135801    0.001230444   -0.000559008
     27        1           0.001194881    0.000387317   -0.000829060
 -------------------------------------------------------------------
 Cartesian Forces:  Max     0.017759649 RMS     0.005386581
 FormGI is forming the generalized inverse of G from B-inverse, IUseBI=4.

 GradGradGradGradGradGradGradGradGradGradGradGradGradGradGradGradGradGrad
 Berny optimization.
 Internal  Forces:  Max     0.010059833 RMS     0.002623008
 Search for a local minimum.
 Step number   1 out of a maximum of  141
 All quantities printed in internal units (Hartrees-Bohrs-Radians)
 Mixed Optimization -- RFO/linear search
 Second derivative matrix not updated -- analytic derivatives used.
 ITU=  0
     Eigenvalues ---   -0.00001   0.00303   0.00565   0.00565   0.01519
     Eigenvalues ---    0.01527   0.01721   0.01733   0.01734   0.01759
     Eigenvalues ---    0.01855   0.01871   0.02153   0.02153   0.02156
     Eigenvalues ---    0.02210   0.02380   0.02381   0.02730   0.02752
     Eigenvalues ---    0.02767   0.02772   0.02910   0.02912   0.11265
     Eigenvalues ---    0.11268   0.11493   0.11507   0.11829   0.11830
     Eigenvalues ---    0.12667   0.12668   0.13534   0.13541   0.15331
     Eigenvalues ---    0.15359   0.16184   0.16935   0.17366   0.17885
     Eigenvalues ---    0.18204   0.18580   0.19448   0.19451   0.21644
     Eigenvalues ---    0.21742   0.23127   0.24392   0.31025   0.31439
     Eigenvalues ---    0.31677   0.35570   0.35575   0.35839   0.35866
     Eigenvalues ---    0.35875   0.35891   0.35941   0.35992   0.38313
     Eigenvalues ---    0.38715   0.41076   0.41145   0.44512   0.44698
     Eigenvalues ---    0.45514   0.45529   0.45963   0.45964   0.46807
     Eigenvalues ---    0.46930   0.47664   0.47790   0.51506   0.51575
 RFO step:  Lambda=-5.40237907D-03 EMin=-1.36185044D-05
 Linear search not attempted -- first point.
 Iteration  1 RMS(Cart)=  0.08899160 RMS(Int)=  0.00155025
 Iteration  2 RMS(Cart)=  0.00220186 RMS(Int)=  0.00037067
 Iteration  3 RMS(Cart)=  0.00000293 RMS(Int)=  0.00037067
 Iteration  4 RMS(Cart)=  0.00000000 RMS(Int)=  0.00037067
 Variable       Old X    -DE/DX   Delta X   Delta X   Delta X     New X
                                 (Linear)    (Quad)   (Total)
    R1        2.64364   0.00007   0.00000  -0.01329  -0.01329   2.63035
    R2        1.91849  -0.00257   0.00000  -0.00621  -0.00621   1.91228
    R3        1.91829  -0.00256   0.00000  -0.00604  -0.00604   1.91224
    R4        2.63859   0.01006   0.00000   0.02369   0.02378   2.66237
    R5        2.63859   0.00849   0.00000   0.01877   0.01881   2.65739
    R6        2.64384  -0.00582   0.00000  -0.01707  -0.01702   2.62682
    R7        2.05363   0.00007   0.00000   0.00027   0.00027   2.05390
    R8        2.64036   0.00440   0.00000   0.00988   0.00985   2.65021
    R9        2.05446  -0.00128   0.00000  -0.00259  -0.00259   2.05186
   R10        3.37064   0.00736   0.00000   0.02458   0.02458   3.39521
   R11        2.63959   0.00394   0.00000   0.00672   0.00664   2.64623
   R12        3.37064   0.00736   0.00000   0.02458   0.02458   3.39521
   R13        2.63959   0.00394   0.00000   0.00672   0.00664   2.64623
   R14        2.64036   0.00440   0.00000   0.00989   0.00985   2.65021
   R15        2.64387  -0.00411   0.00000  -0.01139  -0.01144   2.63244
   R16        2.05460  -0.00119   0.00000  -0.00263  -0.00263   2.05197
   R17        2.63859   0.00849   0.00000   0.01877   0.01881   2.65739
   R18        2.05353   0.00008   0.00000   0.00010   0.00010   2.05364
   R19        2.64364   0.00007   0.00000  -0.01329  -0.01329   2.63035
   R20        2.63859   0.01006   0.00000   0.02369   0.02378   2.66237
   R21        1.91849  -0.00257   0.00000  -0.00621  -0.00621   1.91228
   R22        1.91829  -0.00256   0.00000  -0.00604  -0.00604   1.91224
   R23        2.64384  -0.00582   0.00000  -0.01707  -0.01702   2.62682
   R24        2.05363   0.00007   0.00000   0.00027   0.00027   2.05390
   R25        2.05446  -0.00128   0.00000  -0.00260  -0.00260   2.05186
   R26        2.64387  -0.00411   0.00000  -0.01139  -0.01144   2.63244
   R27        2.05460  -0.00119   0.00000  -0.00263  -0.00263   2.05197
   R28        2.05353   0.00008   0.00000   0.00010   0.00010   2.05364
    A1        1.98675   0.00233   0.00000   0.02185   0.02162   2.00837
    A2        1.98745   0.00209   0.00000   0.02031   0.02008   2.00753
    A3        1.95970  -0.00326   0.00000  -0.01566  -0.01599   1.94371
    A4        2.09958   0.00128   0.00000   0.00939   0.00773   2.10732
    A5        2.09930   0.00162   0.00000   0.01199   0.01035   2.10964
    A6        2.06970  -0.00233   0.00000  -0.00461  -0.00614   2.06356
    A7        2.10784   0.00008   0.00000   0.00044   0.00054   2.10838
    A8        2.09943  -0.00127   0.00000  -0.01363  -0.01369   2.08574
    A9        2.07591   0.00119   0.00000   0.01317   0.01311   2.08902
   A10        2.10022   0.00187   0.00000   0.00749   0.00747   2.10769
   A11        2.07744   0.00010   0.00000   0.00664   0.00664   2.08408
   A12        2.10541  -0.00196   0.00000  -0.01403  -0.01403   2.09138
   A13        2.12344   0.00054   0.00000   0.00204   0.00191   2.12535
   A14        2.07741  -0.00114   0.00000  -0.00635  -0.00671   2.07070
   A15        2.08232   0.00060   0.00000   0.00412   0.00398   2.08631
   A16        1.78458   0.00641   0.00000   0.01778   0.01778   1.80236
   A17        2.08232   0.00060   0.00000   0.00412   0.00398   2.08631
   A18        2.12344   0.00054   0.00000   0.00204   0.00191   2.12535
   A19        2.07741  -0.00114   0.00000  -0.00635  -0.00671   2.07070
   A20        2.10073   0.00197   0.00000   0.00809   0.00790   2.10863
   A21        2.10300  -0.00196   0.00000  -0.01263  -0.01258   2.09042
   A22        2.07934   0.00000   0.00000   0.00475   0.00480   2.08414
   A23        2.10753  -0.00030   0.00000  -0.00034  -0.00040   2.10713
   A24        2.07685   0.00134   0.00000   0.01231   0.01230   2.08915
   A25        2.09880  -0.00104   0.00000  -0.01193  -0.01195   2.08685
   A26        2.09930   0.00162   0.00000   0.01199   0.01035   2.10964
   A27        2.06970  -0.00233   0.00000  -0.00461  -0.00614   2.06356
   A28        2.09958   0.00128   0.00000   0.00939   0.00773   2.10732
   A29        1.98675   0.00233   0.00000   0.02185   0.02162   2.00837
   A30        1.98745   0.00209   0.00000   0.02031   0.02008   2.00753
   A31        1.95970  -0.00326   0.00000  -0.01566  -0.01599   1.94371
   A32        2.10784   0.00008   0.00000   0.00044   0.00054   2.10838
   A33        2.09943  -0.00127   0.00000  -0.01363  -0.01369   2.08574
   A34        2.07591   0.00119   0.00000   0.01317   0.01311   2.08902
   A35        2.10022   0.00187   0.00000   0.00749   0.00747   2.10769
   A36        2.10541  -0.00196   0.00000  -0.01403  -0.01403   2.09138
   A37        2.07744   0.00010   0.00000   0.00664   0.00664   2.08408
   A38        2.10073   0.00197   0.00000   0.00809   0.00790   2.10863
   A39        2.10300  -0.00196   0.00000  -0.01263  -0.01258   2.09042
   A40        2.07934   0.00000   0.00000   0.00475   0.00480   2.08414
   A41        2.10753  -0.00030   0.00000  -0.00034  -0.00040   2.10713
   A42        2.09880  -0.00104   0.00000  -0.01193  -0.01195   2.08685
   A43        2.07685   0.00134   0.00000   0.01231   0.01230   2.08915
    D1       -0.52189   0.00142   0.00000   0.06161   0.06203  -0.45986
    D2        2.80504  -0.00186   0.00000  -0.04333  -0.04353   2.76151
    D3       -2.79868   0.00193   0.00000   0.04398   0.04419  -2.75450
    D4        0.52825  -0.00135   0.00000  -0.06095  -0.06137   0.46687
    D5       -3.04170  -0.00180   0.00000  -0.04602  -0.04578  -3.08748
    D6        0.10262  -0.00145   0.00000  -0.03757  -0.03743   0.06519
    D7       -0.08235   0.00183   0.00000   0.05886   0.05874  -0.02361
    D8        3.06198   0.00218   0.00000   0.06732   0.06709   3.12907
    D9        3.04047   0.00127   0.00000   0.03079   0.03078   3.07125
   D10       -0.10376   0.00167   0.00000   0.04516   0.04502  -0.05874
   D11        0.08109  -0.00233   0.00000  -0.07380  -0.07360   0.00748
   D12       -3.06315  -0.00193   0.00000  -0.05943  -0.05936  -3.12251
   D13        0.04352  -0.00043   0.00000  -0.01678  -0.01682   0.02670
   D14       -3.11444  -0.00021   0.00000  -0.00947  -0.00949  -3.12394
   D15       -3.10077  -0.00078   0.00000  -0.02517  -0.02522  -3.12599
   D16        0.02445  -0.00056   0.00000  -0.01786  -0.01790   0.00655
   D17       -3.13742   0.00079   0.00000   0.02692   0.02679  -3.11063
   D18       -0.00174  -0.00040   0.00000  -0.01112  -0.01120  -0.01294
   D19        0.02081   0.00055   0.00000   0.01929   0.01924   0.04005
   D20       -3.12670  -0.00064   0.00000  -0.01875  -0.01875   3.13774
   D21       -0.94704  -0.00098   0.00000  -0.05374  -0.05383  -1.00087
   D22        2.20049   0.00022   0.00000  -0.01557  -0.01548   2.18501
   D23        0.00051  -0.00008   0.00000  -0.00368  -0.00372  -0.00321
   D24        3.12565   0.00046   0.00000   0.01129   0.01123   3.13688
   D25        3.13633  -0.00124   0.00000  -0.04082  -0.04084   3.09548
   D26       -0.02171  -0.00070   0.00000  -0.02584  -0.02590  -0.04761
   D27        2.20048   0.00022   0.00000  -0.01557  -0.01548   2.18501
   D28       -0.94704  -0.00098   0.00000  -0.05374  -0.05383  -1.00087
   D29        3.13633  -0.00124   0.00000  -0.04082  -0.04084   3.09548
   D30       -0.02171  -0.00070   0.00000  -0.02584  -0.02590  -0.04761
   D31        0.00051  -0.00008   0.00000  -0.00368  -0.00372  -0.00321
   D32        3.12565   0.00046   0.00000   0.01129   0.01123   3.13688
   D33       -3.13742   0.00079   0.00000   0.02692   0.02679  -3.11063
   D34        0.02081   0.00055   0.00000   0.01929   0.01924   0.04005
   D35       -0.00174  -0.00040   0.00000  -0.01112  -0.01120  -0.01294
   D36       -3.12670  -0.00064   0.00000  -0.01875  -0.01875   3.13774
   D37       -0.04101   0.00137   0.00000   0.04669   0.04679   0.00578
   D38        3.10319   0.00098   0.00000   0.03254   0.03256   3.13575
   D39        3.11681   0.00086   0.00000   0.03208   0.03206  -3.13432
   D40       -0.02218   0.00047   0.00000   0.01793   0.01783  -0.00434
   D41        3.04047   0.00127   0.00000   0.03079   0.03078   3.07125
   D42        0.08109  -0.00233   0.00000  -0.07380  -0.07361   0.00748
   D43       -0.10376   0.00167   0.00000   0.04516   0.04502  -0.05874
   D44       -3.06314  -0.00193   0.00000  -0.05943  -0.05936  -3.12251
   D45        2.80504  -0.00186   0.00000  -0.04332  -0.04353   2.76151
   D46        0.52825  -0.00135   0.00000  -0.06095  -0.06137   0.46687
   D47       -0.52189   0.00142   0.00000   0.06161   0.06203  -0.45986
   D48       -2.79868   0.00193   0.00000   0.04398   0.04419  -2.75450
   D49       -0.08235   0.00183   0.00000   0.05886   0.05874  -0.02361
   D50        3.06198   0.00218   0.00000   0.06732   0.06709   3.12907
   D51       -3.04170  -0.00180   0.00000  -0.04602  -0.04578  -3.08748
   D52        0.10262  -0.00145   0.00000  -0.03757  -0.03743   0.06519
   D53        0.04352  -0.00043   0.00000  -0.01678  -0.01682   0.02670
   D54       -3.11444  -0.00021   0.00000  -0.00947  -0.00949  -3.12394
   D55       -3.10077  -0.00078   0.00000  -0.02517  -0.02522  -3.12599
   D56        0.02445  -0.00056   0.00000  -0.01786  -0.01790   0.00655
   D57       -0.04101   0.00137   0.00000   0.04669   0.04679   0.00578
   D58        3.10319   0.00098   0.00000   0.03254   0.03256   3.13576
   D59        3.11681   0.00086   0.00000   0.03208   0.03206  -3.13432
   D60       -0.02218   0.00047   0.00000   0.01793   0.01783  -0.00434
         Item               Value     Threshold  Converged?
 Maximum Force            0.010060     0.000450     NO 
 RMS     Force            0.002623     0.000300     NO 
 Maximum Displacement     0.280291     0.001800     NO 
 RMS     Displacement     0.088897     0.001200     NO 
 Predicted change in Energy=-2.987636D-03
 GradGradGradGradGradGradGradGradGradGradGradGradGradGradGradGradGradGrad

                          Input orientation:                          
 ---------------------------------------------------------------------
 Center     Atomic      Atomic             Coordinates (Angstroms)
 Number     Number       Type             X           Y           Z
 ---------------------------------------------------------------------
      1          7           0        4.788615    1.353494    0.490207
      2          6           0        3.699327    0.521234    0.248879
      3          6           0        2.755366    0.841056   -0.746888
      4          6           0        1.633265    0.045108   -0.945887
      5          6           0        1.397831   -1.077443   -0.138881
      6         16           0       -0.018178   -2.151553   -0.401996
      7          6           0       -1.416226   -1.031060   -0.267911
      8          6           0       -2.345337   -0.958327   -1.313077
      9          6           0       -3.468119   -0.139739   -1.214113
     10          6           0       -3.690975    0.638376   -0.064175
     11          7           0       -4.766240    1.519578    0.004617
     12          6           0       -2.744925    0.573916    0.977810
     13          6           0       -1.636154   -0.258966    0.882008
     14          6           0        2.324977   -1.390364    0.862813
     15          6           0        3.460870   -0.606917    1.053802
     16          1           0        5.084811    1.912081   -0.299893
     17          1           0        5.576355    0.907255    0.942213
     18          1           0        2.913182    1.715325   -1.373021
     19          1           0        0.928776    0.303357   -1.730719
     20          1           0       -2.190811   -1.544963   -2.213668
     21          1           0       -4.174698   -0.092966   -2.038467
     22          1           0       -5.055813    1.770443    0.941219
     23          1           0       -5.559653    1.272604   -0.572855
     24          1           0       -2.890661    1.175671    1.871090
     25          1           0       -0.929916   -0.303362    1.705545
     26          1           0        2.158593   -2.252899    1.501118
     27          1           0        4.165735   -0.863231    1.840230
 ---------------------------------------------------------------------
                    Distance matrix (angstroms):
                    1          2          3          4          5
     1  N    0.000000
     2  C    1.391920   0.000000
     3  C    2.434563   1.408865   0.000000
     4  C    3.705465   2.433675   1.390052   0.000000
     5  C    4.219315   2.828959   2.427593   1.402430   0.000000
     6  S    6.015532   4.624637   4.094777   2.801499   1.796670
     7  C    6.690357   5.370807   4.597435   3.304116   2.817396
     8  C    7.712951   6.416134   5.438338   4.119585   3.924823
     9  C    8.562015   7.345033   6.317596   5.111774   5.070787
    10  C    8.527730   7.397858   6.485560   5.429265   5.370807
    11  N    9.568627   8.527730   7.589447   6.635599   6.690357
    12  C    7.589447   6.485561   5.770541   4.811319   4.597436
    13  C    6.635600   5.429266   4.811320   3.758026   3.304116
    14  C    3.706360   2.433097   2.784889   2.410486   1.400325
    15  C    2.433876   1.406232   2.415956   2.786401   2.428995
    16  H    1.011934   2.038424   2.602541   3.976942   4.749421
    17  H    1.011916   2.037880   3.288681   4.456027   4.750563
    18  H    2.668293   2.162045   1.086875   2.147151   3.408657
    19  H    4.575331   3.412072   2.143239   1.085798   2.158835
    20  H    8.026480   6.710219   5.684118   4.331184   4.171531
    21  H    9.424829   8.222497   7.111002   5.911449   5.969146
    22  H    9.863570   8.870870   8.045370   7.161125   7.136287
    23  H   10.403042   9.325691   8.328028   7.306433   7.356469
    24  H    7.804469   6.818197   6.232447   5.447884   5.244776
    25  H    6.076496   4.922573   4.572245   3.704244   3.069123
    26  H    4.576574   3.411419   3.870688   3.397740   2.156397
    27  H    2.669159   2.160249   3.403955   3.873103   3.409407
                    6          7          8          9         10
     6  S    0.000000
     7  C    1.796670   0.000000
     8  C    2.769391   1.400325   0.000000
     9  C    4.075417   2.428995   1.393025   0.000000
    10  C    4.624637   2.828959   2.433097   1.406232   0.000000
    11  N    6.015532   4.219315   3.706360   2.433876   1.391920
    12  C    4.094777   2.427593   2.784889   2.415956   1.408865
    13  C    2.801499   1.402430   2.410486   2.786401   2.433675
    14  C    2.769391   3.924823   5.170395   6.279940   6.416135
    15  C    4.075417   5.070788   6.279940   7.305654   7.345034
    16  H    6.524112   7.136287   8.029501   8.842985   8.870869
    17  H    6.516287   7.356470   8.445113   9.356732   9.325691
    18  H    4.948586   5.244776   5.899494   6.647369   6.818196
    19  H    2.947678   3.069122   3.533566   4.449259   4.922572
    20  H    2.893172   2.156397   1.085856   2.145991   3.411419
    21  H    4.918584   3.409407   2.149791   1.086738   2.160249
    22  H    6.524112   4.749421   4.458107   3.288621   2.038424
    23  H    6.516287   4.750563   3.982062   2.603928   2.037880
    24  H    4.948586   3.408657   3.871724   3.403269   2.162045
    25  H    2.947678   2.158835   3.397717   3.872164   3.412072
    26  H    2.893172   4.171532   5.466351   6.595286   6.710221
    27  H    4.918584   5.969146   7.235084   8.253979   8.222498
                   11         12         13         14         15
    11  N    0.000000
    12  C    2.434563   0.000000
    13  C    3.705465   1.390052   0.000000
    14  C    7.712952   5.438339   4.119586   0.000000
    15  C    8.562015   6.317597   5.111775   1.393025   0.000000
    16  H    9.863569   8.045370   7.161125   4.458107   3.288621
    17  H   10.403042   8.328029   7.306434   3.982062   2.603928
    18  H    7.804468   6.232446   5.447884   3.871724   3.403269
    19  H    6.076495   4.572244   3.704243   3.397717   3.872164
    20  H    4.576574   3.870688   3.397740   5.466350   6.595286
    21  H    2.669159   3.403955   3.873103   7.235084   8.253979
    22  H    1.011934   2.602541   3.976942   8.029502   8.842986
    23  H    1.011916   3.288681   4.456027   8.445113   9.356733
    24  H    2.668293   1.086875   2.147151   5.899495   6.647370
    25  H    4.575331   2.143239   1.085798   3.533567   4.449260
    26  H    8.026481   5.684120   4.331185   1.085856   2.145991
    27  H    9.424830   7.111004   5.911450   2.149791   1.086738
                   16         17         18         19         20
    16  H    0.000000
    17  H    1.671561   0.000000
    18  H    2.430286   3.620190   0.000000
    19  H    4.680586   5.395298   2.461599   0.000000
    20  H    8.279395   8.735092   6.114484   3.658053   0.000000
    21  H    9.632308  10.245385   7.345119   5.128082   2.464710
    22  H   10.217274  10.667150   8.298411   6.716167   5.399394
    23  H   10.667149  11.244535   8.522042   6.661817   4.688288
    24  H    8.298411   8.522043   6.670838   5.321848   4.957508
    25  H    6.716168   6.661819   5.321848   3.953575   4.300193
    26  H    5.399394   4.688288   4.957508   4.300193   5.763516
    27  H    3.623146   2.435345   4.306138   4.958881   7.569975
                   21         22         23         24         25
    21  H    0.000000
    22  H    3.623146   0.000000
    23  H    2.435344   1.671561   0.000000
    24  H    4.306138   2.430287   3.620190   0.000000
    25  H    4.958881   4.680586   5.395298   2.461599   0.000000
    26  H    7.569976   8.279397   8.735093   6.114486   3.658055
    27  H    9.230407   9.632310  10.245386   7.345121   5.128084
                   26         27
    26  H    0.000000
    27  H    2.464710   0.000000
 Stoichiometry    C12H12N2S
 Framework group  C1[X(C12H12N2S)]
 Deg. of freedom    75
 Full point group                 C1      NOp   1
 Largest Abelian subgroup         C1      NOp   1
 Largest concise Abelian subgroup C1      NOp   1
                         Standard orientation:                         
 ---------------------------------------------------------------------
 Center     Atomic      Atomic             Coordinates (Angstroms)
 Number     Number       Type             X           Y           Z
 ---------------------------------------------------------------------
      1          7           0        4.783026   -1.703944    0.110973
      2          6           0        3.697062   -0.833266    0.117514
      3          6           0        2.675790   -0.963025    1.079319
      4          6           0        1.559441   -0.135352    1.048252
      5          6           0        1.408136    0.827393    0.039769
      6         16           0        0.000000    1.942558    0.000000
      7          6           0       -1.408136    0.827393   -0.039768
      8          6           0       -2.412929    0.949442    0.927913
      9          6           0       -3.542709    0.135384    0.890146
     10          6           0       -3.697062   -0.833265   -0.117515
     11          7           0       -4.783026   -1.703943   -0.110974
     12          6           0       -2.675791   -0.963024   -1.079320
     13          6           0       -1.559442   -0.135351   -1.048252
     14          6           0        2.412929    0.949443   -0.927912
     15          6           0        3.542709    0.135385   -0.890145
     16          1           0        5.008266   -2.115259    1.007687
     17          1           0        5.611267   -1.351694   -0.351532
     18          1           0        2.768335   -1.713053    1.860466
     19          1           0        0.793771   -0.244019    1.810418
     20          1           0       -2.312483    1.685823    1.719580
     21          1           0       -4.308829    0.241860    1.653509
     22          1           0       -5.008267   -2.115257   -1.007688
     23          1           0       -5.611267   -1.351694    0.351532
     24          1           0       -2.768336   -1.713051   -1.860467
     25          1           0       -0.793772   -0.244017   -1.810419
     26          1           0        2.312484    1.685825   -1.719578
     27          1           0        4.308830    0.241862   -1.653507
 ---------------------------------------------------------------------
 Rotational constants (GHZ):           1.1856039           0.2541503           0.2328265
 Standard basis: 6-31G(d,p) (6D, 7F)
 There are   289 symmetry adapted cartesian basis functions of A   symmetry.
 There are   289 symmetry adapted basis functions of A   symmetry.
   289 basis functions,   528 primitive gaussians,   289 cartesian basis functions
    57 alpha electrons       57 beta electrons
       nuclear repulsion energy       986.3199871500 Hartrees.
 NAtoms=   27 NActive=   27 NUniq=   27 SFac= 1.00D+00 NAtFMM=   60 NAOKFM=F Big=F
 Integral buffers will be    131072 words long.
 Raffenetti 2 integral format.
 Two-electron integral symmetry is turned on.
 ------------------------------------------------------------------------------
 Polarizable Continuum Model (PCM)
 =================================
 Model                : PCM.
 Atomic radii         : UFF (Universal Force Field).
 Polarization charges : Total charges.
[...]
     5    N    1  px     Val( 2p)     1.36959
     6    N    1  px     Ryd( 3p)     0.00220
     7    N    1  py     Val( 2p)     1.57248
     8    N    1  py     Ryd( 3p)     0.00325
     9    N    1  pz     Val( 2p)     1.47963
    10    N    1  pz     Ryd( 3p)     0.00238
    11    N    1  dxy    Ryd( 3d)     0.00077
    12    N    1  dxz    Ryd( 3d)     0.00047
    13    N    1  dyz    Ryd( 3d)     0.00058
    14    N    1  dx2y2  Ryd( 3d)     0.00072
    15    N    1  dz2    Ryd( 3d)     0.00063

    16    C    2  S      Cor( 1S)     1.99899
    17    C    2  S      Val( 2S)     0.84923
    18    C    2  S      Ryd( 3S)     0.00122
    19    C    2  S      Ryd( 4S)     0.00009
    20    C    2  px     Val( 2p)     0.93910
    21    C    2  px     Ryd( 3p)     0.00410
    22    C    2  py     Val( 2p)     0.94412
    23    C    2  py     Ryd( 3p)     0.00377
    24    C    2  pz     Val( 2p)     1.06383
    25    C    2  pz     Ryd( 3p)     0.00385
    26    C    2  dxy    Ryd( 3d)     0.00104
    27    C    2  dxz    Ryd( 3d)     0.00086
    28    C    2  dyz    Ryd( 3d)     0.00074
    29    C    2  dx2y2  Ryd( 3d)     0.00134
    30    C    2  dz2    Ryd( 3d)     0.00096

    31    C    3  S      Cor( 1S)     1.99904
    32    C    3  S      Val( 2S)     0.95303
    33    C    3  S      Ryd( 3S)     0.00063
    34    C    3  S      Ryd( 4S)     0.00003
    35    C    3  px     Val( 2p)     1.07760
    36    C    3  px     Ryd( 3p)     0.00391
    37    C    3  py     Val( 2p)     1.11876
    38    C    3  py     Ryd( 3p)     0.00331
    39    C    3  pz     Val( 2p)     1.13939
    40    C    3  pz     Ryd( 3p)     0.00417
    41    C    3  dxy    Ryd( 3d)     0.00045
    42    C    3  dxz    Ryd( 3d)     0.00056
    43    C    3  dyz    Ryd( 3d)     0.00059
    44    C    3  dx2y2  Ryd( 3d)     0.00057
    45    C    3  dz2    Ryd( 3d)     0.00044

    46    C    4  S      Cor( 1S)     1.99899
    47    C    4  S      Val( 2S)     0.94714
    48    C    4  S      Ryd( 3S)     0.00105
    49    C    4  S      Ryd( 4S)     0.00005
    50    C    4  px     Val( 2p)     1.12580
    51    C    4  px     Ryd( 3p)     0.00642
    52    C    4  py     Val( 2p)     1.06074
    53    C    4  py     Ryd( 3p)     0.00508
    54    C    4  pz     Val( 2p)     1.15752
    55    C    4  pz     Ryd( 3p)     0.00469
    56    C    4  dxy    Ryd( 3d)     0.00042
    57    C    4  dxz    Ryd( 3d)     0.00060
    58    C    4  dyz    Ryd( 3d)     0.00044
    59    C    4  dx2y2  Ryd( 3d)     0.00058
    60    C    4  dz2    Ryd( 3d)     0.00047

    61    C    5  S      Cor( 1S)     1.99873
    62    C    5  S      Val( 2S)     0.95830
    63    C    5  S      Ryd( 3S)     0.00193
    64    C    5  S      Ryd( 4S)     0.00007
    65    C    5  px     Val( 2p)     1.07376
    66    C    5  px     Ryd( 3p)     0.00792
    67    C    5  py     Val( 2p)     1.08125
    68    C    5  py     Ryd( 3p)     0.00347
    69    C    5  pz     Val( 2p)     1.09548
    70    C    5  pz     Ryd( 3p)     0.00581
    71    C    5  dxy    Ryd( 3d)     0.00122
    72    C    5  dxz    Ryd( 3d)     0.00081
    73    C    5  dyz    Ryd( 3d)     0.00067
    74    C    5  dx2y2  Ryd( 3d)     0.00058
    75    C    5  dz2    Ryd( 3d)     0.00096

    76    S    6  S      Cor( 1S)     2.00000
    77    S    6  S      Cor( 2S)     1.99941
    78    S    6  S      Val( 3S)     1.64561
    79    S    6  S      Ryd( 4S)     0.00654
    80    S    6  S      Ryd( 5S)     0.00001
    81    S    6  px     Cor( 2p)     1.99987
    82    S    6  px     Val( 3p)     0.92203
    83    S    6  px     Ryd( 4p)     0.01728
    84    S    6  py     Cor( 2p)     1.99989
    85    S    6  py     Val( 3p)     1.31649
    86    S    6  py     Ryd( 4p)     0.00085
    87    S    6  pz     Cor( 2p)     1.99985
    88    S    6  pz     Val( 3p)     1.67139
    89    S    6  pz     Ryd( 4p)     0.00512
    90    S    6  dxy    Ryd( 3d)     0.01112
    91    S    6  dxz    Ryd( 3d)     0.00175
    92    S    6  dyz    Ryd( 3d)     0.00150
    93    S    6  dx2y2  Ryd( 3d)     0.00488
    94    S    6  dz2    Ryd( 3d)     0.00298

    95    C    7  S      Cor( 1S)     1.99873
    96    C    7  S      Val( 2S)     0.95833
    97    C    7  S      Ryd( 3S)     0.00193
    98    C    7  S      Ryd( 4S)     0.00007
    99    C    7  px     Val( 2p)     1.07367
   100    C    7  px     Ryd( 3p)     0.00791
   101    C    7  py     Val( 2p)     1.08117
   102    C    7  py     Ryd( 3p)     0.00347
   103    C    7  pz     Val( 2p)     1.09542
   104    C    7  pz     Ryd( 3p)     0.00581
   105    C    7  dxy    Ryd( 3d)     0.00122
   106    C    7  dxz    Ryd( 3d)     0.00081
   107    C    7  dyz    Ryd( 3d)     0.00067
   108    C    7  dx2y2  Ryd( 3d)     0.00058
   109    C    7  dz2    Ryd( 3d)     0.00096

   110    C    8  S      Cor( 1S)     1.99899
   111    C    8  S      Val( 2S)     0.95668
   112    C    8  S      Ryd( 3S)     0.00096
   113    C    8  S      Ryd( 4S)     0.00005
   114    C    8  px     Val( 2p)     1.04780
   115    C    8  px     Ryd( 3p)     0.00442
   116    C    8  py     Val( 2p)     1.08025
   117    C    8  py     Ryd( 3p)     0.00479
   118    C    8  pz     Val( 2p)     1.13648
   119    C    8  pz     Ryd( 3p)     0.00451
   120    C    8  dxy    Ryd( 3d)     0.00049
   121    C    8  dxz    Ryd( 3d)     0.00053
   122    C    8  dyz    Ryd( 3d)     0.00060
   123    C    8  dx2y2  Ryd( 3d)     0.00067
   124    C    8  dz2    Ryd( 3d)     0.00047

   125    C    9  S      Cor( 1S)     1.99904
   126    C    9  S      Val( 2S)     0.95102
   127    C    9  S      Ryd( 3S)     0.00064
   128    C    9  S      Ryd( 4S)     0.00003
   129    C    9  px     Val( 2p)     1.13465
   130    C    9  px     Ryd( 3p)     0.00431
   131    C    9  py     Val( 2p)     1.09109
   132    C    9  py     Ryd( 3p)     0.00437
   133    C    9  pz     Val( 2p)     1.14378
   134    C    9  pz     Ryd( 3p)     0.00438
   135    C    9  dxy    Ryd( 3d)     0.00038
   136    C    9  dxz    Ryd( 3d)     0.00060
   137    C    9  dyz    Ryd( 3d)     0.00048
   138    C    9  dx2y2  Ryd( 3d)     0.00049
   139    C    9  dz2    Ryd( 3d)     0.00044

   140    C   10  S      Cor( 1S)     1.99899
   141    C   10  S      Val( 2S)     0.84925
   142    C   10  S      Ryd( 3S)     0.00122
   143    C   10  S      Ryd( 4S)     0.00009
   144    C   10  px     Val( 2p)     0.93907
   145    C   10  px     Ryd( 3p)     0.00410
   146    C   10  py     Val( 2p)     0.94410
   147    C   10  py     Ryd( 3p)     0.00377
   148    C   10  pz     Val( 2p)     1.06375
   149    C   10  pz     Ryd( 3p)     0.00385
   150    C   10  dxy    Ryd( 3d)     0.00105
   151    C   10  dxz    Ryd( 3d)     0.00086
   152    C   10  dyz    Ryd( 3d)     0.00074
   153    C   10  dx2y2  Ryd( 3d)     0.00134
   154    C   10  dz2    Ryd( 3d)     0.00096

   155    N   11  S      Cor( 1S)     1.99949
   156    N   11  S      Val( 2S)     1.36001
   157    N   11  S      Ryd( 3S)     0.00012
   158    N   11  S      Ryd( 4S)     0.00001
   159    N   11  px     Val( 2p)     1.36958
   160    N   11  px     Ryd( 3p)     0.00220
   161    N   11  py     Val( 2p)     1.57224
   162    N   11  py     Ryd( 3p)     0.00325
   163    N   11  pz     Val( 2p)     1.47971
   164    N   11  pz     Ryd( 3p)     0.00238
   165    N   11  dxy    Ryd( 3d)     0.00077
   166    N   11  dxz    Ryd( 3d)     0.00047
   167    N   11  dyz    Ryd( 3d)     0.00058
   168    N   11  dx2y2  Ryd( 3d)     0.00072
   169    N   11  dz2    Ryd( 3d)     0.00063

   170    C   12  S      Cor( 1S)     1.99904
   171    C   12  S      Val( 2S)     0.95301
   172    C   12  S      Ryd( 3S)     0.00063
   173    C   12  S      Ryd( 4S)     0.00003
   174    C   12  px     Val( 2p)     1.07765
   175    C   12  px     Ryd( 3p)     0.00392
   176    C   12  py     Val( 2p)     1.11892
   177    C   12  py     Ryd( 3p)     0.00332
   178    C   12  pz     Val( 2p)     1.13936
   179    C   12  pz     Ryd( 3p)     0.00417
   180    C   12  dxy    Ryd( 3d)     0.00045
   181    C   12  dxz    Ryd( 3d)     0.00056
   182    C   12  dyz    Ryd( 3d)     0.00059
   183    C   12  dx2y2  Ryd( 3d)     0.00057
   184    C   12  dz2    Ryd( 3d)     0.00044

   185    C   13  S      Cor( 1S)     1.99899
   186    C   13  S      Val( 2S)     0.94713
   187    C   13  S      Ryd( 3S)     0.00105
   188    C   13  S      Ryd( 4S)     0.00005
   189    C   13  px     Val( 2p)     1.12586
   190    C   13  px     Ryd( 3p)     0.00642
   191    C   13  py     Val( 2p)     1.06080
   192    C   13  py     Ryd( 3p)     0.00508
   193    C   13  pz     Val( 2p)     1.15754
   194    C   13  pz     Ryd( 3p)     0.00469
   195    C   13  dxy    Ryd( 3d)     0.00042
   196    C   13  dxz    Ryd( 3d)     0.00060
   197    C   13  dyz    Ryd( 3d)     0.00044
   198    C   13  dx2y2  Ryd( 3d)     0.00058
   199    C   13  dz2    Ryd( 3d)     0.00047

   200    C   14  S      Cor( 1S)     1.99899
   201    C   14  S      Val( 2S)     0.95670
   202    C   14  S      Ryd( 3S)     0.00096
   203    C   14  S      Ryd( 4S)     0.00005
   204    C   14  px     Val( 2p)     1.04776
   205    C   14  px     Ryd( 3p)     0.00442
   206    C   14  py     Val( 2p)     1.08005
   207    C   14  py     Ryd( 3p)     0.00478
   208    C   14  pz     Val( 2p)     1.13653
   209    C   14  pz     Ryd( 3p)     0.00451
   210    C   14  dxy    Ryd( 3d)     0.00049
   211    C   14  dxz    Ryd( 3d)     0.00053
   212    C   14  dyz    Ryd( 3d)     0.00060
   213    C   14  dx2y2  Ryd( 3d)     0.00067
   214    C   14  dz2    Ryd( 3d)     0.00047

   215    C   15  S      Cor( 1S)     1.99904
   216    C   15  S      Val( 2S)     0.95104
   217    C   15  S      Ryd( 3S)     0.00064
   218    C   15  S      Ryd( 4S)     0.00003
   219    C   15  px     Val( 2p)     1.13459
   220    C   15  px     Ryd( 3p)     0.00430
   221    C   15  py     Val( 2p)     1.09104
   222    C   15  py     Ryd( 3p)     0.00437
   223    C   15  pz     Val( 2p)     1.14376
   224    C   15  pz     Ryd( 3p)     0.00437
   225    C   15  dxy    Ryd( 3d)     0.00038
   226    C   15  dxz    Ryd( 3d)     0.00060
   227    C   15  dyz    Ryd( 3d)     0.00048
   228    C   15  dx2y2  Ryd( 3d)     0.00049
   229    C   15  dz2    Ryd( 3d)     0.00044

   230    H   16  S      Val( 1S)     0.57343
   231    H   16  S      Ryd( 2S)     0.00122
   232    H   16  px     Ryd( 2p)     0.00026
   233    H   16  py     Ryd( 2p)     0.00040
   234    H   16  pz     Ryd( 2p)     0.00056

   235    H   17  S      Val( 1S)     0.57472
   236    H   17  S      Ryd( 2S)     0.00142
   237    H   17  px     Ryd( 2p)     0.00047
   238    H   17  py     Ryd( 2p)     0.00039
   239    H   17  pz     Ryd( 2p)     0.00037

   240    H   18  S      Val( 1S)     0.75583
   241    H   18  S      Ryd( 2S)     0.00107
   242    H   18  px     Ryd( 2p)     0.00009
   243    H   18  py     Ryd( 2p)     0.00024
   244    H   18  pz     Ryd( 2p)     0.00029

   245    H   19  S      Val( 1S)     0.75509
   246    H   19  S      Ryd( 2S)     0.00168
   247    H   19  px     Ryd( 2p)     0.00024
   248    H   19  py     Ryd( 2p)     0.00013
   249    H   19  pz     Ryd( 2p)     0.00029

   250    H   20  S      Val( 1S)     0.74781
   251    H   20  S      Ryd( 2S)     0.00127
   252    H   20  px     Ryd( 2p)     0.00010
   253    H   20  py     Ryd( 2p)     0.00023
   254    H   20  pz     Ryd( 2p)     0.00029

   255    H   21  S      Val( 1S)     0.75506
   256    H   21  S      Ryd( 2S)     0.00099
   257    H   21  px     Ryd( 2p)     0.00022
   258    H   21  py     Ryd( 2p)     0.00011
   259    H   21  pz     Ryd( 2p)     0.00028

   260    H   22  S      Val( 1S)     0.57341
   261    H   22  S      Ryd( 2S)     0.00122
   262    H   22  px     Ryd( 2p)     0.00026
   263    H   22  py     Ryd( 2p)     0.00040
   264    H   22  pz     Ryd( 2p)     0.00056

   265    H   23  S      Val( 1S)     0.57470
   266    H   23  S      Ryd( 2S)     0.00142
   267    H   23  px     Ryd( 2p)     0.00047
   268    H   23  py     Ryd( 2p)     0.00039
   269    H   23  pz     Ryd( 2p)     0.00037

   270    H   24  S      Val( 1S)     0.75585
   271    H   24  S      Ryd( 2S)     0.00107
   272    H   24  px     Ryd( 2p)     0.00009
   273    H   24  py     Ryd( 2p)     0.00024
   274    H   24  pz     Ryd( 2p)     0.00029

   275    H   25  S      Val( 1S)     0.75511
   276    H   25  S      Ryd( 2S)     0.00168
   277    H   25  px     Ryd( 2p)     0.00024
   278    H   25  py     Ryd( 2p)     0.00013
   279    H   25  pz     Ryd( 2p)     0.00029

   280    H   26  S      Val( 1S)     0.74780
   281    H   26  S      Ryd( 2S)     0.00127
   282    H   26  px     Ryd( 2p)     0.00010
   283    H   26  py     Ryd( 2p)     0.00023
   284    H   26  pz     Ryd( 2p)     0.00029

   285    H   27  S      Val( 1S)     0.75504
   286    H   27  S      Ryd( 2S)     0.00099
   287    H   27  px     Ryd( 2p)     0.00022
   288    H   27  py     Ryd( 2p)     0.00011
   289    H   27  pz     Ryd( 2p)     0.00028

 WARNING:  1 low occupancy (<1.9990e) core orbital  found on  C    2
           1 low occupancy (<1.9990e) core orbital  found on  C    4
           1 low occupancy (<1.9990e) core orbital  found on  C    5
           1 low occupancy (<1.9990e) core orbital  found on  C    7
           1 low occupancy (<1.9990e) core orbital  found on  C    8
           1 low occupancy (<1.9990e) core orbital  found on  C   10
           1 low occupancy (<1.9990e) core orbital  found on  C   13
           1 low occupancy (<1.9990e) core orbital  found on  C   14


 Summary of Natural Population Analysis:                  
                                                          
                                       Natural Population 
                Natural  -----------------------------------------------
    Atom  No    Charge         Core      Valence    Rydberg      Total
 -----------------------------------------------------------------------
      N    1   -0.79233      1.99949     5.78170    0.01113     7.79233
      C    2    0.18674      1.99899     3.79628    0.01799     5.81326
      C    3   -0.30249      1.99904     4.28878    0.01466     6.30249
      C    4   -0.30999      1.99899     4.29119    0.01981     6.30999
      C    5   -0.23094      1.99873     4.20878    0.02343     6.23094
      S    6    0.39343      9.99901     5.55551    0.05205    15.60657
      C    7   -0.23073      1.99873     4.20858    0.02342     6.23073
      C    8   -0.23771      1.99899     4.22121    0.01750     6.23771
      C    9   -0.33571      1.99904     4.32055    0.01613     6.33571
      C   10    0.18684      1.99899     3.79618    0.01799     5.81316
      N   11   -0.79216      1.99949     5.78154    0.01113     7.79216
      C   12   -0.30265      1.99904     4.28894    0.01467     6.30265
      C   13   -0.31012      1.99899     4.29132    0.01981     6.31012
      C   14   -0.23752      1.99899     4.22104    0.01749     6.23752
      C   15   -0.33559      1.99904     4.32043    0.01612     6.33559
      H   16    0.42413      0.00000     0.57343    0.00245     0.57587
      H   17    0.42263      0.00000     0.57472    0.00265     0.57737
      H   18    0.24249      0.00000     0.75583    0.00168     0.75751
      H   19    0.24256      0.00000     0.75509    0.00234     0.75744
      H   20    0.25030      0.00000     0.74781    0.00189     0.74970
      H   21    0.24333      0.00000     0.75506    0.00161     0.75667
      H   22    0.42414      0.00000     0.57341    0.00245     0.57586
      H   23    0.42265      0.00000     0.57470    0.00265     0.57735
      H   24    0.24247      0.00000     0.75585    0.00168     0.75753
      H   25    0.24255      0.00000     0.75511    0.00234     0.75745
      H   26    0.25032      0.00000     0.74780    0.00189     0.74968
      H   27    0.24335      0.00000     0.75504    0.00161     0.75665
 =======================================================================
   * Total *    0.00000     37.98555    75.69589    0.31856   114.00000

                                 Natural Population      
 --------------------------------------------------------
   Core                      37.98555 ( 99.9620% of  38)
   Valence                   75.69589 ( 99.5999% of  76)
   Natural Minimal Basis    113.68144 ( 99.7206% of 114)
   Natural Rydberg Basis      0.31856 (  0.2794% of 114)
 --------------------------------------------------------

    Atom  No          Natural Electron Configuration
 ----------------------------------------------------------------------------
      N    1      [core]2S( 1.36)2p( 4.42)3p( 0.01)
      C    2      [core]2S( 0.85)2p( 2.95)3p( 0.01)
      C    3      [core]2S( 0.95)2p( 3.34)3p( 0.01)
      C    4      [core]2S( 0.95)2p( 3.34)3p( 0.02)
      C    5      [core]2S( 0.96)2p( 3.25)3p( 0.02)
      S    6      [core]3S( 1.65)3p( 3.91)4S( 0.01)3d( 0.02)4p( 0.02)
      C    7      [core]2S( 0.96)2p( 3.25)3p( 0.02)
      C    8      [core]2S( 0.96)2p( 3.26)3p( 0.01)
      C    9      [core]2S( 0.95)2p( 3.37)3p( 0.01)
      C   10      [core]2S( 0.85)2p( 2.95)3p( 0.01)
      N   11      [core]2S( 1.36)2p( 4.42)3p( 0.01)
      C   12      [core]2S( 0.95)2p( 3.34)3p( 0.01)
      C   13      [core]2S( 0.95)2p( 3.34)3p( 0.02)
      C   14      [core]2S( 0.96)2p( 3.26)3p( 0.01)
      C   15      [core]2S( 0.95)2p( 3.37)3p( 0.01)
      H   16            1S( 0.57)
      H   17            1S( 0.57)
      H   18            1S( 0.76)
      H   19            1S( 0.76)
      H   20            1S( 0.75)
      H   21            1S( 0.76)
      H   22            1S( 0.57)
      H   23            1S( 0.57)
      H   24            1S( 0.76)
      H   25            1S( 0.76)
      H   26            1S( 0.75)
      H   27            1S( 0.76)


 NBO analysis skipped by request.
 1\1\GINC-DRG2-W002\SP\RB3LYP TD-FC\6-31G(d,p)\C12H12N2S1\QDUEZ\18-Jul-
 2024\0\\# TD(NStates=10, Root=1) B3LYP/6-31G** SCRF=(Solvent=water) vo
 lume pop=NPA density=current Geom=AllCheck Guess=Read\\ICNFHJVPAJKPHW-
 UHFFFAOYSA-N_conf_1\\0,1\N,0,4.801104959,1.3654605387,0.4223574738\C,0
 ,3.7057407496,0.5364911774,0.2084648182\C,0,2.8329885127,0.7591724385,
 -0.8761997367\C,0,1.7085106813,-0.0374004643,-1.0584306693\C,0,1.40218
 82896,-1.0660842725,-0.1552122579\S,0,-0.0181154453,-2.1418279919,-0.4
 00658036\C,0,-1.4204849474,-1.0259885131,-0.2490248716\C,0,-2.28376511
 7,-0.8417262941,-1.3365758891\C,0,-3.4099873157,-0.0299483817,-1.22506
 78049\C,0,-3.6972467035,0.6386690332,-0.0207624749\N,0,-4.7786888961,1
 .5072780873,0.0728775037\C,0,-2.8239822485,0.453110178,1.0704529297\C,
 0,-1.7128176927,-0.3745073934,0.9584236635\C,0,2.2649446068,-1.2885289
 101,0.9255951169\C,0,3.4042127875,-0.5071961254,1.1027352727\H,0,5.155
 0427693,1.8387908398,-0.3986218654\H,0,5.548035216,0.962983024,0.97321
 62877\H,0,3.0498550939,1.55651713,-1.5822618286\H,0,1.0582695481,0.144
 5072053,-1.9088502999\H,0,-2.0757182985,-1.3396106911,-2.2787775453\H,
 0,-4.0696846472,0.0989139493,-2.0789881421\H,0,-5.1272971561,1.6682710
 633,1.0087595344\H,0,-5.530412808,1.3354020523,-0.5818800026\H,0,-3.03
 00237615,0.9556658939,2.0118866846\H,0,-1.0620452686,-0.5125973006,1.8
 166449538\H,0,2.0461498342,-2.0817420019,1.6340138271\H,0,4.0632272573
 ,-0.6963666451,1.9458833581\\Version=ES64L-G16RevA.03\State=1-A\HF=-97
 2.2323035\RMSD=3.835e-09\Dipole=0.0097716,1.1518128,0.2088374\Quadrupo
 le=27.7115669,-17.4618012,-10.2497657,-0.4718252,0.5186484,-1.3568023\
 PG=C01 [X(C12H12N2S1)]\\@


 IF YOU GIVE A BOY AND A PIG EVERYTHING THEY WANT,
 YOU'LL GET A BAD BOY AND A GOOD PIG.
 Job cpu time:       0 days  0 hours 39 minutes 22.3 seconds.
 Elapsed time:       0 days  0 hours 13 minutes 31.8 seconds.
 File lengths (MBytes):  RWF=    710 Int=      0 D2E=      0 Chk=     44 Scr=      1
 Normal termination of Gaussian 16 at Thu Jul 18 00:21:35 2024.
