 Entering Gaussian System, Link 0=g16
 Initial command:
 /opt/sw/arch/manual/gaussian/G16_A03/g16/l1.exe "/scratch/1380852/Gau-215475.inp" -scrdir="/scratch/1380852/"
 Entering Link 1 = /opt/sw/arch/manual/gaussian/G16_A03/g16/l1.exe PID=    215476.
  
 Copyright (c) 1988,1990,1992,1993,1995,1998,2003,2009,2016,
            Gaussian, Inc.  All Rights Reserved.
  
 This is part of the Gaussian(R) 16 program.  It is based on
 the Gaussian(R) 09 system (copyright 2009, Gaussian, Inc.),
 the Gaussian(R) 03 system (copyright 2003, Gaussian, Inc.),
 the Gaussian(R) 98 system (copyright 1998, Gaussian, Inc.),
 the Gaussian(R) 94 system (copyright 1995, Gaussian, Inc.),
 the Gaussian 92(TM) system (copyright 1992, Gaussian, Inc.),
 the Gaussian 90(TM) system (copyright 1990, Gaussian, Inc.),
 the Gaussian 88(TM) system (copyright 1988, Gaussian, Inc.),
 the Gaussian 86(TM) system (copyright 1986, Carnegie Mellon
 University), and the Gaussian 82(TM) system (copyright 1983,
 Carnegie Mellon University). Gaussian is a federally registered
 trademark of Gaussian, Inc.
  
 This software contains proprietary and confidential information,
 including trade secrets, belonging to Gaussian, Inc.
  
 This software is provided under written license and may be
 used, copied, transmitted, or stored only in accord with that
 written license.
  
 The following legend is applicable only to US Government
 contracts under FAR:
  
                    RESTRICTED RIGHTS LEGEND
  
 Use, reproduction and disclosure by the US Government is
 subject to restrictions as set forth in subparagraphs (a)
 and (c) of the Commercial Computer Software - Restricted
 Rights clause in FAR 52.227-19.
  
 Gaussian, Inc.
 340 Quinnipiac St., Bldg. 40, Wallingford CT 06492
  
  
 ---------------------------------------------------------------
 Warning -- This program may not be used in any manner that
 competes with the business of Gaussian, Inc. or will provide
 assistance to any competitor of Gaussian, Inc.  The licensee
 of this program is prohibited from giving any competitor of
 Gaussian, Inc. access to this program.  By using this program,
 the user acknowledges that Gaussian, Inc. is engaged in the
 business of creating and licensing software in the field of
 computational chemistry and represents and warrants to the
 licensee that it is not a competitor of Gaussian, Inc. and that
 it will not use this program in any manner prohibited above.
 ---------------------------------------------------------------
  

 Cite this work as:
 Gaussian 16, Revision A.03,
 M. J. Frisch, G. W. Trucks, H. B. Schlegel, G. E. Scuseria, 
 M. A. Robb, J. R. Cheeseman, G. Scalmani, V. Barone, 
 G. A. Petersson, H. Nakatsuji, X. Li, M. Caricato, A. V. Marenich, 
 J. Bloino, B. G. Janesko, R. Gomperts, B. Mennucci, H. P. Hratchian, 
 J. V. Ortiz, A. F. Izmaylov, J. L. Sonnenberg, D. Williams-Young, 
 F. Ding, F. Lipparini, F. Egidi, J. Goings, B. Peng, A. Petrone, 
 T. Henderson, D. Ranasinghe, V. G. Zakrzewski, J. Gao, N. Rega, 
 G. Zheng, W. Liang, M. Hada, M. Ehara, K. Toyota, R. Fukuda, 
 J. Hasegawa, M. Ishida, T. Nakajima, Y. Honda, O. Kitao, H. Nakai, 
 T. Vreven, K. Throssell, J. A. Montgomery, Jr., J. E. Peralta, 
 F. Ogliaro, M. J. Bearpark, J. J. Heyd, E. N. Brothers, K. N. Kudin, 
 V. N. Staroverov, T. A. Keith, R. Kobayashi, J. Normand, 
 K. Raghavachari, A. P. Rendell, J. C. Burant, S. S. Iyengar, 
 J. Tomasi, M. Cossi, J. M. Millam, M. Klene, C. Adamo, R. Cammi, 
 J. W. Ochterski, R. L. Martin, K. Morokuma, O. Farkas, 
 J. B. Foresman, and D. J. Fox, Gaussian, Inc., Wallingford CT, 2016.
 
 ******************************************
 Gaussian 16:  ES64L-G16RevA.03 25-Dec-2016
                17-Jul-2024 
 ******************************************
 %nprocshared=4
 Will use up to    4 processors via shared memory.
 %mem=8GB
 %Chk=ICNFHJVPAJKPHW-UHFFFAOYSA-N_conf_0_0.chk
 -------------------------------------------------------
 # opt=CalcFc B3LYP/6-31G** SCRF=(Solvent=water) scf=xqc
 -------------------------------------------------------
 1/10=4,18=20,19=15,26=3,38=1/1,3;
 2/9=110,12=2,17=6,18=5,40=1/2;
 3/5=1,6=6,7=101,11=2,25=1,30=1,70=2201,71=2,72=1,74=-5,140=1/1,2,3;
 4//1;
 5/5=2,8=3,13=1,38=5,53=1/2,8;
 8/6=4,10=90,11=11/1;
 11/6=1,8=1,9=11,15=111,16=1/1,2,10;
 10/6=1,13=1/2;
 6/7=2,8=2,9=2,10=2,28=1/1;
 7/10=1,18=20,25=1/1,2,3,16;
 1/10=4,18=20,19=15,26=3/3(2);
 2/9=110/2;
 99//99;
 2/9=110/2;
 3/5=1,6=6,7=101,11=2,25=1,30=1,70=2205,71=1,72=1,74=-5/1,2,3;
 4/5=5,16=3,69=1/1;
 5/5=2,8=3,13=1,38=5,53=1/2,8;
 7//1,2,3,16;
 1/18=20,19=15,26=3/3(-5);
 2/9=110/2;
 6/7=2,8=2,9=2,10=2,19=2,28=1/1;
 99/9=1/99;
 ----------------------------------
 ICNFHJVPAJKPHW-UHFFFAOYSA-N_conf_0
 ----------------------------------
 Symbolic Z-matrix:
 Charge =  0 Multiplicity = 1
 N                     4.60836  -1.61078   0.4471 
 C                     3.59754  -0.64471   0.49188 
 C                     3.30367   0.01187   1.68861 
 C                     2.21815   0.8903    1.77478 
 C                     1.38005   1.08708   0.6748 
 S                     0.00907   2.21964   0.81325 
 C                    -1.37068   1.20675   0.31146 
 C                    -2.20776   1.65126  -0.71459 
 C                    -3.30003   0.87743  -1.12147 
 C                    -3.6015   -0.32537  -0.47962 
 N                    -4.61965  -1.15037  -0.96932 
 C                    -2.73423  -0.78946   0.51137 
 C                    -1.64125  -0.01963   0.92384 
 C                     1.64279   0.39487  -0.51012 
 C                     2.72903  -0.48329  -0.58943 
 H                     4.95342  -1.80038  -0.48866 
 H                     5.36058  -1.44931   1.10934 
 H                     3.91984  -0.15199   2.56858 
 H                     2.02712   1.40534   2.71305 
 H                    -2.01077   2.59482  -1.21759 
 H                    -3.91545   1.22726  -1.94595 
 H                    -4.96822  -1.81919  -0.28972 
 H                    -5.36915  -0.64675  -1.43308 
 H                    -2.9014   -1.75717   0.97675 
 H                    -0.99887  -0.39711   1.71555 
 H                     0.99937   0.51782  -1.37778 
 H                     2.88998  -1.03893  -1.5094 
 

 GradGradGradGradGradGradGradGradGradGradGradGradGradGradGradGradGradGrad
 Berny optimization.
 Initialization pass.
                           ----------------------------
                           !    Initial Parameters    !
                           ! (Angstroms and Degrees)  !
 --------------------------                            --------------------------
 ! Name  Definition              Value          Derivative Info.                !
 --------------------------------------------------------------------------------
 ! R1    R(1,2)                  1.399          calculate D2E/DX2 analytically  !
 ! R2    R(1,16)                 1.0152         calculate D2E/DX2 analytically  !
 ! R3    R(1,17)                 1.0151         calculate D2E/DX2 analytically  !
 ! R4    R(2,3)                  1.3963         calculate D2E/DX2 analytically  !
 ! R5    R(2,15)                 1.3963         calculate D2E/DX2 analytically  !
 ! R6    R(3,4)                  1.3991         calculate D2E/DX2 analytically  !
 ! R7    R(3,18)                 1.0867         calculate D2E/DX2 analytically  !
 ! R8    R(4,5)                  1.3968         calculate D2E/DX2 analytically  !
 ! R9    R(4,19)                 1.0872         calculate D2E/DX2 analytically  !
 ! R10   R(5,6)                  1.7837         calculate D2E/DX2 analytically  !
 ! R11   R(5,14)                 1.3972         calculate D2E/DX2 analytically  !
 ! R12   R(6,7)                  1.7837         calculate D2E/DX2 analytically  !
 ! R13   R(7,8)                  1.3968         calculate D2E/DX2 analytically  !
 ! R14   R(7,13)                 1.3972         calculate D2E/DX2 analytically  !
 ! R15   R(8,9)                  1.3991         calculate D2E/DX2 analytically  !
 ! R16   R(8,20)                 1.0872         calculate D2E/DX2 analytically  !
 ! R17   R(9,10)                 1.3963         calculate D2E/DX2 analytically  !
 ! R18   R(9,21)                 1.0867         calculate D2E/DX2 analytically  !
 ! R19   R(10,11)                1.399          calculate D2E/DX2 analytically  !
 ! R20   R(10,12)                1.3963         calculate D2E/DX2 analytically  !
 ! R21   R(11,22)                1.0152         calculate D2E/DX2 analytically  !
 ! R22   R(11,23)                1.0151         calculate D2E/DX2 analytically  !
 ! R23   R(12,13)                1.3991         calculate D2E/DX2 analytically  !
 ! R24   R(12,24)                1.0867         calculate D2E/DX2 analytically  !
 ! R25   R(13,25)                1.0872         calculate D2E/DX2 analytically  !
 ! R26   R(14,15)                1.3991         calculate D2E/DX2 analytically  !
 ! R27   R(14,26)                1.0872         calculate D2E/DX2 analytically  !
 ! R28   R(15,27)                1.0867         calculate D2E/DX2 analytically  !
 ! A1    A(2,1,16)             113.8326         calculate D2E/DX2 analytically  !
 ! A2    A(2,1,17)             113.8723         calculate D2E/DX2 analytically  !
 ! A3    A(16,1,17)            112.2824         calculate D2E/DX2 analytically  !
 ! A4    A(1,2,3)              120.2808         calculate D2E/DX2 analytically  !
 ! A5    A(1,2,15)             120.2973         calculate D2E/DX2 analytically  !
 ! A6    A(3,2,15)             118.5853         calculate D2E/DX2 analytically  !
 ! A7    A(2,3,4)              120.7527         calculate D2E/DX2 analytically  !
 ! A8    A(2,3,18)             120.2522         calculate D2E/DX2 analytically  !
 ! A9    A(4,3,18)             118.995          calculate D2E/DX2 analytically  !
 ! A10   A(3,4,5)              120.363          calculate D2E/DX2 analytically  !
 ! A11   A(3,4,19)             119.1375         calculate D2E/DX2 analytically  !
 ! A12   A(5,4,19)             120.4929         calculate D2E/DX2 analytically  !
 ! A13   A(4,5,6)              119.3083         calculate D2E/DX2 analytically  !
 ! A14   A(4,5,14)             119.027          calculate D2E/DX2 analytically  !
 ! A15   A(6,5,14)             121.6639         calculate D2E/DX2 analytically  !
 ! A16   A(5,6,7)              102.2488         calculate D2E/DX2 analytically  !
 ! A17   A(6,7,8)              119.3083         calculate D2E/DX2 analytically  !
 ! A18   A(6,7,13)             121.6639         calculate D2E/DX2 analytically  !
 ! A19   A(8,7,13)             119.027          calculate D2E/DX2 analytically  !
 ! A20   A(7,8,9)              120.363          calculate D2E/DX2 analytically  !
 ! A21   A(7,8,20)             120.4929         calculate D2E/DX2 analytically  !
 ! A22   A(9,8,20)             119.1375         calculate D2E/DX2 analytically  !
 ! A23   A(8,9,10)             120.7527         calculate D2E/DX2 analytically  !
 ! A24   A(8,9,21)             118.995          calculate D2E/DX2 analytically  !
 ! A25   A(10,9,21)            120.2522         calculate D2E/DX2 analytically  !
 ! A26   A(9,10,11)            120.2808         calculate D2E/DX2 analytically  !
 ! A27   A(9,10,12)            118.5853         calculate D2E/DX2 analytically  !
 ! A28   A(11,10,12)           120.2973         calculate D2E/DX2 analytically  !
 ! A29   A(10,11,22)           113.8326         calculate D2E/DX2 analytically  !
 ! A30   A(10,11,23)           113.8723         calculate D2E/DX2 analytically  !
 ! A31   A(22,11,23)           112.2824         calculate D2E/DX2 analytically  !
 ! A32   A(10,12,13)           120.7704         calculate D2E/DX2 analytically  !
 ! A33   A(10,12,24)           120.2885         calculate D2E/DX2 analytically  !
 ! A34   A(13,12,24)           118.9409         calculate D2E/DX2 analytically  !
 ! A35   A(7,13,12)            120.3338         calculate D2E/DX2 analytically  !
 ! A36   A(7,13,25)            120.6311         calculate D2E/DX2 analytically  !
 ! A37   A(12,13,25)           119.0283         calculate D2E/DX2 analytically  !
 ! A38   A(5,14,15)            120.3338         calculate D2E/DX2 analytically  !
 ! A39   A(5,14,26)            120.6311         calculate D2E/DX2 analytically  !
 ! A40   A(15,14,26)           119.0284         calculate D2E/DX2 analytically  !
 ! A41   A(2,15,14)            120.7704         calculate D2E/DX2 analytically  !
 ! A42   A(2,15,27)            120.2886         calculate D2E/DX2 analytically  !
 ! A43   A(14,15,27)           118.9409         calculate D2E/DX2 analytically  !
 ! D1    D(16,1,2,3)          -160.7169         calculate D2E/DX2 analytically  !
 ! D2    D(16,1,2,15)           29.9023         calculate D2E/DX2 analytically  !
 ! D3    D(17,1,2,3)           -30.2664         calculate D2E/DX2 analytically  !
 ! D4    D(17,1,2,15)          160.3528         calculate D2E/DX2 analytically  !
 ! D5    D(1,2,3,4)           -174.2064         calculate D2E/DX2 analytically  !
 ! D6    D(1,2,3,18)             5.9449         calculate D2E/DX2 analytically  !
 ! D7    D(15,2,3,4)            -4.646          calculate D2E/DX2 analytically  !
 ! D8    D(15,2,3,18)          175.5053         calculate D2E/DX2 analytically  !
 ! D9    D(1,2,15,14)          174.2768         calculate D2E/DX2 analytically  !
 ! D10   D(1,2,15,27)           -5.8799         calculate D2E/DX2 analytically  !
 ! D11   D(3,2,15,14)            4.7181         calculate D2E/DX2 analytically  !
 ! D12   D(3,2,15,27)         -175.4386         calculate D2E/DX2 analytically  !
 ! D13   D(2,3,4,5)              2.3497         calculate D2E/DX2 analytically  !
 ! D14   D(2,3,4,19)          -178.5801         calculate D2E/DX2 analytically  !
 ! D15   D(18,3,4,5)          -177.7997         calculate D2E/DX2 analytically  !
 ! D16   D(18,3,4,19)            1.2705         calculate D2E/DX2 analytically  !
 ! D17   D(3,4,5,6)           -179.6983         calculate D2E/DX2 analytically  !
 ! D18   D(3,4,5,14)            -0.029          calculate D2E/DX2 analytically  !
 ! D19   D(19,4,5,6)             1.2442         calculate D2E/DX2 analytically  !
 ! D20   D(19,4,5,14)         -179.0865         calculate D2E/DX2 analytically  !
 ! D21   D(4,5,6,7)           -126.0784         calculate D2E/DX2 analytically  !
 ! D22   D(14,5,6,7)            54.2613         calculate D2E/DX2 analytically  !
 ! D23   D(4,5,14,15)            0.0997         calculate D2E/DX2 analytically  !
 ! D24   D(4,5,14,26)          179.1466         calculate D2E/DX2 analytically  !
 ! D25   D(6,5,14,15)          179.7609         calculate D2E/DX2 analytically  !
 ! D26   D(6,5,14,26)           -1.1922         calculate D2E/DX2 analytically  !
 ! D27   D(5,6,7,8)           -126.0788         calculate D2E/DX2 analytically  !
 ! D28   D(5,6,7,13)            54.261          calculate D2E/DX2 analytically  !
 ! D29   D(6,7,8,9)           -179.6983         calculate D2E/DX2 analytically  !
 ! D30   D(6,7,8,20)             1.2442         calculate D2E/DX2 analytically  !
 ! D31   D(13,7,8,9)            -0.029          calculate D2E/DX2 analytically  !
 ! D32   D(13,7,8,20)         -179.0865         calculate D2E/DX2 analytically  !
 ! D33   D(6,7,13,12)          179.7609         calculate D2E/DX2 analytically  !
 ! D34   D(6,7,13,25)           -1.1922         calculate D2E/DX2 analytically  !
 ! D35   D(8,7,13,12)            0.0997         calculate D2E/DX2 analytically  !
 ! D36   D(8,7,13,25)          179.1466         calculate D2E/DX2 analytically  !
 ! D37   D(7,8,9,10)             2.3497         calculate D2E/DX2 analytically  !
 ! D38   D(7,8,9,21)          -177.7997         calculate D2E/DX2 analytically  !
 ! D39   D(20,8,9,10)         -178.5801         calculate D2E/DX2 analytically  !
 ! D40   D(20,8,9,21)            1.2705         calculate D2E/DX2 analytically  !
 ! D41   D(8,9,10,11)         -174.2064         calculate D2E/DX2 analytically  !
 ! D42   D(8,9,10,12)           -4.646          calculate D2E/DX2 analytically  !
 ! D43   D(21,9,10,11)           5.9449         calculate D2E/DX2 analytically  !
 ! D44   D(21,9,10,12)         175.5053         calculate D2E/DX2 analytically  !
 ! D45   D(9,10,11,22)        -160.7169         calculate D2E/DX2 analytically  !
 ! D46   D(9,10,11,23)         -30.2663         calculate D2E/DX2 analytically  !
 ! D47   D(12,10,11,22)         29.9023         calculate D2E/DX2 analytically  !
 ! D48   D(12,10,11,23)        160.3529         calculate D2E/DX2 analytically  !
 ! D49   D(9,10,12,13)           4.7182         calculate D2E/DX2 analytically  !
 ! D50   D(9,10,12,24)        -175.4385         calculate D2E/DX2 analytically  !
 ! D51   D(11,10,12,13)        174.2768         calculate D2E/DX2 analytically  !
 ! D52   D(11,10,12,24)         -5.8799         calculate D2E/DX2 analytically  !
 ! D53   D(10,12,13,7)          -2.4935         calculate D2E/DX2 analytically  !
 ! D54   D(10,12,13,25)        178.4444         calculate D2E/DX2 analytically  !
 ! D55   D(24,12,13,7)         177.6611         calculate D2E/DX2 analytically  !
 ! D56   D(24,12,13,25)         -1.4009         calculate D2E/DX2 analytically  !
 ! D57   D(5,14,15,2)           -2.4935         calculate D2E/DX2 analytically  !
 ! D58   D(5,14,15,27)         177.6611         calculate D2E/DX2 analytically  !
 ! D59   D(26,14,15,2)         178.4445         calculate D2E/DX2 analytically  !
 ! D60   D(26,14,15,27)         -1.4009         calculate D2E/DX2 analytically  !
 --------------------------------------------------------------------------------
 Trust Radius=3.00D-01 FncErr=1.00D-07 GrdErr=1.00D-06 EigMax=2.50D+02 EigMin=1.00D-04
 Number of steps in this run=    141 maximum allowed number of steps=    162.
 GradGradGradGradGradGradGradGradGradGradGradGradGradGradGradGradGradGrad

                          Input orientation:                          
 ---------------------------------------------------------------------
 Center     Atomic      Atomic             Coordinates (Angstroms)
 Number     Number       Type             X           Y           Z
 ---------------------------------------------------------------------
      1          7           0        4.608365   -1.610778    0.447101
      2          6           0        3.597538   -0.644709    0.491883
      3          6           0        3.303666    0.011866    1.688605
      4          6           0        2.218149    0.890301    1.774783
      5          6           0        1.380054    1.087077    0.674800
      6         16           0        0.009074    2.219643    0.813248
      7          6           0       -1.370676    1.206748    0.311459
      8          6           0       -2.207763    1.651263   -0.714590
      9          6           0       -3.300035    0.877434   -1.121471
     10          6           0       -3.601504   -0.325369   -0.479617
     11          7           0       -4.619654   -1.150373   -0.969316
     12          6           0       -2.734229   -0.789456    0.511372
     13          6           0       -1.641248   -0.019629    0.923839
     14          6           0        1.642788    0.394865   -0.510118
     15          6           0        2.729031   -0.483288   -0.589432
     16          1           0        4.953424   -1.800383   -0.488663
     17          1           0        5.360575   -1.449314    1.109345
     18          1           0        3.919839   -0.151986    2.568585
     19          1           0        2.027118    1.405345    2.713050
     20          1           0       -2.010774    2.594818   -1.217588
     21          1           0       -3.915452    1.227256   -1.945951
     22          1           0       -4.968220   -1.819193   -0.289718
     23          1           0       -5.369148   -0.646750   -1.433083
     24          1           0       -2.901400   -1.757169    0.976747
     25          1           0       -0.998872   -0.397111    1.715548
     26          1           0        0.999375    0.517824   -1.377784
     27          1           0        2.889978   -1.038932   -1.509402
 ---------------------------------------------------------------------
                    Distance matrix (angstroms):
                    1          2          3          4          5
     1  N    0.000000
     2  C    1.398952   0.000000
     3  C    2.424159   1.396279   0.000000
     4  C    3.705572   2.429980   1.399078   0.000000
     5  C    4.213343   2.819535   2.425729   1.396813   0.000000
     6  S    5.996637   4.602701   4.061386   2.751674   1.783664
     7  C    6.611034   5.305054   5.017344   3.888589   2.777203
     8  C    7.645262   6.358348   6.232080   5.134661   3.888592
     9  C    8.437677   7.245436   7.228734   6.232079   5.017347
    10  C    8.361401   7.271313   7.245432   6.358344   5.305055
    11  N    9.347435   8.361402   8.437674   7.645259   6.611036
    12  C    7.388666   6.333451   6.203561   5.379948   4.524976
    13  C    6.466583   5.293599   5.003802   4.055493   3.227241
    14  C    3.705876   2.430179   2.782012   2.407752   1.397218
    15  C    2.424361   1.396282   2.401007   2.781593   2.425710
    16  H    1.015220   2.033588   3.278178   4.454739   4.739204
    17  H    1.015115   2.033949   2.588719   3.973845   4.739901
    18  H    2.665114   2.158552   1.086684   2.147611   3.401795
    19  H    4.571034   3.406247   2.149614   1.087248   2.162047
    20  H    8.016933   6.698506   6.584896   5.453755   4.165588
    21  H    9.297128   8.117408   8.173300   7.181815   5.910192
    22  H    9.607149   8.681159   8.700036   7.952825   7.048211
    23  H   10.198784   9.170985   9.241018   8.379738   7.280183
    24  H    7.529842   6.611267   6.491461   5.818568   5.148957
    25  H    5.875632   4.762945   4.322016   3.465569   2.990863
    26  H    4.570116   3.405523   3.868913   3.400415   2.163808
    27  H    2.666039   2.158980   3.391543   3.867707   3.401547
                    6          7          8          9         10
     6  S    0.000000
     7  C    1.783664   0.000000
     8  C    2.751674   1.396813   0.000000
     9  C    4.061387   2.425729   1.399078   0.000000
    10  C    4.602701   2.819535   2.429980   1.396279   0.000000
    11  N    5.996638   4.213343   3.705572   2.424159   1.398952
    12  C    4.083076   2.425710   2.781593   2.401007   1.396281
    13  C    2.783906   1.397218   2.407752   2.782011   2.430179
    14  C    2.783906   3.227244   4.055501   5.003811   5.293606
    15  C    4.083076   4.524978   5.379955   6.203569   6.333457
    16  H    6.504013   7.048211   7.952831   8.700043   8.681161
    17  H    6.495189   7.280180   8.379741   9.241020   9.170982
    18  H    4.898971   5.910188   7.181814   8.173298   8.117401
    19  H    2.888742   4.165584   5.453752   6.584892   6.698499
    20  H    2.888743   2.162047   1.087248   2.149614   3.406247
    21  H    4.898971   3.401795   2.147611   1.086684   2.158552
    22  H    6.504013   4.739204   4.454739   3.278178   2.033588
    23  H    6.495189   4.739901   3.973846   2.588719   2.033949
    24  H    4.930783   3.401547   3.867707   3.391542   2.158979
    25  H    2.945760   2.163808   3.400415   3.868913   3.405523
    26  H    2.945760   2.990869   3.465580   4.322030   4.762958
    27  H    4.930782   5.148960   5.818577   6.491472   6.611276
                   11         12         13         14         15
    11  N    0.000000
    12  C    2.424361   0.000000
    13  C    3.705876   1.399060   0.000000
    14  C    6.466591   4.648046   3.607344   0.000000
    15  C    7.388673   5.581462   4.648044   1.399060   0.000000
    16  H    9.607152   7.818060   6.975382   3.972391   2.587048
    17  H   10.198783   8.143638   7.148702   4.454840   3.277815
    18  H    9.297121   6.993934   5.800724   3.868129   3.391291
    19  H    8.016926   5.686384   4.323048   3.399646   3.868592
    20  H    4.571034   3.868592   3.399646   4.323056   5.686393
    21  H    2.665115   3.391291   3.868129   5.800735   6.993945
    22  H    1.015220   2.587048   3.972391   6.975389   7.818065
    23  H    1.015115   3.277815   4.454840   7.148711   8.143646
    24  H    2.666038   1.086733   2.147050   5.243249   5.981424
    25  H    4.570116   2.148357   1.087172   3.543894   4.383791
    26  H    5.875646   4.383798   3.543898   1.087172   2.148356
    27  H    7.529853   5.981427   5.243248   2.147050   1.086733
                   16         17         18         19         20
    16  H    0.000000
    17  H    1.686016   0.000000
    18  H    3.623848   2.426553   0.000000
    19  H    5.393600   4.672567   2.455309   0.000000
    20  H    8.267356   8.723898   7.553291   5.759282   0.000000
    21  H    9.484053  10.126378   9.147412   7.553288   2.455309
    22  H    9.923656  10.429678   9.484043   8.267346   5.393600
    23  H   10.429684  11.055994  10.126373   8.723891   4.672567
    24  H    7.990467   8.268772   7.186088   6.107907   4.954605
    25  H    6.500581   6.474348   4.998148   3.660666   4.310321
    26  H    4.668954   5.392171   4.954956   4.310321   3.660678
    27  H    2.424774   3.623547   4.298519   4.954605   6.107918
                   21         22         23         24         25
    21  H    0.000000
    22  H    3.623848   0.000000
    23  H    2.426554   1.686016   0.000000
    24  H    4.298518   2.424774   3.623547   0.000000
    25  H    4.954955   4.668954   5.392171   2.452589   0.000000
    26  H    4.998163   6.500594   6.474363   5.092686   3.794575
    27  H    7.186102   7.990476   8.268784   6.343253   5.092680
                   26         27
    26  H    0.000000
    27  H    2.452589   0.000000
 Stoichiometry    C12H12N2S
 Framework group  C1[X(C12H12N2S)]
 Deg. of freedom    75
 Full point group                 C1      NOp   1
 Largest Abelian subgroup         C1      NOp   1
 Largest concise Abelian subgroup C1      NOp   1
                         Standard orientation:                         
 ---------------------------------------------------------------------
 Center     Atomic      Atomic             Coordinates (Angstroms)
 Number     Number       Type             X           Y           Z
 ---------------------------------------------------------------------
      1          7           0       -4.672608   -1.770420    0.101826
      2          6           0       -3.632645   -0.835852    0.147942
      3          6           0       -3.513221    0.134354   -0.849070
      4          6           0       -2.411777    0.996491   -0.880064
      5          6           0       -1.387280    0.867226    0.060564
      6         16           0        0.000000    1.986709   -0.000002
      7          6           0        1.387280    0.867225   -0.060565
      8          6           0        2.411781    0.996497    0.880057
      9          6           0        3.513225    0.134359    0.849065
     10          6           0        3.632645   -0.835854   -0.147941
     11          7           0        4.672609   -1.770421   -0.101824
     12          6           0        2.583404   -0.993787   -1.055549
     13          6           0        1.480080   -0.133884   -1.030817
     14          6           0       -1.480084   -0.133875    1.030823
     15          6           0       -2.583409   -0.993778    1.055557
     16          1           0       -4.861429   -2.218337    0.993111
     17          1           0       -5.517457   -1.423384   -0.341178
     18          1           0       -4.279766    0.231388   -1.613188
     19          1           0       -2.356855    1.757574   -1.654561
     20          1           0        2.356862    1.757586    1.654548
     21          1           0        4.279773    0.231400    1.613178
     22          1           0        4.861426   -2.218343   -0.993106
     23          1           0        5.517460   -1.423382    0.341175
     24          1           0        2.614133   -1.788666   -1.795962
     25          1           0        0.691125   -0.266695   -1.766924
     26          1           0       -0.691133   -0.266681    1.766935
     27          1           0       -2.614141   -1.788651    1.795976
 ---------------------------------------------------------------------
 Rotational constants (GHZ):           1.1520364           0.2646508           0.2385356
 Standard basis: 6-31G(d,p) (6D, 7F)
 There are   289 symmetry adapted cartesian basis functions of A   symmetry.
 There are   289 symmetry adapted basis functions of A   symmetry.
   289 basis functions,   528 primitive gaussians,   289 cartesian basis functions
    57 alpha electrons       57 beta electrons
       nuclear repulsion energy       992.2738686256 Hartrees.
 NAtoms=   27 NActive=   27 NUniq=   27 SFac= 1.00D+00 NAtFMM=   60 NAOKFM=F Big=F
 Integral buffers will be    131072 words long.
 Raffenetti 2 integral format.
 Two-electron integral symmetry is turned on.
 Force inversion solution in PCM.
 ------------------------------------------------------------------------------
 Polarizable Continuum Model (PCM)
 =================================
 Model                : PCM.
 Atomic radii         : UFF (Universal Force Field).
 Polarization charges : Total charges.
 Charge compensation  : None.
 Solution method      : Matrix inversion.
 Cavity type          : Scaled VdW (van der Waals Surface) (Alpha=1.100).
 Cavity algorithm     : GePol (No added spheres)
                        Default sphere list used, NSphG=   27.
                        Lebedev-Laikov grids with approx.  5.0 points / Ang**2.
                        Smoothing algorithm: York/Karplus (Gamma=1.0000).
                        Polarization charges: spherical gaussians, with
                                              point-specific exponents (IZeta= 3).
                        Self-potential: point-specific (ISelfS= 7).
                        Self-field    : sphere-specific E.n sum rule (ISelfD= 2).
 1st derivatives      : Analytical E(r).r(x)/FMM algorithm (CHGder, D1EAlg=3).
                        Cavity 1st derivative terms included.
 2nd derivatives      : Analytical E(r).r(xy)/FMM algorithm (CHGder, D2EAlg=3).
                        Cavity 2nd derivative terms included.
 Solvent              : Water, Eps=  78.355300 Eps(inf)=   1.777849
 ------------------------------------------------------------------------------
 One-electron integrals computed using PRISM.
 NBasis=   289 RedAO= T EigKep=  4.61D-04  NBF=   289
 NBsUse=   289 1.00D-06 EigRej= -1.00D+00 NBFU=   289
 ExpMin= 1.17D-01 ExpMax= 2.19D+04 ExpMxC= 3.30D+03 IAcc=3 IRadAn=         5 AccDes= 0.00D+00
 Harris functional with IExCor=  402 and IRadAn=       5 diagonalized for initial guess.
 HarFok:  IExCor=  402 AccDes= 0.00D+00 IRadAn=         5 IDoV= 1 UseB2=F ITyADJ=14
 ICtDFT=  3500011 ScaDFX=  1.000000  1.000000  1.000000  1.000000
 FoFCou: FMM=F IPFlag=           0 FMFlag=      100000 FMFlg1=           0
         NFxFlg=           0 DoJE=T BraDBF=F KetDBF=T FulRan=T
         wScrn=  0.000000 ICntrl=       500 IOpCl=  0 I1Cent=   200000004 NGrid=           0
         NMat0=    1 NMatS0=      1 NMatT0=    0 NMatD0=    1 NMtDS0=    0 NMtDT0=    0
 Petite list used in FoFCou.
 Keep R1 ints in memory in canonical form, NReq=890231612.
 Requested convergence on RMS density matrix=1.00D-08 within  32 cycles.
 Requested convergence on MAX density matrix=1.00D-06.
 Requested convergence on             energy=1.00D-06.
 No special actions if energy rises.
 Inv3:  Mode=1 IEnd=    13932075.
 Iteration    1 A*A^-1 deviation from unit magnitude is 3.22D-15 for    375.
 Iteration    1 A*A^-1 deviation from orthogonality  is 1.78D-15 for   2073   1851.
 Iteration    1 A^-1*A deviation from unit magnitude is 3.00D-15 for   1085.
 Iteration    1 A^-1*A deviation from orthogonality  is 2.00D-15 for   1877   1507.
 Error on total polarization charges =  0.01079
 SCF Done:  E(RB3LYP) =  -972.229129573     A.U. after   12 cycles
            NFock= 12  Conv=0.83D-08     -V/T= 2.0071
 QCSCF skips out because SCF is already converged.
 DoSCS=F DFT=T ScalE2(SS,OS)=  1.000000  1.000000
 Range of M.O.s used for correlation:     1   289
 NBasis=   289 NAE=    57 NBE=    57 NFC=     0 NFV=     0
 NROrb=    289 NOA=    57 NOB=    57 NVA=   232 NVB=   232
 Symmetrizing basis deriv contribution to polar:
 IMax=3 JMax=2 DiffMx= 0.00D+00
 G2DrvN: will do    28 centers at a time, making    1 passes.
 Calling FoFCou, ICntrl=  3107 FMM=F I1Cent=   0 AccDes= 0.00D+00.
 NEqPCM:  Using equilibrium solvation (IEInf=0, Eps=  78.3553, EpsInf=   1.7778)
 G2PCM: DoFxE=T DoFxN=T DoGrad=T DoDP/DQ/DG/TGxP=FFFF NFrqRd=   0 IEInf=0 SqF1=F DoCFld=F IF1Alg=4.
 End of G2Drv F.D. properties file   721 does not exist.
 End of G2Drv F.D. properties file   722 does not exist.
 End of G2Drv F.D. properties file   788 does not exist.
          IDoAtm=111111111111111111111111111
 NEqPCM:  Using equilibrium solvation (IEInf=0, Eps=  78.3553, EpsInf=   1.7778)
          Differentiating once with respect to nuclear coordinates.
 Keep R1 ints in memory in canonical form, NReq=890242852.
          There are    84 degrees of freedom in the 1st order CPHF.  IDoFFX=6 NUNeed=     0.
     78 vectors produced by pass  0 Test12= 1.57D-14 1.19D-09 XBig12= 1.07D-01 8.12D-02.
 AX will form    78 AO Fock derivatives at one time.
     78 vectors produced by pass  1 Test12= 1.57D-14 1.19D-09 XBig12= 1.54D-02 2.10D-02.
     78 vectors produced by pass  2 Test12= 1.57D-14 1.19D-09 XBig12= 1.65D-04 1.82D-03.
     78 vectors produced by pass  3 Test12= 1.57D-14 1.19D-09 XBig12= 8.93D-07 8.64D-05.
     78 vectors produced by pass  4 Test12= 1.57D-14 1.19D-09 XBig12= 1.25D-09 2.39D-06.
     59 vectors produced by pass  5 Test12= 1.57D-14 1.19D-09 XBig12= 1.33D-12 1.06D-07.
     14 vectors produced by pass  6 Test12= 1.57D-14 1.19D-09 XBig12= 1.57D-15 4.51D-09.
 InvSVY:  IOpt=1 It=  1 EMax= 2.78D-16
 Solved reduced A of dimension   463 with    84 vectors.
 End of Minotr F.D. properties file   721 does not exist.
 End of Minotr F.D. properties file   722 does not exist.
 End of Minotr F.D. properties file   788 does not exist.

 **********************************************************************

            Population analysis using the SCF density.

 **********************************************************************

 Orbital symmetries:
       Occupied  (A) (A) (A) (A) (A) (A) (A) (A) (A) (A) (A) (A)
                 (A) (A) (A) (A) (A) (A) (A) (A) (A) (A) (A) (A)
                 (A) (A) (A) (A) (A) (A) (A) (A) (A) (A) (A) (A)
                 (A) (A) (A) (A) (A) (A) (A) (A) (A) (A) (A) (A)
                 (A) (A) (A) (A) (A) (A) (A) (A) (A)
       Virtual   (A) (A) (A) (A) (A) (A) (A) (A) (A) (A) (A) (A)
                 (A) (A) (A) (A) (A) (A) (A) (A) (A) (A) (A) (A)
                 (A) (A) (A) (A) (A) (A) (A) (A) (A) (A) (A) (A)
                 (A) (A) (A) (A) (A) (A) (A) (A) (A) (A) (A) (A)
                 (A) (A) (A) (A) (A) (A) (A) (A) (A) (A) (A) (A)
                 (A) (A) (A) (A) (A) (A) (A) (A) (A) (A) (A) (A)
                 (A) (A) (A) (A) (A) (A) (A) (A) (A) (A) (A) (A)
                 (A) (A) (A) (A) (A) (A) (A) (A) (A) (A) (A) (A)
                 (A) (A) (A) (A) (A) (A) (A) (A) (A) (A) (A) (A)
                 (A) (A) (A) (A) (A) (A) (A) (A) (A) (A) (A) (A)
                 (A) (A) (A) (A) (A) (A) (A) (A) (A) (A) (A) (A)
                 (A) (A) (A) (A) (A) (A) (A) (A) (A) (A) (A) (A)
                 (A) (A) (A) (A) (A) (A) (A) (A) (A) (A) (A) (A)
                 (A) (A) (A) (A) (A) (A) (A) (A) (A) (A) (A) (A)
                 (A) (A) (A) (A) (A) (A) (A) (A) (A) (A) (A) (A)
                 (A) (A) (A) (A) (A) (A) (A) (A) (A) (A) (A) (A)
                 (A) (A) (A) (A) (A) (A) (A) (A) (A) (A) (A) (A)
                 (A) (A) (A) (A) (A) (A) (A) (A) (A) (A) (A) (A)
                 (A) (A) (A) (A) (A) (A) (A) (A) (A) (A) (A) (A)
                 (A) (A) (A) (A)
 The electronic state is 1-A.
 Alpha  occ. eigenvalues --  -88.88006 -14.33901 -14.33901 -10.22997 -10.22997
 Alpha  occ. eigenvalues --  -10.21051 -10.21051 -10.19497 -10.19496 -10.19495
 Alpha  occ. eigenvalues --  -10.19495 -10.18718 -10.18718 -10.18638 -10.18638
 Alpha  occ. eigenvalues --   -7.94042  -5.90562  -5.90176  -5.89551  -0.91730
 Alpha  occ. eigenvalues --   -0.91703  -0.85630  -0.83967  -0.77863  -0.74684
 Alpha  occ. eigenvalues --   -0.74673  -0.72852  -0.67476  -0.61787  -0.61698
 Alpha  occ. eigenvalues --   -0.59636  -0.57353  -0.52182  -0.51327  -0.50711
 Alpha  occ. eigenvalues --   -0.50615  -0.47252  -0.44787  -0.43592  -0.43281
 Alpha  occ. eigenvalues --   -0.43234  -0.41867  -0.41858  -0.40997  -0.39110
 Alpha  occ. eigenvalues --   -0.38289  -0.35970  -0.34832  -0.34772  -0.33760
 Alpha  occ. eigenvalues --   -0.31575  -0.30486  -0.25481  -0.25205  -0.25065
 Alpha  occ. eigenvalues --   -0.21348  -0.19140
 Alpha virt. eigenvalues --   -0.01148  -0.00632  -0.00337   0.00774   0.06085
 Alpha virt. eigenvalues --    0.07908   0.09605   0.09698   0.12312   0.12979
 Alpha virt. eigenvalues --    0.13096   0.13316   0.15619   0.16203   0.16916
 Alpha virt. eigenvalues --    0.17336   0.17844   0.18393   0.20042   0.20177
 Alpha virt. eigenvalues --    0.23493   0.24886   0.26952   0.28794   0.29023
 Alpha virt. eigenvalues --    0.31369   0.33080   0.33348   0.33931   0.35242
 Alpha virt. eigenvalues --    0.37724   0.38169   0.40638   0.41117   0.45747
 Alpha virt. eigenvalues --    0.49621   0.50074   0.52567   0.53425   0.53516
 Alpha virt. eigenvalues --    0.54348   0.55366   0.56373   0.56780   0.58795
 Alpha virt. eigenvalues --    0.59035   0.59543   0.59670   0.59773   0.59821
 Alpha virt. eigenvalues --    0.60043   0.61164   0.61600   0.62503   0.62815
 Alpha virt. eigenvalues --    0.64535   0.65269   0.65734   0.67722   0.69781
 Alpha virt. eigenvalues --    0.69953   0.73191   0.75124   0.76309   0.76615
 Alpha virt. eigenvalues --    0.78090   0.78520   0.81817   0.81828   0.82312
 Alpha virt. eigenvalues --    0.82960   0.84269   0.84354   0.85471   0.85587
 Alpha virt. eigenvalues --    0.87247   0.88444   0.88682   0.88967   0.89081
 Alpha virt. eigenvalues --    0.90574   0.91945   0.92335   0.93398   0.94517
 Alpha virt. eigenvalues --    0.96610   0.98365   0.99966   1.00819   1.02000
 Alpha virt. eigenvalues --    1.02416   1.02984   1.05915   1.08418   1.08646
 Alpha virt. eigenvalues --    1.11605   1.15227   1.15832   1.16037   1.19564
 Alpha virt. eigenvalues --    1.20811   1.25860   1.26547   1.28664   1.28678
 Alpha virt. eigenvalues --    1.30179   1.31876   1.36311   1.37555   1.39004
 Alpha virt. eigenvalues --    1.39043   1.40442   1.40472   1.41784   1.42695
 Alpha virt. eigenvalues --    1.45327   1.45741   1.51350   1.51527   1.54895
 Alpha virt. eigenvalues --    1.56335   1.73782   1.74271   1.76247   1.76738
 Alpha virt. eigenvalues --    1.77951   1.78580   1.79048   1.81305   1.81335
 Alpha virt. eigenvalues --    1.82705   1.86186   1.87526   1.92509   1.92667
 Alpha virt. eigenvalues --    1.93745   1.94464   1.96171   1.97225   1.97420
 Alpha virt. eigenvalues --    1.98198   2.00542   2.01609   2.02115   2.05317
 Alpha virt. eigenvalues --    2.07688   2.08255   2.08770   2.10220   2.12536
 Alpha virt. eigenvalues --    2.12881   2.16638   2.16733   2.24234   2.24347
 Alpha virt. eigenvalues --    2.26448   2.26453   2.30174   2.30779   2.32991
 Alpha virt. eigenvalues --    2.33226   2.35284   2.35427   2.40345   2.40912
 Alpha virt. eigenvalues --    2.41078   2.41235   2.45030   2.45232   2.45886
 Alpha virt. eigenvalues --    2.46433   2.46503   2.47090   2.47992   2.49213
 Alpha virt. eigenvalues --    2.52539   2.52978   2.55534   2.56899   2.58054
 Alpha virt. eigenvalues --    2.59204   2.59323   2.59835   2.65030   2.65723
 Alpha virt. eigenvalues --    2.69005   2.69048   2.74033   2.74399   2.74953
 Alpha virt. eigenvalues --    2.75933   2.76314   2.76893   2.85645   2.86008
 Alpha virt. eigenvalues --    2.97992   2.98194   2.99240   2.99568   3.05408
 Alpha virt. eigenvalues --    3.05431   3.17175   3.19397   3.24771   3.24959
 Alpha virt. eigenvalues --    3.28048   3.28159   3.28237   3.28315   3.36149
 Alpha virt. eigenvalues --    3.36752   3.48220   3.48603   3.52840   3.53256
 Alpha virt. eigenvalues --    3.77255   3.80532   4.00966   4.03646   4.04214
 Alpha virt. eigenvalues --    4.13291   4.13497   4.14900   4.16148   4.17302
 Alpha virt. eigenvalues --    4.20818   4.41662   4.41804   4.42565   4.45142
 Alpha virt. eigenvalues --    4.79284   4.79422
          Condensed to atoms (all electrons):
               1          2          3          4          5          6
     1  N    6.826123   0.299051  -0.070451   0.004478   0.000577   0.000009
     2  C    0.299051   4.575818   0.536124  -0.017580  -0.035355   0.000626
     3  C   -0.070451   0.536124   4.943731   0.515688  -0.044577   0.005389
     4  C    0.004478  -0.017580   0.515688   4.870089   0.519380  -0.058448
     5  C    0.000577  -0.035355  -0.044577   0.519380   5.101910   0.248246
     6  S    0.000009   0.000626   0.005389  -0.058448   0.248246  15.687800
     7  C    0.000000   0.000036  -0.000109  -0.000741  -0.028142   0.248245
     8  C    0.000000   0.000000   0.000001  -0.000046  -0.000741  -0.058447
     9  C   -0.000000   0.000000  -0.000000   0.000001  -0.000109   0.005389
    10  C   -0.000000  -0.000000   0.000000   0.000000   0.000036   0.000626
    11  N    0.000000  -0.000000  -0.000000   0.000000   0.000000   0.000009
    12  C   -0.000000   0.000001   0.000000   0.000003   0.000066   0.005162
    13  C   -0.000000   0.000007  -0.000054   0.000194  -0.003684  -0.059882
    14  C    0.004541  -0.016614  -0.042084  -0.026467   0.499902  -0.059882
    15  C   -0.070257   0.532468  -0.053599  -0.041598  -0.042541   0.005162
    16  H    0.343592  -0.024740   0.005484  -0.000184   0.000007  -0.000000
    17  H    0.343695  -0.024610  -0.009204  -0.000052   0.000003  -0.000000
    18  H   -0.007424  -0.043569   0.367748  -0.036011   0.005034  -0.000235
    19  H   -0.000112   0.003989  -0.034995   0.372740  -0.049246   0.000831
    20  H   -0.000000  -0.000000   0.000000  -0.000001  -0.000033   0.000831
    21  H    0.000000  -0.000000   0.000000  -0.000000   0.000000  -0.000235
    22  H    0.000000  -0.000000   0.000000   0.000000   0.000000  -0.000000
    23  H    0.000000  -0.000000  -0.000000   0.000000   0.000000  -0.000000
    24  H    0.000000  -0.000000  -0.000000   0.000000  -0.000001  -0.000217
    25  H    0.000000  -0.000036   0.000087   0.001288   0.003433  -0.005507
    26  H   -0.000113   0.003892   0.000689   0.004574  -0.049324  -0.005507
    27  H   -0.007412  -0.043274   0.005208   0.000476   0.004952  -0.000217
               7          8          9         10         11         12
     1  N    0.000000   0.000000  -0.000000  -0.000000   0.000000  -0.000000
     2  C    0.000036   0.000000   0.000000  -0.000000  -0.000000   0.000001
     3  C   -0.000109   0.000001  -0.000000   0.000000  -0.000000   0.000000
     4  C   -0.000741  -0.000046   0.000001   0.000000   0.000000   0.000003
     5  C   -0.028142  -0.000741  -0.000109   0.000036   0.000000   0.000066
     6  S    0.248245  -0.058447   0.005389   0.000626   0.000009   0.005162
     7  C    5.101910   0.519380  -0.044577  -0.035355   0.000577  -0.042541
     8  C    0.519380   4.870089   0.515688  -0.017580   0.004478  -0.041598
     9  C   -0.044577   0.515688   4.943731   0.536124  -0.070451  -0.053599
    10  C   -0.035355  -0.017580   0.536124   4.575818   0.299051   0.532468
    11  N    0.000577   0.004478  -0.070451   0.299051   6.826123  -0.070257
    12  C   -0.042541  -0.041598  -0.053599   0.532468  -0.070257   4.935426
    13  C    0.499902  -0.026467  -0.042084  -0.016614   0.004541   0.523247
    14  C   -0.003684   0.000194  -0.000054   0.000007  -0.000000  -0.000098
    15  C    0.000066   0.000003   0.000000   0.000001  -0.000000  -0.000012
    16  H    0.000000   0.000000   0.000000  -0.000000   0.000000   0.000000
    17  H    0.000000   0.000000  -0.000000  -0.000000   0.000000  -0.000000
    18  H    0.000000  -0.000000   0.000000  -0.000000   0.000000   0.000000
    19  H   -0.000033  -0.000001   0.000000  -0.000000  -0.000000   0.000001
    20  H   -0.049246   0.372740  -0.034995   0.003989  -0.000112   0.000657
    21  H    0.005034  -0.036011   0.367748  -0.043569  -0.007424   0.005281
    22  H    0.000007  -0.000184   0.005484  -0.024740   0.343592  -0.009167
    23  H    0.000003  -0.000052  -0.009204  -0.024610   0.343695   0.005467
    24  H    0.004952   0.000476   0.005208  -0.043274  -0.007412   0.368154
    25  H   -0.049324   0.004574   0.000689   0.003892  -0.000113  -0.035045
    26  H    0.003433   0.001287   0.000087  -0.000036   0.000000  -0.000065
    27  H   -0.000001   0.000000  -0.000000  -0.000000   0.000000  -0.000000
              13         14         15         16         17         18
     1  N   -0.000000   0.004541  -0.070257   0.343592   0.343695  -0.007424
     2  C    0.000007  -0.016614   0.532468  -0.024740  -0.024610  -0.043569
     3  C   -0.000054  -0.042084  -0.053599   0.005484  -0.009204   0.367748
     4  C    0.000194  -0.026467  -0.041598  -0.000184  -0.000052  -0.036011
     5  C   -0.003684   0.499902  -0.042541   0.000007   0.000003   0.005034
     6  S   -0.059882  -0.059882   0.005162  -0.000000  -0.000000  -0.000235
     7  C    0.499902  -0.003684   0.000066   0.000000   0.000000   0.000000
     8  C   -0.026467   0.000194   0.000003   0.000000   0.000000  -0.000000
     9  C   -0.042084  -0.000054   0.000000   0.000000  -0.000000   0.000000
    10  C   -0.016614   0.000007   0.000001  -0.000000  -0.000000  -0.000000
    11  N    0.004541  -0.000000  -0.000000   0.000000   0.000000   0.000000
    12  C    0.523247  -0.000098  -0.000012   0.000000  -0.000000   0.000000
    13  C    4.872702   0.001267  -0.000098   0.000000   0.000000   0.000001
    14  C    0.001267   4.872702   0.523247  -0.000060  -0.000183   0.000424
    15  C   -0.000098   0.523247   4.935426  -0.009167   0.005467   0.005281
    16  H    0.000000  -0.000060  -0.009167   0.429227  -0.028141  -0.000057
    17  H    0.000000  -0.000183   0.005467  -0.028141   0.428987   0.004453
    18  H    0.000001   0.000424   0.005281  -0.000057   0.004453   0.611084
    19  H   -0.000002   0.004842   0.000657   0.000003  -0.000006  -0.006517
    20  H    0.004842  -0.000002   0.000001  -0.000000  -0.000000   0.000000
    21  H    0.000424   0.000001   0.000000  -0.000000  -0.000000  -0.000000
    22  H   -0.000060   0.000000   0.000000  -0.000000  -0.000000  -0.000000
    23  H   -0.000183   0.000000  -0.000000  -0.000000  -0.000000  -0.000000
    24  H   -0.036585   0.000004  -0.000000  -0.000000  -0.000000   0.000000
    25  H    0.373303   0.000472  -0.000065  -0.000000  -0.000000  -0.000000
    26  H    0.000472   0.373303  -0.035045  -0.000005   0.000003   0.000014
    27  H    0.000004  -0.036585   0.368153   0.004598  -0.000046  -0.000184
              19         20         21         22         23         24
     1  N   -0.000112  -0.000000   0.000000   0.000000   0.000000   0.000000
     2  C    0.003989  -0.000000  -0.000000  -0.000000  -0.000000  -0.000000
     3  C   -0.034995   0.000000   0.000000   0.000000  -0.000000  -0.000000
     4  C    0.372740  -0.000001  -0.000000   0.000000   0.000000   0.000000
     5  C   -0.049246  -0.000033   0.000000   0.000000   0.000000  -0.000001
     6  S    0.000831   0.000831  -0.000235  -0.000000  -0.000000  -0.000217
     7  C   -0.000033  -0.049246   0.005034   0.000007   0.000003   0.004952
     8  C   -0.000001   0.372740  -0.036011  -0.000184  -0.000052   0.000476
     9  C    0.000000  -0.034995   0.367748   0.005484  -0.009204   0.005208
    10  C   -0.000000   0.003989  -0.043569  -0.024740  -0.024610  -0.043274
    11  N   -0.000000  -0.000112  -0.007424   0.343592   0.343695  -0.007412
    12  C    0.000001   0.000657   0.005281  -0.009167   0.005467   0.368154
    13  C   -0.000002   0.004842   0.000424  -0.000060  -0.000183  -0.036585
    14  C    0.004842  -0.000002   0.000001   0.000000   0.000000   0.000004
    15  C    0.000657   0.000001   0.000000   0.000000  -0.000000  -0.000000
    16  H    0.000003  -0.000000  -0.000000  -0.000000  -0.000000  -0.000000
    17  H   -0.000006  -0.000000  -0.000000  -0.000000  -0.000000  -0.000000
    18  H   -0.006517   0.000000  -0.000000  -0.000000  -0.000000   0.000000
    19  H    0.601231   0.000000   0.000000  -0.000000  -0.000000  -0.000000
    20  H    0.000000   0.601231  -0.006517   0.000003  -0.000006   0.000015
    21  H    0.000000  -0.006517   0.611084  -0.000057   0.004453  -0.000184
    22  H   -0.000000   0.000003  -0.000057   0.429227  -0.028141   0.004598
    23  H   -0.000000  -0.000006   0.004453  -0.028141   0.428987  -0.000046
    24  H   -0.000000   0.000015  -0.000184   0.004598  -0.000046   0.609828
    25  H    0.000047  -0.000168   0.000014  -0.000005   0.000003  -0.006259
    26  H   -0.000168   0.000047  -0.000000  -0.000000  -0.000000   0.000000
    27  H    0.000015  -0.000000   0.000000  -0.000000  -0.000000   0.000000
              25         26         27
     1  N    0.000000  -0.000113  -0.007412
     2  C   -0.000036   0.003892  -0.043274
     3  C    0.000087   0.000689   0.005208
     4  C    0.001288   0.004574   0.000476
     5  C    0.003433  -0.049324   0.004952
     6  S   -0.005507  -0.005507  -0.000217
     7  C   -0.049324   0.003433  -0.000001
     8  C    0.004574   0.001287   0.000000
     9  C    0.000689   0.000087  -0.000000
    10  C    0.003892  -0.000036  -0.000000
    11  N   -0.000113   0.000000   0.000000
    12  C   -0.035045  -0.000065  -0.000000
    13  C    0.373303   0.000472   0.000004
    14  C    0.000472   0.373303  -0.036585
    15  C   -0.000065  -0.035045   0.368153
    16  H   -0.000000  -0.000005   0.004598
    17  H   -0.000000   0.000003  -0.000046
    18  H   -0.000000   0.000014  -0.000184
    19  H    0.000047  -0.000168   0.000015
    20  H   -0.000168   0.000047  -0.000000
    21  H    0.000014  -0.000000   0.000000
    22  H   -0.000005  -0.000000  -0.000000
    23  H    0.000003  -0.000000  -0.000000
    24  H   -0.006259   0.000000   0.000000
    25  H    0.601457  -0.000034   0.000000
    26  H   -0.000034   0.601457  -0.006259
    27  H    0.000000  -0.006259   0.609828
 Mulliken charges:
               1
     1  N   -0.666296
     2  C    0.253766
     3  C   -0.125077
     4  C   -0.107783
     5  C   -0.129792
     6  S    0.040252
     7  C   -0.129791
     8  C   -0.107783
     9  C   -0.125077
    10  C    0.253766
    11  N   -0.666296
    12  C   -0.123551
    13  C   -0.095194
    14  C   -0.095193
    15  C   -0.123551
    16  H    0.279443
    17  H    0.279634
    18  H    0.099958
    19  H    0.106724
    20  H    0.106724
    21  H    0.099958
    22  H    0.279443
    23  H    0.279634
    24  H    0.100745
    25  H    0.107296
    26  H    0.107296
    27  H    0.100745
 Sum of Mulliken charges =  -0.00000
 Mulliken charges with hydrogens summed into heavy atoms:
               1
     1  N   -0.107219
     2  C    0.253766
     3  C   -0.025119
     4  C   -0.001058
     5  C   -0.129792
     6  S    0.040252
     7  C   -0.129791
     8  C   -0.001059
     9  C   -0.025119
    10  C    0.253766
    11  N   -0.107219
    12  C   -0.022807
    13  C    0.012102
    14  C    0.012103
    15  C   -0.022806
 APT charges:
               1
     1  N   -1.579493
     2  C    0.261268
     3  C   -0.432676
     4  C   -0.549603
     5  C   -0.428686
     6  S   -0.035982
     7  C   -0.428686
     8  C   -0.549603
     9  C   -0.432676
    10  C    0.261269
    11  N   -1.579492
    12  C   -0.425063
    13  C   -0.620339
    14  C   -0.620339
    15  C   -0.425063
    16  H    0.766914
    17  H    1.040015
    18  H    0.748871
    19  H    0.492795
    20  H    0.492797
    21  H    0.748872
    22  H    0.766912
    23  H    1.040016
    24  H    0.500863
    25  H    0.243120
    26  H    0.243122
    27  H    0.500865
 Sum of APT charges =  -0.00000
 APT charges with hydrogens summed into heavy atoms:
               1
     1  N    0.227436
     2  C    0.261268
     3  C    0.316195
     4  C   -0.056807
     5  C   -0.428686
     6  S   -0.035982
     7  C   -0.428686
     8  C   -0.056806
     9  C    0.316196
    10  C    0.261269
    11  N    0.227436
    12  C    0.075801
    13  C   -0.377219
    14  C   -0.377217
    15  C    0.075802
 Electronic spatial extent (au):  <R**2>=           4558.6704
 Charge=             -0.0000 electrons
 Dipole moment (field-independent basis, Debye):
    X=             -0.0000    Y=             -3.1347    Z=             -0.0000  Tot=              3.1347
 Quadrupole moment (field-independent basis, Debye-Ang):
   XX=            -48.6354   YY=            -98.8737   ZZ=            -88.7062
   XY=              0.0000   XZ=             -2.8195   YZ=              0.0000
 Traceless Quadrupole moment (field-independent basis, Debye-Ang):
   XX=             30.1030   YY=            -20.1353   ZZ=             -9.9678
   XY=              0.0000   XZ=             -2.8195   YZ=              0.0000
 Octapole moment (field-independent basis, Debye-Ang**2):
  XXX=             -0.0001  YYY=            -18.2008  ZZZ=              0.0000  XYY=              0.0002
  XXY=            -64.9764  XXZ=             -0.0001  XZZ=             -0.0003  YZZ=            -11.9531
  YYZ=             -0.0001  XYZ=             38.7917
 Hexadecapole moment (field-independent basis, Debye-Ang**3):
 XXXX=          -3024.7869 YYYY=           -978.3317 ZZZZ=           -422.8396 XXXY=              0.0012
 XXXZ=            -28.5869 YYYX=             -0.0005 YYYZ=              0.0004 ZZZX=             -1.8323
 ZZZY=             -0.0002 XXYY=           -877.6756 XXZZ=           -772.6751 YYZZ=           -206.9607
 XXYZ=              0.0005 YYXZ=            -70.8161 ZZXY=              0.0003
 N-N= 9.922738686256D+02 E-N=-4.263190400140D+03  KE= 9.653870210766D+02
  Exact polarizability:   0.000   0.000   0.000   0.000   0.000   0.000
 Approx polarizability: 315.428   0.000 236.372  50.331   0.000 204.232
 D2PCM: PCM CHGder 2nd derivatives, FixD1E=F FixD2E=F DoIter=F DoCFld=F I1PDM=0
 Calling FoFJK, ICntrl=    100147 FMM=F ISym2X=0 I1Cent= 0 IOpClX= 0 NMat=1 NMatS=1 NMatT=0.
 ***** Axes restored to original set *****
 -------------------------------------------------------------------
 Center     Atomic                   Forces (Hartrees/Bohr)
 Number     Number              X              Y              Z
 -------------------------------------------------------------------
      1        7           0.001527831    0.004576864   -0.001643430
      2        6           0.001056432   -0.018478288    0.005316274
      3        6          -0.003007096    0.013176802    0.006841619
      4        6           0.006490484   -0.005268603    0.002062788
      5        6          -0.000106433    0.000567092    0.001223788
      6       16           0.000031138    0.007617906    0.002273270
      7        6           0.000113378    0.001144151   -0.000713077
      8        6          -0.006525228   -0.003227602   -0.004598237
      9        6           0.003121266    0.014748267    0.001491714
     10        6          -0.001183379   -0.012534423   -0.014571083
     11        7          -0.001496998    0.002939064    0.003886281
     12        6           0.010815015    0.002606753    0.012837602
     13        6          -0.007560137   -0.007493559   -0.000262745
     14        6           0.007503108   -0.006468586   -0.003903713
     15        6          -0.010766210    0.009296764   -0.009285375
     16        1           0.001671183    0.000008437    0.003403775
     17        1          -0.000094865   -0.001358847   -0.003484976
     18        1           0.001273301   -0.000019485   -0.000802127
     19        1          -0.001067602   -0.000800849   -0.001155592
     20        1           0.001058970   -0.001311187    0.000525343
     21        1          -0.001275230   -0.000446296    0.000663092
     22        1          -0.001663463    0.001884932   -0.002838747
     23        1           0.000076846   -0.003047107    0.002170165
     24        1          -0.001636550    0.000272845    0.000154287
     25        1           0.000037713    0.001092570   -0.001263244
     26        1          -0.000032356    0.000221885    0.001655450
     27        1           0.001638883    0.000300500    0.000016898
 -------------------------------------------------------------------
 Cartesian Forces:  Max     0.018478288 RMS     0.005386602
 FormGI is forming the generalized inverse of G from B-inverse, IUseBI=4.

 GradGradGradGradGradGradGradGradGradGradGradGradGradGradGradGradGradGrad
 Berny optimization.
 Internal  Forces:  Max     0.010060026 RMS     0.002623026
 Search for a local minimum.
 Step number   1 out of a maximum of  141
 All quantities printed in internal units (Hartrees-Bohrs-Radians)
 Mixed Optimization -- RFO/linear search
 Second derivative matrix not updated -- analytic derivatives used.
 ITU=  0
     Eigenvalues ---   -0.00001   0.00303   0.00565   0.00565   0.01519
     Eigenvalues ---    0.01527   0.01721   0.01733   0.01734   0.01759
     Eigenvalues ---    0.01855   0.01871   0.02153   0.02153   0.02156
     Eigenvalues ---    0.02210   0.02380   0.02381   0.02730   0.02752
     Eigenvalues ---    0.02767   0.02772   0.02910   0.02912   0.11265
     Eigenvalues ---    0.11268   0.11493   0.11507   0.11829   0.11830
     Eigenvalues ---    0.12667   0.12668   0.13534   0.13542   0.15331
     Eigenvalues ---    0.15359   0.16184   0.16935   0.17366   0.17885
     Eigenvalues ---    0.18204   0.18580   0.19448   0.19451   0.21645
     Eigenvalues ---    0.21742   0.23127   0.24392   0.31025   0.31439
     Eigenvalues ---    0.31677   0.35570   0.35575   0.35839   0.35866
     Eigenvalues ---    0.35875   0.35891   0.35941   0.35992   0.38313
     Eigenvalues ---    0.38715   0.41076   0.41145   0.44513   0.44698
     Eigenvalues ---    0.45514   0.45529   0.45963   0.45964   0.46807
     Eigenvalues ---    0.46930   0.47664   0.47790   0.51506   0.51575
 RFO step:  Lambda=-5.40239120D-03 EMin=-1.36067893D-05
 Linear search not attempted -- first point.
 Iteration  1 RMS(Cart)=  0.08899159 RMS(Int)=  0.00155025
 Iteration  2 RMS(Cart)=  0.00220183 RMS(Int)=  0.00037067
 Iteration  3 RMS(Cart)=  0.00000293 RMS(Int)=  0.00037066
 Iteration  4 RMS(Cart)=  0.00000000 RMS(Int)=  0.00037066
 Variable       Old X    -DE/DX   Delta X   Delta X   Delta X     New X
                                 (Linear)    (Quad)   (Total)
    R1        2.64364   0.00007   0.00000  -0.01329  -0.01329   2.63035
    R2        1.91849  -0.00257   0.00000  -0.00621  -0.00621   1.91228
    R3        1.91829  -0.00256   0.00000  -0.00604  -0.00604   1.91224
    R4        2.63859   0.00849   0.00000   0.01877   0.01881   2.65739
    R5        2.63859   0.01006   0.00000   0.02369   0.02378   2.66237
    R6        2.64387  -0.00411   0.00000  -0.01139  -0.01144   2.63244
    R7        2.05354   0.00008   0.00000   0.00010   0.00010   2.05364
    R8        2.63959   0.00394   0.00000   0.00672   0.00664   2.64623
    R9        2.05460  -0.00119   0.00000  -0.00263  -0.00263   2.05197
   R10        3.37064   0.00736   0.00000   0.02458   0.02458   3.39521
   R11        2.64036   0.00440   0.00000   0.00989   0.00985   2.65021
   R12        3.37064   0.00736   0.00000   0.02458   0.02458   3.39521
   R13        2.63959   0.00394   0.00000   0.00672   0.00664   2.64623
   R14        2.64036   0.00440   0.00000   0.00989   0.00985   2.65021
   R15        2.64387  -0.00411   0.00000  -0.01139  -0.01144   2.63244
   R16        2.05460  -0.00119   0.00000  -0.00263  -0.00263   2.05197
   R17        2.63859   0.00849   0.00000   0.01877   0.01881   2.65739
   R18        2.05353   0.00008   0.00000   0.00010   0.00010   2.05364
   R19        2.64364   0.00007   0.00000  -0.01329  -0.01329   2.63035
   R20        2.63859   0.01006   0.00000   0.02369   0.02378   2.66237
   R21        1.91849  -0.00257   0.00000  -0.00621  -0.00621   1.91228
   R22        1.91829  -0.00256   0.00000  -0.00604  -0.00604   1.91224
   R23        2.64384  -0.00582   0.00000  -0.01707  -0.01702   2.62682
   R24        2.05363   0.00007   0.00000   0.00027   0.00027   2.05390
   R25        2.05446  -0.00128   0.00000  -0.00260  -0.00260   2.05186
   R26        2.64384  -0.00582   0.00000  -0.01707  -0.01702   2.62682
   R27        2.05446  -0.00128   0.00000  -0.00260  -0.00260   2.05186
   R28        2.05363   0.00007   0.00000   0.00027   0.00027   2.05390
    A1        1.98675   0.00233   0.00000   0.02185   0.02162   2.00837
    A2        1.98745   0.00209   0.00000   0.02031   0.02008   2.00753
    A3        1.95970  -0.00326   0.00000  -0.01566  -0.01599   1.94371
    A4        2.09930   0.00162   0.00000   0.01199   0.01035   2.10964
    A5        2.09958   0.00128   0.00000   0.00939   0.00773   2.10732
    A6        2.06970  -0.00233   0.00000  -0.00461  -0.00614   2.06356
    A7        2.10753  -0.00030   0.00000  -0.00034  -0.00040   2.10713
    A8        2.09880  -0.00104   0.00000  -0.01193  -0.01195   2.08685
    A9        2.07685   0.00134   0.00000   0.01231   0.01230   2.08915
   A10        2.10073   0.00197   0.00000   0.00809   0.00790   2.10863
   A11        2.07934   0.00000   0.00000   0.00475   0.00480   2.08414
   A12        2.10300  -0.00196   0.00000  -0.01263  -0.01258   2.09042
   A13        2.08232   0.00060   0.00000   0.00412   0.00398   2.08631
   A14        2.07741  -0.00114   0.00000  -0.00635  -0.00671   2.07070
   A15        2.12344   0.00054   0.00000   0.00204   0.00191   2.12535
   A16        1.78458   0.00641   0.00000   0.01778   0.01778   1.80236
   A17        2.08232   0.00060   0.00000   0.00412   0.00398   2.08631
   A18        2.12344   0.00054   0.00000   0.00204   0.00191   2.12535
   A19        2.07741  -0.00114   0.00000  -0.00635  -0.00671   2.07070
   A20        2.10073   0.00197   0.00000   0.00809   0.00790   2.10863
   A21        2.10300  -0.00196   0.00000  -0.01263  -0.01258   2.09042
   A22        2.07934   0.00000   0.00000   0.00475   0.00480   2.08414
   A23        2.10753  -0.00030   0.00000  -0.00034  -0.00040   2.10713
   A24        2.07685   0.00134   0.00000   0.01231   0.01230   2.08915
   A25        2.09880  -0.00104   0.00000  -0.01193  -0.01195   2.08685
   A26        2.09930   0.00162   0.00000   0.01199   0.01035   2.10964
   A27        2.06970  -0.00233   0.00000  -0.00461  -0.00614   2.06356
   A28        2.09958   0.00128   0.00000   0.00939   0.00773   2.10732
   A29        1.98675   0.00233   0.00000   0.02185   0.02162   2.00837
   A30        1.98745   0.00209   0.00000   0.02031   0.02008   2.00753
   A31        1.95970  -0.00326   0.00000  -0.01566  -0.01599   1.94371
   A32        2.10784   0.00008   0.00000   0.00044   0.00054   2.10838
   A33        2.09943  -0.00127   0.00000  -0.01363  -0.01369   2.08574
   A34        2.07591   0.00119   0.00000   0.01317   0.01311   2.08902
   A35        2.10022   0.00187   0.00000   0.00749   0.00747   2.10769
   A36        2.10541  -0.00196   0.00000  -0.01403  -0.01403   2.09138
   A37        2.07744   0.00010   0.00000   0.00664   0.00664   2.08408
   A38        2.10022   0.00187   0.00000   0.00749   0.00747   2.10769
   A39        2.10541  -0.00196   0.00000  -0.01403  -0.01403   2.09138
   A40        2.07744   0.00010   0.00000   0.00664   0.00664   2.08408
   A41        2.10784   0.00008   0.00000   0.00044   0.00054   2.10838
   A42        2.09943  -0.00127   0.00000  -0.01363  -0.01369   2.08574
   A43        2.07591   0.00119   0.00000   0.01317   0.01311   2.08902
    D1       -2.80504   0.00186   0.00000   0.04332   0.04353  -2.76151
    D2        0.52189  -0.00142   0.00000  -0.06161  -0.06203   0.45986
    D3       -0.52825   0.00135   0.00000   0.06095   0.06137  -0.46687
    D4        2.79868  -0.00193   0.00000  -0.04398  -0.04419   2.75450
    D5       -3.04047  -0.00127   0.00000  -0.03079  -0.03078  -3.07125
    D6        0.10376  -0.00167   0.00000  -0.04516  -0.04502   0.05874
    D7       -0.08109   0.00233   0.00000   0.07380   0.07360  -0.00748
    D8        3.06315   0.00193   0.00000   0.05943   0.05936   3.12251
    D9        3.04170   0.00180   0.00000   0.04602   0.04578   3.08748
   D10       -0.10262   0.00145   0.00000   0.03757   0.03743  -0.06519
   D11        0.08235  -0.00183   0.00000  -0.05886  -0.05874   0.02361
   D12       -3.06198  -0.00218   0.00000  -0.06732  -0.06709  -3.12907
   D13        0.04101  -0.00137   0.00000  -0.04669  -0.04679  -0.00578
   D14       -3.11681  -0.00086   0.00000  -0.03208  -0.03206   3.13432
   D15       -3.10319  -0.00098   0.00000  -0.03254  -0.03256  -3.13575
   D16        0.02217  -0.00047   0.00000  -0.01793  -0.01783   0.00434
   D17       -3.13633   0.00124   0.00000   0.04082   0.04085  -3.09548
   D18       -0.00051   0.00008   0.00000   0.00368   0.00372   0.00321
   D19        0.02171   0.00070   0.00000   0.02584   0.02590   0.04761
   D20       -3.12565  -0.00046   0.00000  -0.01130  -0.01123  -3.13688
   D21       -2.20048  -0.00022   0.00000   0.01557   0.01548  -2.18501
   D22        0.94704   0.00098   0.00000   0.05375   0.05384   1.00087
   D23        0.00174   0.00040   0.00000   0.01112   0.01120   0.01294
   D24        3.12670   0.00064   0.00000   0.01875   0.01875  -3.13774
   D25        3.13742  -0.00079   0.00000  -0.02692  -0.02680   3.11063
   D26       -0.02081  -0.00055   0.00000  -0.01929  -0.01924  -0.04005
   D27       -2.20049  -0.00022   0.00000   0.01557   0.01548  -2.18501
   D28        0.94703   0.00098   0.00000   0.05374   0.05383   1.00087
   D29       -3.13633   0.00124   0.00000   0.04082   0.04084  -3.09548
   D30        0.02172   0.00070   0.00000   0.02584   0.02590   0.04761
   D31       -0.00051   0.00008   0.00000   0.00368   0.00372   0.00321
   D32       -3.12565  -0.00046   0.00000  -0.01130  -0.01123  -3.13688
   D33        3.13742  -0.00079   0.00000  -0.02692  -0.02679   3.11062
   D34       -0.02081  -0.00055   0.00000  -0.01929  -0.01924  -0.04005
   D35        0.00174   0.00040   0.00000   0.01112   0.01120   0.01294
   D36        3.12670   0.00064   0.00000   0.01875   0.01875  -3.13774
   D37        0.04101  -0.00137   0.00000  -0.04669  -0.04679  -0.00578
   D38       -3.10319  -0.00098   0.00000  -0.03254  -0.03256  -3.13575
   D39       -3.11681  -0.00086   0.00000  -0.03208  -0.03206   3.13432
   D40        0.02217  -0.00047   0.00000  -0.01793  -0.01783   0.00434
   D41       -3.04048  -0.00127   0.00000  -0.03079  -0.03078  -3.07125
   D42       -0.08109   0.00233   0.00000   0.07380   0.07361  -0.00748
   D43        0.10376  -0.00167   0.00000  -0.04516  -0.04502   0.05874
   D44        3.06315   0.00193   0.00000   0.05943   0.05936   3.12251
   D45       -2.80504   0.00186   0.00000   0.04332   0.04353  -2.76151
   D46       -0.52825   0.00135   0.00000   0.06095   0.06137  -0.46687
   D47        0.52189  -0.00142   0.00000  -0.06161  -0.06203   0.45986
   D48        2.79869  -0.00193   0.00000  -0.04398  -0.04419   2.75450
   D49        0.08235  -0.00183   0.00000  -0.05887  -0.05874   0.02361
   D50       -3.06198  -0.00218   0.00000  -0.06732  -0.06709  -3.12907
   D51        3.04170   0.00180   0.00000   0.04602   0.04578   3.08748
   D52       -0.10262   0.00145   0.00000   0.03757   0.03743  -0.06519
   D53       -0.04352   0.00043   0.00000   0.01678   0.01682  -0.02670
   D54        3.11444   0.00021   0.00000   0.00947   0.00949   3.12394
   D55        3.10077   0.00078   0.00000   0.02517   0.02522   3.12599
   D56       -0.02445   0.00056   0.00000   0.01786   0.01790  -0.00655
   D57       -0.04352   0.00043   0.00000   0.01678   0.01682  -0.02670
   D58        3.10077   0.00078   0.00000   0.02517   0.02522   3.12599
   D59        3.11444   0.00021   0.00000   0.00947   0.00949   3.12394
   D60       -0.02445   0.00056   0.00000   0.01786   0.01790  -0.00655
         Item               Value     Threshold  Converged?
 Maximum Force            0.010060     0.000450     NO 
 RMS     Force            0.002623     0.000300     NO 
 Maximum Displacement     0.291750     0.001800     NO 
 RMS     Displacement     0.088897     0.001200     NO 
 Predicted change in Energy=-2.987636D-03
 GradGradGradGradGradGradGradGradGradGradGradGradGradGradGradGradGradGrad

                          Input orientation:                          
 ---------------------------------------------------------------------
 Center     Atomic      Atomic             Coordinates (Angstroms)
 Number     Number       Type             X           Y           Z
 ---------------------------------------------------------------------
      1          7           0        4.723876   -1.555749    0.441220
      2          6           0        3.659039   -0.661540    0.504120
      3          6           0        3.335478   -0.008184    1.706584
      4          6           0        2.219563    0.821664    1.787854
      5          6           0        1.398034    1.030287    0.673190
      6         16           0        0.008843    2.162984    0.796339
      7          6           0       -1.389085    1.158499    0.281724
      8          6           0       -2.209663    1.601028   -0.763135
      9          6           0       -3.331957    0.870756   -1.147426
     10          6           0       -3.663103   -0.332280   -0.498939
     11          7           0       -4.734761   -1.106701   -0.933981
     12          6           0       -2.825305   -0.781426    0.540899
     13          6           0       -1.717350   -0.039271    0.933181
     14          6           0        1.718761    0.382984   -0.528868
     15          6           0        2.820231   -0.461075   -0.609933
     16          1           0        5.100118   -1.710006   -0.485417
     17          1           0        5.460364   -1.392425    1.115671
     18          1           0        3.957475   -0.161569    2.584419
     19          1           0        1.985764    1.310251    2.728973
     20          1           0       -1.970099    2.523695   -1.283112
     21          1           0       -3.953124    1.228201   -1.964363
     22          1           0       -5.114222   -1.740719   -0.242576
     23          1           0       -5.468492   -0.594950   -1.406975
     24          1           0       -3.055312   -1.714637    1.048354
     25          1           0       -1.096428   -0.398456    1.748289
     26          1           0        1.096991    0.533910   -1.406126
     27          1           0        3.044366   -0.965271   -1.546334
 ---------------------------------------------------------------------
                    Distance matrix (angstroms):
                    1          2          3          4          5
     1  N    0.000000
     2  C    1.391920   0.000000
     3  C    2.433876   1.406232   0.000000
     4  C    3.706360   2.433097   1.393025   0.000000
     5  C    4.219315   2.828959   2.428995   1.400325   0.000000
     6  S    6.015532   4.624637   4.075417   2.769391   1.796670
     7  C    6.690357   5.370807   5.070787   3.924822   2.817396
     8  C    7.712955   6.416138   6.279942   5.170396   3.924825
     9  C    8.562019   7.345037   7.305655   6.279940   5.070789
    10  C    8.527730   7.397858   7.345032   6.416133   5.370808
    11  N    9.568628   8.527731   8.562014   7.712950   6.690358
    12  C    7.589443   6.485557   6.317593   5.438335   4.597434
    13  C    6.635595   5.429261   5.111770   4.119582   3.304114
    14  C    3.705465   2.433675   2.786401   2.410486   1.402430
    15  C    2.434563   1.408865   2.415956   2.784889   2.427593
    16  H    1.011934   2.038424   3.288621   4.458107   4.749421
    17  H    1.011916   2.037880   2.603928   3.982061   4.750563
    18  H    2.669159   2.160249   1.086738   2.149791   3.409407
    19  H    4.576574   3.411419   2.145991   1.085856   2.156397
    20  H    8.026487   6.710226   6.595290   5.466353   4.171535
    21  H    9.424835   8.222503   8.253982   7.235085   5.969149
    22  H    9.863568   8.870868   8.842983   8.029499   7.136286
    23  H   10.403044   9.325693   9.356732   8.445112   7.356471
    24  H    7.804462   6.818190   6.647364   5.899490   5.244773
    25  H    6.076487   4.922564   4.449252   3.533561   3.069118
    26  H    4.575331   3.412072   3.872164   3.397717   2.158835
    27  H    2.668293   2.162045   3.403269   3.871724   3.408657
                    6          7          8          9         10
     6  S    0.000000
     7  C    1.796670   0.000000
     8  C    2.769391   1.400325   0.000000
     9  C    4.075417   2.428995   1.393025   0.000000
    10  C    4.624637   2.828959   2.433097   1.406232   0.000000
    11  N    6.015532   4.219315   3.706360   2.433877   1.391920
    12  C    4.094777   2.427593   2.784889   2.415956   1.408865
    13  C    2.801499   1.402430   2.410486   2.786401   2.433675
    14  C    2.801499   3.304117   4.119591   5.111779   5.429268
    15  C    4.094777   4.597436   5.438343   6.317602   6.485563
    16  H    6.524112   7.136287   8.029507   8.842991   8.870871
    17  H    6.516287   7.356469   8.445116   9.356736   9.325691
    18  H    4.918584   5.969145   7.235085   8.253979   8.222496
    19  H    2.893172   4.171530   5.466349   6.595284   6.710217
    20  H    2.893172   2.156397   1.085856   2.145991   3.411419
    21  H    4.918584   3.409407   2.149791   1.086738   2.160249
    22  H    6.524112   4.749421   4.458107   3.288620   2.038424
    23  H    6.516287   4.750563   3.982062   2.603928   2.037880
    24  H    4.948586   3.408657   3.871724   3.403269   2.162045
    25  H    2.947678   2.158835   3.397717   3.872164   3.412072
    26  H    2.947678   3.069125   3.533574   4.449267   4.922577
    27  H    4.948586   5.244777   5.899501   6.647376   6.818200
                   11         12         13         14         15
    11  N    0.000000
    12  C    2.434563   0.000000
    13  C    3.705465   1.390052   0.000000
    14  C    6.635603   4.811319   3.758024   0.000000
    15  C    7.589450   5.770539   4.811316   1.390052   0.000000
    16  H    9.863572   8.045367   7.161121   3.976942   2.602541
    17  H   10.403042   8.328025   7.306429   4.456027   3.288681
    18  H    9.424828   7.110998   5.911445   3.873103   3.403955
    19  H    8.026477   5.684115   4.331181   3.397740   3.870688
    20  H    4.576574   3.870687   3.397740   4.331191   5.684126
    21  H    2.669159   3.403955   3.873103   5.911456   7.111010
    22  H    1.011934   2.602541   3.976942   7.161127   8.045371
    23  H    1.011916   3.288681   4.456027   7.306438   8.328033
    24  H    2.668293   1.086875   2.147151   5.447881   6.232443
    25  H    4.575331   2.143239   1.085798   3.704238   4.572237
    26  H    6.076501   4.572245   3.704243   1.085798   2.143239
    27  H    7.804473   6.232445   5.447881   2.147151   1.086875
                   16         17         18         19         20
    16  H    0.000000
    17  H    1.671561   0.000000
    18  H    3.623146   2.435344   0.000000
    19  H    5.399394   4.688288   2.464710   0.000000
    20  H    8.279403   8.735098   7.569978   5.763517   0.000000
    21  H    9.632317  10.245391   9.230408   7.569974   2.464710
    22  H   10.217273  10.667147   9.632305   8.279392   5.399394
    23  H   10.667153  11.244536  10.245384   8.735089   4.688288
    24  H    8.298405   8.522035   7.345114   6.114481   4.957508
    25  H    6.716159   6.661809   5.128076   3.658049   4.300193
    26  H    4.680586   5.395298   4.958881   4.300193   3.658063
    27  H    2.430287   3.620190   4.306138   4.957508   6.114493
                   21         22         23         24         25
    21  H    0.000000
    22  H    3.623146   0.000000
    23  H    2.435344   1.671561   0.000000
    24  H    4.306138   2.430286   3.620190   0.000000
    25  H    4.958881   4.680586   5.395298   2.461599   0.000000
    26  H    5.128092   6.716172   6.661824   5.321847   3.953571
    27  H    7.345129   8.298413   8.522048   6.670834   5.321841
                   26         27
    26  H    0.000000
    27  H    2.461599   0.000000
 Stoichiometry    C12H12N2S
 Framework group  C1[X(C12H12N2S)]
 Deg. of freedom    75
 Full point group                 C1      NOp   1
 Largest Abelian subgroup         C1      NOp   1
 Largest concise Abelian subgroup C1      NOp   1
                         Standard orientation:                         
 ---------------------------------------------------------------------
 Center     Atomic      Atomic             Coordinates (Angstroms)
 Number     Number       Type             X           Y           Z
 ---------------------------------------------------------------------
      1          7           0       -4.783027   -1.703942    0.110976
      2          6           0       -3.697062   -0.833264    0.117516
      3          6           0       -3.542707    0.135382   -0.890148
      4          6           0       -2.412927    0.949440   -0.927915
      5          6           0       -1.408136    0.827394    0.039767
      6         16           0        0.000000    1.942558   -0.000003
      7          6           0        1.408136    0.827392   -0.039769
      8          6           0        2.412932    0.949448    0.927907
      9          6           0        3.542712    0.135390    0.890142
     10          6           0        3.697062   -0.833266   -0.117513
     11          7           0        4.783027   -1.703944   -0.110971
     12          6           0        2.675788   -0.963031   -1.079314
     13          6           0        1.559439   -0.135358   -1.048248
     14          6           0       -1.559443   -0.135347    1.048254
     15          6           0       -2.675792   -0.963020    1.079322
     16          1           0       -5.008269   -2.115254    1.007691
     17          1           0       -5.611267   -1.351695   -0.351532
     18          1           0       -4.308827    0.241856   -1.653511
     19          1           0       -2.312480    1.685818   -1.719585
     20          1           0        2.312488    1.685833    1.719570
     21          1           0        4.308835    0.241870    1.653501
     22          1           0        5.008265   -2.115263   -1.007684
     23          1           0        5.611269   -1.351692    0.351530
     24          1           0        2.768330   -1.713063   -1.860457
     25          1           0        0.793766   -0.244029   -1.810412
     26          1           0       -0.793774   -0.244011    1.810423
     27          1           0       -2.768339   -1.713044    1.860472
 ---------------------------------------------------------------------
 Rotational constants (GHZ):           1.1856044           0.2541503           0.2328265
 Standard basis: 6-31G(d,p) (6D, 7F)
 There are   289 symmetry adapted cartesian basis functions of A   symmetry.
 There are   289 symmetry adapted basis functions of A   symmetry.
   289 basis functions,   528 primitive gaussians,   289 cartesian basis functions
    57 alpha electrons       57 beta electrons
       nuclear repulsion energy       986.3199927169 Hartrees.
 NAtoms=   27 NActive=   27 NUniq=   27 SFac= 1.00D+00 NAtFMM=   60 NAOKFM=F Big=F
 Integral buffers will be    131072 words long.
 Raffenetti 2 integral format.
 Two-electron integral symmetry is turned on.
 ------------------------------------------------------------------------------
 Polarizable Continuum Model (PCM)
 =================================
 Model                : PCM.
 Atomic radii         : UFF (Universal Force Field).
 Polarization charges : Total charges.
[...]
     7    N    1  py     Val( 2p)     1.57245
     8    N    1  py     Ryd( 3p)     0.00325
     9    N    1  pz     Val( 2p)     1.47964
    10    N    1  pz     Ryd( 3p)     0.00238
    11    N    1  dxy    Ryd( 3d)     0.00077
    12    N    1  dxz    Ryd( 3d)     0.00047
    13    N    1  dyz    Ryd( 3d)     0.00058
    14    N    1  dx2y2  Ryd( 3d)     0.00072
    15    N    1  dz2    Ryd( 3d)     0.00063

    16    C    2  S      Cor( 1S)     1.99899
    17    C    2  S      Val( 2S)     0.84924
    18    C    2  S      Ryd( 3S)     0.00122
    19    C    2  S      Ryd( 4S)     0.00009
    20    C    2  px     Val( 2p)     0.93909
    21    C    2  px     Ryd( 3p)     0.00410
    22    C    2  py     Val( 2p)     0.94411
    23    C    2  py     Ryd( 3p)     0.00377
    24    C    2  pz     Val( 2p)     1.06382
    25    C    2  pz     Ryd( 3p)     0.00385
    26    C    2  dxy    Ryd( 3d)     0.00104
    27    C    2  dxz    Ryd( 3d)     0.00086
    28    C    2  dyz    Ryd( 3d)     0.00074
    29    C    2  dx2y2  Ryd( 3d)     0.00134
    30    C    2  dz2    Ryd( 3d)     0.00096

    31    C    3  S      Cor( 1S)     1.99904
    32    C    3  S      Val( 2S)     0.95104
    33    C    3  S      Ryd( 3S)     0.00064
    34    C    3  S      Ryd( 4S)     0.00003
    35    C    3  px     Val( 2p)     1.13460
    36    C    3  px     Ryd( 3p)     0.00430
    37    C    3  py     Val( 2p)     1.09105
    38    C    3  py     Ryd( 3p)     0.00437
    39    C    3  pz     Val( 2p)     1.14377
    40    C    3  pz     Ryd( 3p)     0.00437
    41    C    3  dxy    Ryd( 3d)     0.00038
    42    C    3  dxz    Ryd( 3d)     0.00060
    43    C    3  dyz    Ryd( 3d)     0.00048
    44    C    3  dx2y2  Ryd( 3d)     0.00049
    45    C    3  dz2    Ryd( 3d)     0.00044

    46    C    4  S      Cor( 1S)     1.99899
    47    C    4  S      Val( 2S)     0.95670
    48    C    4  S      Ryd( 3S)     0.00096
    49    C    4  S      Ryd( 4S)     0.00005
    50    C    4  px     Val( 2p)     1.04777
    51    C    4  px     Ryd( 3p)     0.00442
    52    C    4  py     Val( 2p)     1.08007
    53    C    4  py     Ryd( 3p)     0.00478
    54    C    4  pz     Val( 2p)     1.13653
    55    C    4  pz     Ryd( 3p)     0.00451
    56    C    4  dxy    Ryd( 3d)     0.00049
    57    C    4  dxz    Ryd( 3d)     0.00053
    58    C    4  dyz    Ryd( 3d)     0.00060
    59    C    4  dx2y2  Ryd( 3d)     0.00067
    60    C    4  dz2    Ryd( 3d)     0.00047

    61    C    5  S      Cor( 1S)     1.99873
    62    C    5  S      Val( 2S)     0.95830
    63    C    5  S      Ryd( 3S)     0.00193
    64    C    5  S      Ryd( 4S)     0.00007
    65    C    5  px     Val( 2p)     1.07374
    66    C    5  px     Ryd( 3p)     0.00792
    67    C    5  py     Val( 2p)     1.08124
    68    C    5  py     Ryd( 3p)     0.00347
    69    C    5  pz     Val( 2p)     1.09547
    70    C    5  pz     Ryd( 3p)     0.00581
    71    C    5  dxy    Ryd( 3d)     0.00122
    72    C    5  dxz    Ryd( 3d)     0.00081
    73    C    5  dyz    Ryd( 3d)     0.00067
    74    C    5  dx2y2  Ryd( 3d)     0.00058
    75    C    5  dz2    Ryd( 3d)     0.00096

    76    S    6  S      Cor( 1S)     2.00000
    77    S    6  S      Cor( 2S)     1.99941
    78    S    6  S      Val( 3S)     1.64561
    79    S    6  S      Ryd( 4S)     0.00654
    80    S    6  S      Ryd( 5S)     0.00001
    81    S    6  px     Cor( 2p)     1.99987
    82    S    6  px     Val( 3p)     0.92202
    83    S    6  px     Ryd( 4p)     0.01728
    84    S    6  py     Cor( 2p)     1.99989
    85    S    6  py     Val( 3p)     1.31649
    86    S    6  py     Ryd( 4p)     0.00085
    87    S    6  pz     Cor( 2p)     1.99985
    88    S    6  pz     Val( 3p)     1.67141
    89    S    6  pz     Ryd( 4p)     0.00512
    90    S    6  dxy    Ryd( 3d)     0.01112
    91    S    6  dxz    Ryd( 3d)     0.00175
    92    S    6  dyz    Ryd( 3d)     0.00150
    93    S    6  dx2y2  Ryd( 3d)     0.00488
    94    S    6  dz2    Ryd( 3d)     0.00298

    95    C    7  S      Cor( 1S)     1.99873
    96    C    7  S      Val( 2S)     0.95832
    97    C    7  S      Ryd( 3S)     0.00193
    98    C    7  S      Ryd( 4S)     0.00007
    99    C    7  px     Val( 2p)     1.07367
   100    C    7  px     Ryd( 3p)     0.00791
   101    C    7  py     Val( 2p)     1.08118
   102    C    7  py     Ryd( 3p)     0.00347
   103    C    7  pz     Val( 2p)     1.09543
   104    C    7  pz     Ryd( 3p)     0.00581
   105    C    7  dxy    Ryd( 3d)     0.00122
   106    C    7  dxz    Ryd( 3d)     0.00081
   107    C    7  dyz    Ryd( 3d)     0.00067
   108    C    7  dx2y2  Ryd( 3d)     0.00058
   109    C    7  dz2    Ryd( 3d)     0.00096

   110    C    8  S      Cor( 1S)     1.99899
   111    C    8  S      Val( 2S)     0.95668
   112    C    8  S      Ryd( 3S)     0.00096
   113    C    8  S      Ryd( 4S)     0.00005
   114    C    8  px     Val( 2p)     1.04780
   115    C    8  px     Ryd( 3p)     0.00442
   116    C    8  py     Val( 2p)     1.08021
   117    C    8  py     Ryd( 3p)     0.00479
   118    C    8  pz     Val( 2p)     1.13650
   119    C    8  pz     Ryd( 3p)     0.00451
   120    C    8  dxy    Ryd( 3d)     0.00049
   121    C    8  dxz    Ryd( 3d)     0.00053
   122    C    8  dyz    Ryd( 3d)     0.00060
   123    C    8  dx2y2  Ryd( 3d)     0.00067
   124    C    8  dz2    Ryd( 3d)     0.00047

   125    C    9  S      Cor( 1S)     1.99904
   126    C    9  S      Val( 2S)     0.95103
   127    C    9  S      Ryd( 3S)     0.00064
   128    C    9  S      Ryd( 4S)     0.00003
   129    C    9  px     Val( 2p)     1.13464
   130    C    9  px     Ryd( 3p)     0.00431
   131    C    9  py     Val( 2p)     1.09109
   132    C    9  py     Ryd( 3p)     0.00437
   133    C    9  pz     Val( 2p)     1.14378
   134    C    9  pz     Ryd( 3p)     0.00438
   135    C    9  dxy    Ryd( 3d)     0.00038
   136    C    9  dxz    Ryd( 3d)     0.00060
   137    C    9  dyz    Ryd( 3d)     0.00048
   138    C    9  dx2y2  Ryd( 3d)     0.00049
   139    C    9  dz2    Ryd( 3d)     0.00044

   140    C   10  S      Cor( 1S)     1.99899
   141    C   10  S      Val( 2S)     0.84925
   142    C   10  S      Ryd( 3S)     0.00122
   143    C   10  S      Ryd( 4S)     0.00009
   144    C   10  px     Val( 2p)     0.93907
   145    C   10  px     Ryd( 3p)     0.00410
   146    C   10  py     Val( 2p)     0.94410
   147    C   10  py     Ryd( 3p)     0.00377
   148    C   10  pz     Val( 2p)     1.06377
   149    C   10  pz     Ryd( 3p)     0.00385
   150    C   10  dxy    Ryd( 3d)     0.00105
   151    C   10  dxz    Ryd( 3d)     0.00086
   152    C   10  dyz    Ryd( 3d)     0.00074
   153    C   10  dx2y2  Ryd( 3d)     0.00134
   154    C   10  dz2    Ryd( 3d)     0.00096

   155    N   11  S      Cor( 1S)     1.99949
   156    N   11  S      Val( 2S)     1.36000
   157    N   11  S      Ryd( 3S)     0.00012
   158    N   11  S      Ryd( 4S)     0.00001
   159    N   11  px     Val( 2p)     1.36959
   160    N   11  px     Ryd( 3p)     0.00220
   161    N   11  py     Val( 2p)     1.57229
   162    N   11  py     Ryd( 3p)     0.00325
   163    N   11  pz     Val( 2p)     1.47968
   164    N   11  pz     Ryd( 3p)     0.00238
   165    N   11  dxy    Ryd( 3d)     0.00077
   166    N   11  dxz    Ryd( 3d)     0.00047
   167    N   11  dyz    Ryd( 3d)     0.00058
   168    N   11  dx2y2  Ryd( 3d)     0.00072
   169    N   11  dz2    Ryd( 3d)     0.00063

   170    C   12  S      Cor( 1S)     1.99904
   171    C   12  S      Val( 2S)     0.95301
   172    C   12  S      Ryd( 3S)     0.00063
   173    C   12  S      Ryd( 4S)     0.00003
   174    C   12  px     Val( 2p)     1.07765
   175    C   12  px     Ryd( 3p)     0.00392
   176    C   12  py     Val( 2p)     1.11889
   177    C   12  py     Ryd( 3p)     0.00332
   178    C   12  pz     Val( 2p)     1.13937
   179    C   12  pz     Ryd( 3p)     0.00417
   180    C   12  dxy    Ryd( 3d)     0.00045
   181    C   12  dxz    Ryd( 3d)     0.00056
   182    C   12  dyz    Ryd( 3d)     0.00059
   183    C   12  dx2y2  Ryd( 3d)     0.00057
   184    C   12  dz2    Ryd( 3d)     0.00044

   185    C   13  S      Cor( 1S)     1.99899
   186    C   13  S      Val( 2S)     0.94713
   187    C   13  S      Ryd( 3S)     0.00105
   188    C   13  S      Ryd( 4S)     0.00005
   189    C   13  px     Val( 2p)     1.12585
   190    C   13  px     Ryd( 3p)     0.00642
   191    C   13  py     Val( 2p)     1.06079
   192    C   13  py     Ryd( 3p)     0.00508
   193    C   13  pz     Val( 2p)     1.15754
   194    C   13  pz     Ryd( 3p)     0.00469
   195    C   13  dxy    Ryd( 3d)     0.00042
   196    C   13  dxz    Ryd( 3d)     0.00060
   197    C   13  dyz    Ryd( 3d)     0.00044
   198    C   13  dx2y2  Ryd( 3d)     0.00058
   199    C   13  dz2    Ryd( 3d)     0.00047

   200    C   14  S      Cor( 1S)     1.99899
   201    C   14  S      Val( 2S)     0.94714
   202    C   14  S      Ryd( 3S)     0.00105
   203    C   14  S      Ryd( 4S)     0.00005
   204    C   14  px     Val( 2p)     1.12580
   205    C   14  px     Ryd( 3p)     0.00642
   206    C   14  py     Val( 2p)     1.06075
   207    C   14  py     Ryd( 3p)     0.00508
   208    C   14  pz     Val( 2p)     1.15753
   209    C   14  pz     Ryd( 3p)     0.00469
   210    C   14  dxy    Ryd( 3d)     0.00042
   211    C   14  dxz    Ryd( 3d)     0.00060
   212    C   14  dyz    Ryd( 3d)     0.00044
   213    C   14  dx2y2  Ryd( 3d)     0.00058
   214    C   14  dz2    Ryd( 3d)     0.00047

   215    C   15  S      Cor( 1S)     1.99904
   216    C   15  S      Val( 2S)     0.95303
   217    C   15  S      Ryd( 3S)     0.00063
   218    C   15  S      Ryd( 4S)     0.00003
   219    C   15  px     Val( 2p)     1.07761
   220    C   15  px     Ryd( 3p)     0.00391
   221    C   15  py     Val( 2p)     1.11878
   222    C   15  py     Ryd( 3p)     0.00331
   223    C   15  pz     Val( 2p)     1.13938
   224    C   15  pz     Ryd( 3p)     0.00417
   225    C   15  dxy    Ryd( 3d)     0.00045
   226    C   15  dxz    Ryd( 3d)     0.00056
   227    C   15  dyz    Ryd( 3d)     0.00059
   228    C   15  dx2y2  Ryd( 3d)     0.00057
   229    C   15  dz2    Ryd( 3d)     0.00044

   230    H   16  S      Val( 1S)     0.57342
   231    H   16  S      Ryd( 2S)     0.00122
   232    H   16  px     Ryd( 2p)     0.00026
   233    H   16  py     Ryd( 2p)     0.00040
   234    H   16  pz     Ryd( 2p)     0.00056

   235    H   17  S      Val( 1S)     0.57472
   236    H   17  S      Ryd( 2S)     0.00142
   237    H   17  px     Ryd( 2p)     0.00047
   238    H   17  py     Ryd( 2p)     0.00039
   239    H   17  pz     Ryd( 2p)     0.00037

   240    H   18  S      Val( 1S)     0.75504
   241    H   18  S      Ryd( 2S)     0.00099
   242    H   18  px     Ryd( 2p)     0.00022
   243    H   18  py     Ryd( 2p)     0.00011
   244    H   18  pz     Ryd( 2p)     0.00028

   245    H   19  S      Val( 1S)     0.74780
   246    H   19  S      Ryd( 2S)     0.00127
   247    H   19  px     Ryd( 2p)     0.00010
   248    H   19  py     Ryd( 2p)     0.00023
   249    H   19  pz     Ryd( 2p)     0.00029

   250    H   20  S      Val( 1S)     0.74781
   251    H   20  S      Ryd( 2S)     0.00127
   252    H   20  px     Ryd( 2p)     0.00010
   253    H   20  py     Ryd( 2p)     0.00023
   254    H   20  pz     Ryd( 2p)     0.00029

   255    H   21  S      Val( 1S)     0.75506
   256    H   21  S      Ryd( 2S)     0.00099
   257    H   21  px     Ryd( 2p)     0.00022
   258    H   21  py     Ryd( 2p)     0.00011
   259    H   21  pz     Ryd( 2p)     0.00028

   260    H   22  S      Val( 1S)     0.57341
   261    H   22  S      Ryd( 2S)     0.00122
   262    H   22  px     Ryd( 2p)     0.00026
   263    H   22  py     Ryd( 2p)     0.00040
   264    H   22  pz     Ryd( 2p)     0.00056

   265    H   23  S      Val( 1S)     0.57470
   266    H   23  S      Ryd( 2S)     0.00142
   267    H   23  px     Ryd( 2p)     0.00047
   268    H   23  py     Ryd( 2p)     0.00039
   269    H   23  pz     Ryd( 2p)     0.00037

   270    H   24  S      Val( 1S)     0.75584
   271    H   24  S      Ryd( 2S)     0.00107
   272    H   24  px     Ryd( 2p)     0.00009
   273    H   24  py     Ryd( 2p)     0.00024
   274    H   24  pz     Ryd( 2p)     0.00029

   275    H   25  S      Val( 1S)     0.75511
   276    H   25  S      Ryd( 2S)     0.00168
   277    H   25  px     Ryd( 2p)     0.00024
   278    H   25  py     Ryd( 2p)     0.00013
   279    H   25  pz     Ryd( 2p)     0.00029

   280    H   26  S      Val( 1S)     0.75510
   281    H   26  S      Ryd( 2S)     0.00168
   282    H   26  px     Ryd( 2p)     0.00024
   283    H   26  py     Ryd( 2p)     0.00013
   284    H   26  pz     Ryd( 2p)     0.00029

   285    H   27  S      Val( 1S)     0.75583
   286    H   27  S      Ryd( 2S)     0.00107
   287    H   27  px     Ryd( 2p)     0.00009
   288    H   27  py     Ryd( 2p)     0.00024
   289    H   27  pz     Ryd( 2p)     0.00029

 WARNING:  1 low occupancy (<1.9990e) core orbital  found on  C    2
           1 low occupancy (<1.9990e) core orbital  found on  C    4
           1 low occupancy (<1.9990e) core orbital  found on  C    5
           1 low occupancy (<1.9990e) core orbital  found on  C    7
           1 low occupancy (<1.9990e) core orbital  found on  C    8
           1 low occupancy (<1.9990e) core orbital  found on  C   10
           1 low occupancy (<1.9990e) core orbital  found on  C   13
           1 low occupancy (<1.9990e) core orbital  found on  C   14


 Summary of Natural Population Analysis:                  
                                                          
                                       Natural Population 
                Natural  -----------------------------------------------
    Atom  No    Charge         Core      Valence    Rydberg      Total
 -----------------------------------------------------------------------
      N    1   -0.79230      1.99949     5.78168    0.01113     7.79230
      C    2    0.18676      1.99899     3.79626    0.01799     5.81324
      C    3   -0.33561      1.99904     4.32045    0.01612     6.33561
      C    4   -0.23755      1.99899     4.22106    0.01749     6.23755
      C    5   -0.23090      1.99873     4.20875    0.02343     6.23090
      S    6    0.39342      9.99901     5.55552    0.05204    15.60658
      C    7   -0.23075      1.99873     4.20860    0.02342     6.23075
      C    8   -0.23769      1.99899     4.22119    0.01750     6.23769
      C    9   -0.33569      1.99904     4.32053    0.01612     6.33569
      C   10    0.18683      1.99899     3.79619    0.01799     5.81317
      N   11   -0.79218      1.99949     5.78156    0.01113     7.79218
      C   12   -0.30263      1.99904     4.28892    0.01467     6.30263
      C   13   -0.31010      1.99899     4.29130    0.01981     6.31010
      C   14   -0.31001      1.99899     4.29121    0.01981     6.31001
      C   15   -0.30251      1.99904     4.28881    0.01466     6.30251
      H   16    0.42413      0.00000     0.57342    0.00245     0.57587
      H   17    0.42263      0.00000     0.57472    0.00265     0.57737
      H   18    0.24335      0.00000     0.75504    0.00161     0.75665
      H   19    0.25031      0.00000     0.74780    0.00189     0.74969
      H   20    0.25030      0.00000     0.74781    0.00189     0.74970
      H   21    0.24333      0.00000     0.75506    0.00161     0.75667
      H   22    0.42414      0.00000     0.57341    0.00245     0.57586
      H   23    0.42264      0.00000     0.57470    0.00265     0.57736
      H   24    0.24247      0.00000     0.75584    0.00168     0.75753
      H   25    0.24255      0.00000     0.75511    0.00234     0.75745
      H   26    0.24256      0.00000     0.75510    0.00234     0.75744
      H   27    0.24249      0.00000     0.75583    0.00168     0.75751
 =======================================================================
   * Total *   -0.00000     37.98555    75.69589    0.31856   114.00000

                                 Natural Population      
 --------------------------------------------------------
   Core                      37.98555 ( 99.9620% of  38)
   Valence                   75.69589 ( 99.5999% of  76)
   Natural Minimal Basis    113.68144 ( 99.7206% of 114)
   Natural Rydberg Basis      0.31856 (  0.2794% of 114)
 --------------------------------------------------------

    Atom  No          Natural Electron Configuration
 ----------------------------------------------------------------------------
      N    1      [core]2S( 1.36)2p( 4.42)3p( 0.01)
      C    2      [core]2S( 0.85)2p( 2.95)3p( 0.01)
      C    3      [core]2S( 0.95)2p( 3.37)3p( 0.01)
      C    4      [core]2S( 0.96)2p( 3.26)3p( 0.01)
      C    5      [core]2S( 0.96)2p( 3.25)3p( 0.02)
      S    6      [core]3S( 1.65)3p( 3.91)4S( 0.01)3d( 0.02)4p( 0.02)
      C    7      [core]2S( 0.96)2p( 3.25)3p( 0.02)
      C    8      [core]2S( 0.96)2p( 3.26)3p( 0.01)
      C    9      [core]2S( 0.95)2p( 3.37)3p( 0.01)
      C   10      [core]2S( 0.85)2p( 2.95)3p( 0.01)
      N   11      [core]2S( 1.36)2p( 4.42)3p( 0.01)
      C   12      [core]2S( 0.95)2p( 3.34)3p( 0.01)
      C   13      [core]2S( 0.95)2p( 3.34)3p( 0.02)
      C   14      [core]2S( 0.95)2p( 3.34)3p( 0.02)
      C   15      [core]2S( 0.95)2p( 3.34)3p( 0.01)
      H   16            1S( 0.57)
      H   17            1S( 0.57)
      H   18            1S( 0.76)
      H   19            1S( 0.75)
      H   20            1S( 0.75)
      H   21            1S( 0.76)
      H   22            1S( 0.57)
      H   23            1S( 0.57)
      H   24            1S( 0.76)
      H   25            1S( 0.76)
      H   26            1S( 0.76)
      H   27            1S( 0.76)


 NBO analysis skipped by request.
 1\1\GINC-DRG2-W010\SP\RB3LYP TD-FC\6-31G(d,p)\C12H12N2S1\QDUEZ\18-Jul-
 2024\0\\# TD(NStates=10, Root=1) B3LYP/6-31G** SCRF=(Solvent=water) vo
 lume pop=NPA density=current Geom=AllCheck Guess=Read\\ICNFHJVPAJKPHW-
 UHFFFAOYSA-N_conf_0\\0,1\N,0,4.7430981134,-1.5363519279,0.3766765347\C
 ,0,3.6695132844,-0.6571965949,0.4619137552\C,0,3.2748405636,-0.1169457
 236,1.6997684758\C,0,2.1542043564,0.7049072066,1.792094352\C,0,1.40404
 72459,1.0273311177,0.6539900637\S,0,0.008816834,2.1536905299,0.7932071
 187\C,0,-1.3951727094,1.1456337058,0.2958495924\C,0,-2.1453294539,1.50
 51020089,-0.8311023696\C,0,-3.2723196321,0.7753920072,-1.2015204907\C,
 0,-3.6736337076,-0.3518474727,-0.4611169279\N,0,-4.753965279,-1.125981
 4985,-0.8689958218\C,0,-2.9139146162,-0.7122036068,0.6705829412\C,0,-1
 .8019463336,0.0324661317,1.0463239773\C,0,1.8042896871,0.5043024691,-0
 .5845872489\C,0,2.9097927724,-0.3328510623,-0.6806294588\H,0,5.1793519
 375,-1.6029171979,-0.5335829454\H,0,5.4294467727,-1.454970051,1.115351
 6799\H,0,3.845993499,-0.3539657064,2.593407148\H,0,1.8617184323,1.1021
 404153,2.7593445877\H,0,-1.8478233805,2.3651804964,-1.4232774277\H,0,-
 3.8433769167,1.0710284679,-2.0775790798\H,0,-5.1926721638,-1.677121212
 1,-0.1429773479\H,0,-5.4380787833,-0.648093262,-1.4407903608\H,0,-3.20
 93242525,-1.5761804513,1.2601504733\H,0,-1.2402507827,-0.2565208763,1.
 9295578111\H,0,1.2425443222,0.7507271395,-1.4805976163\H,0,3.200150190
 3,-0.7347550523,-1.6478311765\\Version=ES64L-G16RevA.03\State=1-A\HF=-
 972.2323035\RMSD=3.909e-09\Dipole=-0.0044224,-1.121861,-0.3344839\Quad
 rupole=27.2316787,-17.033785,-10.1978937,-1.388148,4.0525342,-2.256674
 9\PG=C01 [X(C12H12N2S1)]\\@


 TO BEHOLD HARMS OF OUR OWN HANDS DOING,
 WHERE NONE BESIDE US WROUGHT,
 CAUSES SHARP RUING...

                                         SOPHOCLES
 Job cpu time:       0 days  0 hours 46 minutes 49.6 seconds.
 Elapsed time:       0 days  0 hours 17 minutes 57.5 seconds.
 File lengths (MBytes):  RWF=    710 Int=      0 D2E=      0 Chk=     44 Scr=      1
 Normal termination of Gaussian 16 at Thu Jul 18 00:33:15 2024.
