 Entering Gaussian System, Link 0=g16
 Initial command:
 /opt/sw/arch/manual/gaussian/G16_A03/g16/l1.exe "/scratch/1381396/Gau-188802.inp" -scrdir="/scratch/1381396/"
 Entering Link 1 = /opt/sw/arch/manual/gaussian/G16_A03/g16/l1.exe PID=    188803.
  
 Copyright (c) 1988,1990,1992,1993,1995,1998,2003,2009,2016,
            Gaussian, Inc.  All Rights Reserved.
  
 This is part of the Gaussian(R) 16 program.  It is based on
 the Gaussian(R) 09 system (copyright 2009, Gaussian, Inc.),
 the Gaussian(R) 03 system (copyright 2003, Gaussian, Inc.),
 the Gaussian(R) 98 system (copyright 1998, Gaussian, Inc.),
 the Gaussian(R) 94 system (copyright 1995, Gaussian, Inc.),
 the Gaussian 92(TM) system (copyright 1992, Gaussian, Inc.),
 the Gaussian 90(TM) system (copyright 1990, Gaussian, Inc.),
 the Gaussian 88(TM) system (copyright 1988, Gaussian, Inc.),
 the Gaussian 86(TM) system (copyright 1986, Carnegie Mellon
 University), and the Gaussian 82(TM) system (copyright 1983,
 Carnegie Mellon University). Gaussian is a federally registered
 trademark of Gaussian, Inc.
  
 This software contains proprietary and confidential information,
 including trade secrets, belonging to Gaussian, Inc.
  
 This software is provided under written license and may be
 used, copied, transmitted, or stored only in accord with that
 written license.
  
 The following legend is applicable only to US Government
 contracts under FAR:
  
                    RESTRICTED RIGHTS LEGEND
  
 Use, reproduction and disclosure by the US Government is
 subject to restrictions as set forth in subparagraphs (a)
 and (c) of the Commercial Computer Software - Restricted
 Rights clause in FAR 52.227-19.
  
 Gaussian, Inc.
 340 Quinnipiac St., Bldg. 40, Wallingford CT 06492
  
  
 ---------------------------------------------------------------
 Warning -- This program may not be used in any manner that
 competes with the business of Gaussian, Inc. or will provide
 assistance to any competitor of Gaussian, Inc.  The licensee
 of this program is prohibited from giving any competitor of
 Gaussian, Inc. access to this program.  By using this program,
 the user acknowledges that Gaussian, Inc. is engaged in the
 business of creating and licensing software in the field of
 computational chemistry and represents and warrants to the
 licensee that it is not a competitor of Gaussian, Inc. and that
 it will not use this program in any manner prohibited above.
 ---------------------------------------------------------------
  

 Cite this work as:
 Gaussian 16, Revision A.03,
 M. J. Frisch, G. W. Trucks, H. B. Schlegel, G. E. Scuseria, 
 M. A. Robb, J. R. Cheeseman, G. Scalmani, V. Barone, 
 G. A. Petersson, H. Nakatsuji, X. Li, M. Caricato, A. V. Marenich, 
 J. Bloino, B. G. Janesko, R. Gomperts, B. Mennucci, H. P. Hratchian, 
 J. V. Ortiz, A. F. Izmaylov, J. L. Sonnenberg, D. Williams-Young, 
 F. Ding, F. Lipparini, F. Egidi, J. Goings, B. Peng, A. Petrone, 
 T. Henderson, D. Ranasinghe, V. G. Zakrzewski, J. Gao, N. Rega, 
 G. Zheng, W. Liang, M. Hada, M. Ehara, K. Toyota, R. Fukuda, 
 J. Hasegawa, M. Ishida, T. Nakajima, Y. Honda, O. Kitao, H. Nakai, 
 T. Vreven, K. Throssell, J. A. Montgomery, Jr., J. E. Peralta, 
 F. Ogliaro, M. J. Bearpark, J. J. Heyd, E. N. Brothers, K. N. Kudin, 
 V. N. Staroverov, T. A. Keith, R. Kobayashi, J. Normand, 
 K. Raghavachari, A. P. Rendell, J. C. Burant, S. S. Iyengar, 
 J. Tomasi, M. Cossi, J. M. Millam, M. Klene, C. Adamo, R. Cammi, 
 J. W. Ochterski, R. L. Martin, K. Morokuma, O. Farkas, 
 J. B. Foresman, and D. J. Fox, Gaussian, Inc., Wallingford CT, 2016.
 
 ******************************************
 Gaussian 16:  ES64L-G16RevA.03 25-Dec-2016
                19-Jul-2024 
 ******************************************
 %nprocshared=8
 Will use up to    8 processors via shared memory.
 %mem=16GB
 %Chk=RRZROWKVNHGBPP-UHFFFAOYSA-N_conf_4_0.chk
 -------------------------------------------------------
 # opt=CalcFc B3LYP/6-31G** SCRF=(Solvent=water) scf=xqc
 -------------------------------------------------------
 1/10=4,18=20,19=15,26=3,38=1/1,3;
 2/9=110,12=2,17=6,18=5,40=1/2;
 3/5=1,6=6,7=101,11=2,25=1,30=1,70=2201,71=2,72=1,74=-5,140=1/1,2,3;
 4//1;
 5/5=2,8=3,13=1,38=5,53=1/2,8;
 8/6=4,10=90,11=11/1;
 11/6=1,8=1,9=11,15=111,16=1/1,2,10;
 10/6=1,13=1/2;
 6/7=2,8=2,9=2,10=2,28=1/1;
 7/10=1,18=20,25=1/1,2,3,16;
 1/10=4,18=20,19=15,26=3/3(2);
 2/9=110/2;
 99//99;
 2/9=110/2;
 3/5=1,6=6,7=101,11=2,25=1,30=1,70=2205,71=1,72=1,74=-5/1,2,3;
 4/5=5,16=3,69=1/1;
 5/5=2,8=3,13=1,38=5,53=1/2,8;
 7//1,2,3,16;
 1/18=20,19=15,26=3/3(-5);
 2/9=110/2;
 6/7=2,8=2,9=2,10=2,19=2,28=1/1;
 99/9=1/99;
 ----------------------------------
 RRZROWKVNHGBPP-UHFFFAOYSA-N_conf_4
 ----------------------------------
 Symbolic Z-matrix:
 Charge =  0 Multiplicity = 1
 C                    -8.81133  -0.66392   0.05857 
 C                    -7.45916  -0.01933   0.12557 
 C                    -7.24967   1.09865   0.93338 
 C                    -5.98381   1.68927   1.01033 
 C                    -4.88522   1.16468   0.31577 
 N                    -3.66569   1.83814   0.38988 
 C                    -2.41144   1.19995  -0.00005 
 C                    -1.95752   0.13012   1.00219 
 O                    -0.68491  -0.41267   0.63481 
 C                    -0.80529  -1.53595  -0.24786 
 C                     0.58431  -2.00189  -0.68908 
 O                     1.09072  -1.26186  -1.8045 
 C                     1.43809   0.09925  -1.53999 
 C                     2.57826   0.28852  -0.52419 
 N                     3.73651  -0.52491  -0.89295 
 C                     5.00081  -0.23804  -0.38797 
 C                     5.21395   0.467     0.79999 
 C                     6.50564   0.67999   1.29722 
 C                     7.61825   0.16029   0.63188 
 C                     9.00231   0.4167    1.14661 
 C                     7.41628  -0.56699  -0.54279 
 C                     6.12237  -0.77639  -1.03064 
 C                    -5.11518   0.06135  -0.51086 
 C                    -6.37915  -0.53682  -0.59256 
 H                    -8.89914  -1.31439  -0.81708 
 H                    -9.59547   0.09494  -0.02072 
 H                    -8.98425  -1.26486   0.95544 
 H                    -8.07147   1.52801   1.5016 
 H                    -5.86387   2.5755    1.6281 
 H                    -3.58322   2.41284   1.2244 
 H                    -1.63812   1.97722  -0.04762 
 H                    -2.46234   0.80436  -1.02032 
 H                    -1.83398   0.59262   1.98769 
 H                    -2.69937  -0.66886   1.11681 
 H                    -1.2987   -2.34541   0.30144 
 H                    -1.40759  -1.26502  -1.12134 
 H                     0.50475  -3.03653  -1.03821 
 H                     1.30036  -1.99157   0.13868 
 H                     1.75888   0.5166   -2.50152 
 H                     0.55197   0.66797  -1.24322 
 H                     2.83961   1.35343  -0.50867 
 H                     2.24463   0.00657   0.48001 
 H                     3.73182  -0.82721  -1.86364 
 H                     4.37711   0.85839   1.37088 
 H                     6.63138   1.24738   2.21711 
 H                     9.36303   1.38384   0.78523 
 H                     9.69524  -0.36303   0.81455 
 H                     9.01455   0.41923   2.24126 
 H                     8.25994  -0.98451  -1.0865 
 H                     5.9981   -1.36992  -1.93384 
 H                    -4.32081  -0.36     -1.1168 
 H                    -6.51215  -1.4027   -1.23612 
 

 GradGradGradGradGradGradGradGradGradGradGradGradGradGradGradGradGradGrad
 Berny optimization.
 Initialization pass.
                           ----------------------------
                           !    Initial Parameters    !
                           ! (Angstroms and Degrees)  !
 --------------------------                            --------------------------
 ! Name  Definition              Value          Derivative Info.                !
 --------------------------------------------------------------------------------
 ! R1    R(1,2)                  1.4995         calculate D2E/DX2 analytically  !
 ! R2    R(1,25)                 1.0943         calculate D2E/DX2 analytically  !
 ! R3    R(1,26)                 1.0941         calculate D2E/DX2 analytically  !
 ! R4    R(1,27)                 1.0933         calculate D2E/DX2 analytically  !
 ! R5    R(2,3)                  1.3951         calculate D2E/DX2 analytically  !
 ! R6    R(2,24)                 1.3964         calculate D2E/DX2 analytically  !
 ! R7    R(3,4)                  1.399          calculate D2E/DX2 analytically  !
 ! R8    R(3,28)                 1.0875         calculate D2E/DX2 analytically  !
 ! R9    R(4,5)                  1.4016         calculate D2E/DX2 analytically  !
 ! R10   R(4,29)                 1.0869         calculate D2E/DX2 analytically  !
 ! R11   R(5,6)                  1.3951         calculate D2E/DX2 analytically  !
 ! R12   R(5,23)                 1.3977         calculate D2E/DX2 analytically  !
 ! R13   R(6,7)                  1.4603         calculate D2E/DX2 analytically  !
 ! R14   R(6,30)                 1.0166         calculate D2E/DX2 analytically  !
 ! R15   R(7,8)                  1.5346         calculate D2E/DX2 analytically  !
 ! R16   R(7,31)                 1.0975         calculate D2E/DX2 analytically  !
 ! R17   R(7,32)                 1.0955         calculate D2E/DX2 analytically  !
 ! R18   R(8,9)                  1.4315         calculate D2E/DX2 analytically  !
 ! R19   R(8,33)                 1.0956         calculate D2E/DX2 analytically  !
 ! R20   R(8,34)                 1.0963         calculate D2E/DX2 analytically  !
 ! R21   R(9,10)                 1.4337         calculate D2E/DX2 analytically  !
 ! R22   R(10,11)                1.5306         calculate D2E/DX2 analytically  !
 ! R23   R(10,35)                1.0956         calculate D2E/DX2 analytically  !
 ! R24   R(10,36)                1.0951         calculate D2E/DX2 analytically  !
 ! R25   R(11,12)                1.4312         calculate D2E/DX2 analytically  !
 ! R26   R(11,37)                1.0949         calculate D2E/DX2 analytically  !
 ! R27   R(11,38)                1.0945         calculate D2E/DX2 analytically  !
 ! R28   R(12,13)                1.4294         calculate D2E/DX2 analytically  !
 ! R29   R(13,14)                1.5387         calculate D2E/DX2 analytically  !
 ! R30   R(13,39)                1.0962         calculate D2E/DX2 analytically  !
 ! R31   R(13,40)                1.0939         calculate D2E/DX2 analytically  !
 ! R32   R(14,15)                1.4626         calculate D2E/DX2 analytically  !
 ! R33   R(14,41)                1.0966         calculate D2E/DX2 analytically  !
 ! R34   R(14,42)                1.0951         calculate D2E/DX2 analytically  !
 ! R35   R(15,16)                1.3913         calculate D2E/DX2 analytically  !
 ! R36   R(15,43)                1.0167         calculate D2E/DX2 analytically  !
 ! R37   R(16,17)                1.3978         calculate D2E/DX2 analytically  !
 ! R38   R(16,22)                1.4003         calculate D2E/DX2 analytically  !
 ! R39   R(17,18)                1.4004         calculate D2E/DX2 analytically  !
 ! R40   R(17,44)                1.086          calculate D2E/DX2 analytically  !
 ! R41   R(18,19)                1.3967         calculate D2E/DX2 analytically  !
 ! R42   R(18,45)                1.0881         calculate D2E/DX2 analytically  !
 ! R43   R(19,20)                1.4988         calculate D2E/DX2 analytically  !
 ! R44   R(19,21)                1.3963         calculate D2E/DX2 analytically  !
 ! R45   R(20,46)                1.0937         calculate D2E/DX2 analytically  !
 ! R46   R(20,47)                1.0947         calculate D2E/DX2 analytically  !
 ! R47   R(20,48)                1.0947         calculate D2E/DX2 analytically  !
 ! R48   R(21,22)                1.3986         calculate D2E/DX2 analytically  !
 ! R49   R(21,49)                1.0871         calculate D2E/DX2 analytically  !
 ! R50   R(22,50)                1.0879         calculate D2E/DX2 analytically  !
 ! R51   R(23,24)                1.4007         calculate D2E/DX2 analytically  !
 ! R52   R(23,51)                1.0843         calculate D2E/DX2 analytically  !
 ! R53   R(24,52)                1.087          calculate D2E/DX2 analytically  !
 ! A1    A(2,1,25)             111.3235         calculate D2E/DX2 analytically  !
 ! A2    A(2,1,26)             110.572          calculate D2E/DX2 analytically  !
 ! A3    A(2,1,27)             110.013          calculate D2E/DX2 analytically  !
 ! A4    A(25,1,26)            107.2645         calculate D2E/DX2 analytically  !
 ! A5    A(25,1,27)            108.4809         calculate D2E/DX2 analytically  !
 ! A6    A(26,1,27)            109.106          calculate D2E/DX2 analytically  !
 ! A7    A(1,2,3)              120.3827         calculate D2E/DX2 analytically  !
 ! A8    A(1,2,24)             121.0087         calculate D2E/DX2 analytically  !
 ! A9    A(3,2,24)             118.5952         calculate D2E/DX2 analytically  !
 ! A10   A(2,3,4)              120.4            calculate D2E/DX2 analytically  !
 ! A11   A(2,3,28)             120.3631         calculate D2E/DX2 analytically  !
 ! A12   A(4,3,28)             119.2332         calculate D2E/DX2 analytically  !
 ! A13   A(3,4,5)              121.5978         calculate D2E/DX2 analytically  !
 ! A14   A(3,4,29)             118.3805         calculate D2E/DX2 analytically  !
 ! A15   A(5,4,29)             120.0217         calculate D2E/DX2 analytically  !
 ! A16   A(4,5,6)              118.5662         calculate D2E/DX2 analytically  !
 ! A17   A(4,5,23)             117.3595         calculate D2E/DX2 analytically  !
 ! A18   A(6,5,23)             123.8006         calculate D2E/DX2 analytically  !
 ! A19   A(5,6,7)              121.7132         calculate D2E/DX2 analytically  !
 ! A20   A(5,6,30)             112.793          calculate D2E/DX2 analytically  !
 ! A21   A(7,6,30)             113.3642         calculate D2E/DX2 analytically  !
 ! A22   A(6,7,8)              112.6019         calculate D2E/DX2 analytically  !
 ! A23   A(6,7,31)             107.8952         calculate D2E/DX2 analytically  !
 ! A24   A(6,7,32)             111.5062         calculate D2E/DX2 analytically  !
 ! A25   A(8,7,31)             108.2769         calculate D2E/DX2 analytically  !
 ! A26   A(8,7,32)             111.7315         calculate D2E/DX2 analytically  !
 ! A27   A(31,7,32)            104.3672         calculate D2E/DX2 analytically  !
 ! A28   A(7,8,9)              111.0809         calculate D2E/DX2 analytically  !
 ! A29   A(7,8,33)             109.0575         calculate D2E/DX2 analytically  !
 ! A30   A(7,8,34)             112.0982         calculate D2E/DX2 analytically  !
 ! A31   A(9,8,33)             106.8983         calculate D2E/DX2 analytically  !
 ! A32   A(9,8,34)             110.6144         calculate D2E/DX2 analytically  !
 ! A33   A(33,8,34)            106.8526         calculate D2E/DX2 analytically  !
 ! A34   A(8,9,10)             112.3621         calculate D2E/DX2 analytically  !
 ! A35   A(9,10,11)            109.8622         calculate D2E/DX2 analytically  !
 ! A36   A(9,10,35)            107.9385         calculate D2E/DX2 analytically  !
 ! A37   A(9,10,36)            110.0856         calculate D2E/DX2 analytically  !
 ! A38   A(11,10,35)           109.1768         calculate D2E/DX2 analytically  !
 ! A39   A(11,10,36)           110.1658         calculate D2E/DX2 analytically  !
 ! A40   A(35,10,36)           109.5727         calculate D2E/DX2 analytically  !
 ! A41   A(10,11,12)           112.8616         calculate D2E/DX2 analytically  !
 ! A42   A(10,11,37)           108.2779         calculate D2E/DX2 analytically  !
 ! A43   A(10,11,38)           111.9047         calculate D2E/DX2 analytically  !
 ! A44   A(12,11,37)           105.4154         calculate D2E/DX2 analytically  !
 ! A45   A(12,11,38)           110.6741         calculate D2E/DX2 analytically  !
 ! A46   A(37,11,38)           107.3138         calculate D2E/DX2 analytically  !
 ! A47   A(11,12,13)           115.7305         calculate D2E/DX2 analytically  !
 ! A48   A(12,13,14)           114.794          calculate D2E/DX2 analytically  !
 ! A49   A(12,13,39)           105.7439         calculate D2E/DX2 analytically  !
 ! A50   A(12,13,40)           110.3879         calculate D2E/DX2 analytically  !
 ! A51   A(14,13,39)           108.3846         calculate D2E/DX2 analytically  !
 ! A52   A(14,13,40)           110.9268         calculate D2E/DX2 analytically  !
 ! A53   A(39,13,40)           106.0858         calculate D2E/DX2 analytically  !
 ! A54   A(13,14,15)           110.6061         calculate D2E/DX2 analytically  !
 ! A55   A(13,14,41)           107.7812         calculate D2E/DX2 analytically  !
 ! A56   A(13,14,42)           110.3619         calculate D2E/DX2 analytically  !
 ! A57   A(15,14,41)           110.7884         calculate D2E/DX2 analytically  !
 ! A58   A(15,14,42)           109.2242         calculate D2E/DX2 analytically  !
 ! A59   A(41,14,42)           108.0384         calculate D2E/DX2 analytically  !
 ! A60   A(14,15,16)           120.8929         calculate D2E/DX2 analytically  !
 ! A61   A(14,15,43)           113.7301         calculate D2E/DX2 analytically  !
 ! A62   A(16,15,43)           114.3325         calculate D2E/DX2 analytically  !
 ! A63   A(15,16,17)           123.4382         calculate D2E/DX2 analytically  !
 ! A64   A(15,16,22)           118.8154         calculate D2E/DX2 analytically  !
 ! A65   A(17,16,22)           117.5073         calculate D2E/DX2 analytically  !
 ! A66   A(16,17,18)           121.2742         calculate D2E/DX2 analytically  !
 ! A67   A(16,17,44)           120.7344         calculate D2E/DX2 analytically  !
 ! A68   A(18,17,44)           117.9887         calculate D2E/DX2 analytically  !
 ! A69   A(17,18,19)           120.6008         calculate D2E/DX2 analytically  !
 ! A70   A(17,18,45)           119.083          calculate D2E/DX2 analytically  !
 ! A71   A(19,18,45)           120.3126         calculate D2E/DX2 analytically  !
 ! A72   A(18,19,20)           120.5564         calculate D2E/DX2 analytically  !
 ! A73   A(18,19,21)           118.6433         calculate D2E/DX2 analytically  !
 ! A74   A(20,19,21)           120.7718         calculate D2E/DX2 analytically  !
 ! A75   A(19,20,46)           110.023          calculate D2E/DX2 analytically  !
 ! A76   A(19,20,47)           111.0086         calculate D2E/DX2 analytically  !
 ! A77   A(19,20,48)           110.7406         calculate D2E/DX2 analytically  !
 ! A78   A(46,20,47)           108.7148         calculate D2E/DX2 analytically  !
 ! A79   A(46,20,48)           108.946          calculate D2E/DX2 analytically  !
 ! A80   A(47,20,48)           107.3303         calculate D2E/DX2 analytically  !
 ! A81   A(19,21,22)           120.3489         calculate D2E/DX2 analytically  !
 ! A82   A(19,21,49)           120.569          calculate D2E/DX2 analytically  !
 ! A83   A(22,21,49)           119.0805         calculate D2E/DX2 analytically  !
 ! A84   A(16,22,21)           121.5579         calculate D2E/DX2 analytically  !
 ! A85   A(16,22,50)           119.9544         calculate D2E/DX2 analytically  !
 ! A86   A(21,22,50)           118.4871         calculate D2E/DX2 analytically  !
 ! A87   A(5,23,24)            121.3362         calculate D2E/DX2 analytically  !
 ! A88   A(5,23,51)            121.1122         calculate D2E/DX2 analytically  !
 ! A89   A(24,23,51)           117.5509         calculate D2E/DX2 analytically  !
 ! A90   A(2,24,23)            120.6407         calculate D2E/DX2 analytically  !
 ! A91   A(2,24,52)            120.3337         calculate D2E/DX2 analytically  !
 ! A92   A(23,24,52)           119.0191         calculate D2E/DX2 analytically  !
 ! D1    D(25,1,2,3)           162.8247         calculate D2E/DX2 analytically  !
 ! D2    D(25,1,2,24)          -18.5235         calculate D2E/DX2 analytically  !
 ! D3    D(26,1,2,3)            43.6942         calculate D2E/DX2 analytically  !
 ! D4    D(26,1,2,24)         -137.654          calculate D2E/DX2 analytically  !
 ! D5    D(27,1,2,3)           -76.8884         calculate D2E/DX2 analytically  !
 ! D6    D(27,1,2,24)          101.7635         calculate D2E/DX2 analytically  !
 ! D7    D(1,2,3,4)            179.1213         calculate D2E/DX2 analytically  !
 ! D8    D(1,2,3,28)            -1.593          calculate D2E/DX2 analytically  !
 ! D9    D(24,2,3,4)             0.4373         calculate D2E/DX2 analytically  !
 ! D10   D(24,2,3,28)          179.7231         calculate D2E/DX2 analytically  !
 ! D11   D(1,2,24,23)         -179.1746         calculate D2E/DX2 analytically  !
 ! D12   D(1,2,24,52)            1.7644         calculate D2E/DX2 analytically  !
 ! D13   D(3,2,24,23)           -0.4992         calculate D2E/DX2 analytically  !
 ! D14   D(3,2,24,52)         -179.5602         calculate D2E/DX2 analytically  !
 ! D15   D(2,3,4,5)             -1.7279         calculate D2E/DX2 analytically  !
 ! D16   D(2,3,4,29)           178.3192         calculate D2E/DX2 analytically  !
 ! D17   D(28,3,4,5)           178.9783         calculate D2E/DX2 analytically  !
 ! D18   D(28,3,4,29)           -0.9745         calculate D2E/DX2 analytically  !
 ! D19   D(3,4,5,6)            177.1796         calculate D2E/DX2 analytically  !
 ! D20   D(3,4,5,23)             2.9582         calculate D2E/DX2 analytically  !
 ! D21   D(29,4,5,6)            -2.8683         calculate D2E/DX2 analytically  !
 ! D22   D(29,4,5,23)         -177.0897         calculate D2E/DX2 analytically  !
 ! D23   D(4,5,6,7)            163.8751         calculate D2E/DX2 analytically  !
 ! D24   D(4,5,6,30)            23.9385         calculate D2E/DX2 analytically  !
 ! D25   D(23,5,6,7)           -22.3024         calculate D2E/DX2 analytically  !
 ! D26   D(23,5,6,30)         -162.2391         calculate D2E/DX2 analytically  !
 ! D27   D(4,5,23,24)           -3.0114         calculate D2E/DX2 analytically  !
 ! D28   D(4,5,23,51)          176.6875         calculate D2E/DX2 analytically  !
 ! D29   D(6,5,23,24)         -176.9028         calculate D2E/DX2 analytically  !
 ! D30   D(6,5,23,51)            2.7961         calculate D2E/DX2 analytically  !
 ! D31   D(5,6,7,8)            -71.7999         calculate D2E/DX2 analytically  !
 ! D32   D(5,6,7,31)           168.768          calculate D2E/DX2 analytically  !
 ! D33   D(5,6,7,32)            54.7203         calculate D2E/DX2 analytically  !
 ! D34   D(30,6,7,8)            67.9313         calculate D2E/DX2 analytically  !
 ! D35   D(30,6,7,31)          -51.5008         calculate D2E/DX2 analytically  !
 ! D36   D(30,6,7,32)         -165.5485         calculate D2E/DX2 analytically  !
 ! D37   D(6,7,8,9)           -176.2667         calculate D2E/DX2 analytically  !
 ! D38   D(6,7,8,33)           -58.7018         calculate D2E/DX2 analytically  !
 ! D39   D(6,7,8,34)            59.4169         calculate D2E/DX2 analytically  !
 ! D40   D(31,7,8,9)           -57.0565         calculate D2E/DX2 analytically  !
 ! D41   D(31,7,8,33)           60.5084         calculate D2E/DX2 analytically  !
 ! D42   D(31,7,8,34)          178.6271         calculate D2E/DX2 analytically  !
 ! D43   D(32,7,8,9)            57.3339         calculate D2E/DX2 analytically  !
 ! D44   D(32,7,8,33)          174.8988         calculate D2E/DX2 analytically  !
 ! D45   D(32,7,8,34)          -66.9825         calculate D2E/DX2 analytically  !
 ! D46   D(7,8,9,10)           -88.8336         calculate D2E/DX2 analytically  !
 ! D47   D(33,8,9,10)          152.2957         calculate D2E/DX2 analytically  !
 ! D48   D(34,8,9,10)           36.3196         calculate D2E/DX2 analytically  !
 ! D49   D(8,9,10,11)          175.6366         calculate D2E/DX2 analytically  !
 ! D50   D(8,9,10,35)          -65.4128         calculate D2E/DX2 analytically  !
 ! D51   D(8,9,10,36)           54.1449         calculate D2E/DX2 analytically  !
 ! D52   D(9,10,11,12)         -84.2386         calculate D2E/DX2 analytically  !
 ! D53   D(9,10,11,37)         159.4619         calculate D2E/DX2 analytically  !
 ! D54   D(9,10,11,38)          41.3878         calculate D2E/DX2 analytically  !
 ! D55   D(35,10,11,12)        157.5744         calculate D2E/DX2 analytically  !
 ! D56   D(35,10,11,37)         41.2748         calculate D2E/DX2 analytically  !
 ! D57   D(35,10,11,38)        -76.7993         calculate D2E/DX2 analytically  !
 ! D58   D(36,10,11,12)         37.2051         calculate D2E/DX2 analytically  !
 ! D59   D(36,10,11,37)        -79.0944         calculate D2E/DX2 analytically  !
 ! D60   D(36,10,11,38)        162.8315         calculate D2E/DX2 analytically  !
 ! D61   D(10,11,12,13)         69.4603         calculate D2E/DX2 analytically  !
 ! D62   D(37,11,12,13)       -172.5493         calculate D2E/DX2 analytically  !
 ! D63   D(38,11,12,13)        -56.8271         calculate D2E/DX2 analytically  !
 ! D64   D(11,12,13,14)         63.0394         calculate D2E/DX2 analytically  !
 ! D65   D(11,12,13,39)       -177.5419         calculate D2E/DX2 analytically  !
 ! D66   D(11,12,13,40)        -63.2182         calculate D2E/DX2 analytically  !
 ! D67   D(12,13,14,15)         51.2931         calculate D2E/DX2 analytically  !
 ! D68   D(12,13,14,41)        172.5437         calculate D2E/DX2 analytically  !
 ! D69   D(12,13,14,42)        -69.6886         calculate D2E/DX2 analytically  !
 ! D70   D(39,13,14,15)        -66.6435         calculate D2E/DX2 analytically  !
 ! D71   D(39,13,14,41)         54.6071         calculate D2E/DX2 analytically  !
 ! D72   D(39,13,14,42)        172.3748         calculate D2E/DX2 analytically  !
 ! D73   D(40,13,14,15)        177.2724         calculate D2E/DX2 analytically  !
 ! D74   D(40,13,14,41)        -61.4771         calculate D2E/DX2 analytically  !
 ! D75   D(40,13,14,42)         56.2907         calculate D2E/DX2 analytically  !
 ! D76   D(13,14,15,16)        160.5973         calculate D2E/DX2 analytically  !
 ! D77   D(13,14,15,43)         18.6435         calculate D2E/DX2 analytically  !
 ! D78   D(41,14,15,16)         41.1438         calculate D2E/DX2 analytically  !
 ! D79   D(41,14,15,43)       -100.81           calculate D2E/DX2 analytically  !
 ! D80   D(42,14,15,16)        -77.7481         calculate D2E/DX2 analytically  !
 ! D81   D(42,14,15,43)        140.2981         calculate D2E/DX2 analytically  !
 ! D82   D(14,15,16,17)         23.4442         calculate D2E/DX2 analytically  !
 ! D83   D(14,15,16,22)       -162.319          calculate D2E/DX2 analytically  !
 ! D84   D(43,15,16,17)        165.187          calculate D2E/DX2 analytically  !
 ! D85   D(43,15,16,22)        -20.5762         calculate D2E/DX2 analytically  !
 ! D86   D(15,16,17,18)        177.1623         calculate D2E/DX2 analytically  !
 ! D87   D(15,16,17,44)         -2.2313         calculate D2E/DX2 analytically  !
 ! D88   D(22,16,17,18)          2.8552         calculate D2E/DX2 analytically  !
 ! D89   D(22,16,17,44)       -176.5384         calculate D2E/DX2 analytically  !
 ! D90   D(15,16,22,21)       -177.5469         calculate D2E/DX2 analytically  !
 ! D91   D(15,16,22,50)          2.7088         calculate D2E/DX2 analytically  !
 ! D92   D(17,16,22,21)         -2.9681         calculate D2E/DX2 analytically  !
 ! D93   D(17,16,22,50)        177.2876         calculate D2E/DX2 analytically  !
 ! D94   D(16,17,18,19)         -1.6562         calculate D2E/DX2 analytically  !
 ! D95   D(16,17,18,45)        179.035          calculate D2E/DX2 analytically  !
 ! D96   D(44,17,18,19)        177.7535         calculate D2E/DX2 analytically  !
 ! D97   D(44,17,18,45)         -1.5553         calculate D2E/DX2 analytically  !
 ! D98   D(17,18,19,20)        178.5173         calculate D2E/DX2 analytically  !
 ! D99   D(17,18,19,21)          0.443          calculate D2E/DX2 analytically  !
 ! D100  D(45,18,19,20)         -2.1824         calculate D2E/DX2 analytically  !
 ! D101  D(45,18,19,21)        179.7433         calculate D2E/DX2 analytically  !
 ! D102  D(18,19,20,46)        -84.1147         calculate D2E/DX2 analytically  !
 ! D103  D(18,19,20,47)        155.5028         calculate D2E/DX2 analytically  !
 ! D104  D(18,19,20,48)         36.3835         calculate D2E/DX2 analytically  !
 ! D105  D(21,19,20,46)         93.9183         calculate D2E/DX2 analytically  !
 ! D106  D(21,19,20,47)        -26.4642         calculate D2E/DX2 analytically  !
 ! D107  D(21,19,20,48)       -145.5835         calculate D2E/DX2 analytically  !
 ! D108  D(18,19,21,22)         -0.5444         calculate D2E/DX2 analytically  !
 ! D109  D(18,19,21,49)        179.9268         calculate D2E/DX2 analytically  !
 ! D110  D(20,19,21,22)       -178.6144         calculate D2E/DX2 analytically  !
 ! D111  D(20,19,21,49)          1.8568         calculate D2E/DX2 analytically  !
 ! D112  D(19,21,22,16)          1.8674         calculate D2E/DX2 analytically  !
 ! D113  D(19,21,22,50)       -178.3847         calculate D2E/DX2 analytically  !
 ! D114  D(49,21,22,16)       -178.5968         calculate D2E/DX2 analytically  !
 ! D115  D(49,21,22,50)          1.1511         calculate D2E/DX2 analytically  !
 ! D116  D(5,23,24,2)            1.8524         calculate D2E/DX2 analytically  !
 ! D117  D(5,23,24,52)        -179.0744         calculate D2E/DX2 analytically  !
 ! D118  D(51,23,24,2)        -177.8568         calculate D2E/DX2 analytically  !
 ! D119  D(51,23,24,52)          1.2164         calculate D2E/DX2 analytically  !
 --------------------------------------------------------------------------------
 Trust Radius=3.00D-01 FncErr=1.00D-07 GrdErr=1.00D-06 EigMax=2.50D+02 EigMin=1.00D-04
 Number of steps in this run=    274 maximum allowed number of steps=    312.
 GradGradGradGradGradGradGradGradGradGradGradGradGradGradGradGradGradGrad

 Stoichiometry    C20H28N2O2
 Framework group  C1[X(C20H28N2O2)]
 Deg. of freedom   150
 Full point group                 C1      NOp   1
 Largest Abelian subgroup         C1      NOp   1
 Largest concise Abelian subgroup C1      NOp   1
                         Standard orientation:                         
 ---------------------------------------------------------------------
 Center     Atomic      Atomic             Coordinates (Angstroms)
 Number     Number       Type             X           Y           Z
 ---------------------------------------------------------------------
      1          6           0       -8.815525    0.729383   -0.622932
      2          6           0       -7.485609    0.155990   -0.234456
      3          6           0       -7.320264   -1.224027   -0.113879
      4          6           0       -6.074967   -1.760395    0.230663
      5          6           0       -4.953276   -0.943843    0.429517
      6          7           0       -3.756933   -1.539626    0.829634
      7          6           0       -2.478965   -0.840727    0.725710
      8          6           0       -2.000495   -0.699090   -0.725527
      9          8           0       -0.707482   -0.087687   -0.784018
     10          6           0       -0.782863    1.342461   -0.850126
     11          6           0        0.625304    1.940267   -0.800923
     12          8           0        1.118387    2.092522    0.533973
     13          6           0        1.418983    0.878837    1.226696
     14          6           0        2.542472    0.037348    0.596356
     15          7           0        3.729951    0.858051    0.360696
     16          6           0        4.979332    0.272276    0.182722
     17          6           0        5.157967   -1.043405   -0.254126
     18          6           0        6.437185   -1.569035   -0.474071
     19          6           0        7.572453   -0.775689   -0.293974
     20          6           0        8.942410   -1.348465   -0.497574
     21          6           0        7.405565    0.547805    0.118448
     22          6           0        6.123921    1.064663    0.333603
     23          6           0       -5.139374    0.438002    0.332473
     24          6           0       -6.382483    0.983124   -0.013373
     25          1           0       -8.873711    1.796034   -0.385331
     26          1           0       -9.622974    0.230895   -0.078359
     27          1           0       -8.977663    0.604197   -1.696921
     28          1           0       -8.161017   -1.894568   -0.275370
     29          1           0       -5.989780   -2.838174    0.342727
     30          1           0       -3.701235   -2.521921    0.573663
     31          1           0       -1.730743   -1.421910    1.279630
     32          1           0       -2.507095    0.126243    1.239716
     33          1           0       -1.901594   -1.696255   -1.168533
     34          1           0       -2.717212   -0.146211   -1.343986
     35          1           0       -1.255189    1.611874   -1.801296
     36          1           0       -1.385062    1.726089   -0.019870
     37          1           0        0.582650    2.953807   -1.212791
     38          1           0        1.332539    1.370065   -1.411426
     39          1           0        1.735472    1.180626    2.231866
     40          1           0        0.512083    0.281970    1.360894
     41          1           0        2.769091   -0.786946    1.283193
     42          1           0        2.208347   -0.394391   -0.352956
     43          1           0        3.744506    1.720614    0.898675
     44          1           0        4.303385   -1.686486   -0.442630
     45          1           0        6.535534   -2.602849   -0.798890
     46          1           0        9.275191   -1.855813    0.412337
     47          1           0        9.663392   -0.562879   -0.745407
     48          1           0        8.943885   -2.065261   -1.324989
     49          1           0        8.267547    1.192712    0.269407
     50          1           0        6.027723    2.107322    0.628731
     51          1           0       -4.325922    1.127944    0.527391
     52          1           0       -6.481142    2.062743   -0.092790
 ---------------------------------------------------------------------
 Rotational constants (GHZ):           0.8649486           0.0539898           0.0521446
 Standard basis: 6-31G(d,p) (6D, 7F)
 There are   500 symmetry adapted cartesian basis functions of A   symmetry.
 There are   500 symmetry adapted basis functions of A   symmetry.
   500 basis functions,   868 primitive gaussians,   500 cartesian basis functions
    89 alpha electrons       89 beta electrons
       nuclear repulsion energy      1868.7092547824 Hartrees.
 NAtoms=   52 NActive=   52 NUniq=   52 SFac= 1.00D+00 NAtFMM=   60 NAOKFM=F Big=F
 Integral buffers will be    131072 words long.
 Raffenetti 2 integral format.
 Two-electron integral symmetry is turned on.
 Force inversion solution in PCM.
 ------------------------------------------------------------------------------
 Polarizable Continuum Model (PCM)
 =================================
 Model                : PCM.
 Atomic radii         : UFF (Universal Force Field).
 Polarization charges : Total charges.
 Charge compensation  : None.
 Solution method      : Matrix inversion.
 Cavity type          : Scaled VdW (van der Waals Surface) (Alpha=1.100).
 Cavity algorithm     : GePol (No added spheres)
                        Default sphere list used, NSphG=   52.
                        Lebedev-Laikov grids with approx.  5.0 points / Ang**2.
                        Smoothing algorithm: York/Karplus (Gamma=1.0000).
                        Polarization charges: spherical gaussians, with
                                              point-specific exponents (IZeta= 3).
                        Self-potential: point-specific (ISelfS= 7).
                        Self-field    : sphere-specific E.n sum rule (ISelfD= 2).
 1st derivatives      : Analytical E(r).r(x)/FMM algorithm (CHGder, D1EAlg=3).
                        Cavity 1st derivative terms included.
 2nd derivatives      : Analytical E(r).r(xy)/FMM algorithm (CHGder, D2EAlg=3).
                        Cavity 2nd derivative terms included.
 Solvent              : Water, Eps=  78.355300 Eps(inf)=   1.777849
 ------------------------------------------------------------------------------
 One-electron integrals computed using PRISM.
 NBasis=   500 RedAO= T EigKep=  4.13D-04  NBF=   500
 NBsUse=   500 1.00D-06 EigRej= -1.00D+00 NBFU=   500
 ExpMin= 1.61D-01 ExpMax= 5.48D+03 ExpMxC= 8.25D+02 IAcc=3 IRadAn=         5 AccDes= 0.00D+00
 Harris functional with IExCor=  402 and IRadAn=       5 diagonalized for initial guess.
 HarFok:  IExCor=  402 AccDes= 0.00D+00 IRadAn=         5 IDoV= 1 UseB2=F ITyADJ=14
 ICtDFT=  3500011 ScaDFX=  1.000000  1.000000  1.000000  1.000000
 FoFCou: FMM=F IPFlag=           0 FMFlag=      100000 FMFlg1=           0
         NFxFlg=           0 DoJE=T BraDBF=F KetDBF=T FulRan=T
         wScrn=  0.000000 ICntrl=       500 IOpCl=  0 I1Cent=   200000004 NGrid=           0
         NMat0=    1 NMatS0=      1 NMatT0=    0 NMatD0=    1 NMtDS0=    0 NMtDT0=    0
 Petite list used in FoFCou.
 Requested convergence on RMS density matrix=1.00D-08 within  32 cycles.
 Requested convergence on MAX density matrix=1.00D-06.
 Requested convergence on             energy=1.00D-06.
 No special actions if energy rises.
 Inv3:  Mode=1 IEnd=    40384683.
 Iteration    1 A*A^-1 deviation from unit magnitude is 3.33D-15 for   2204.
 Iteration    1 A*A^-1 deviation from orthogonality  is 3.04D-15 for   2562   2426.
 Iteration    1 A^-1*A deviation from unit magnitude is 3.55D-15 for   2400.
 Iteration    1 A^-1*A deviation from orthogonality  is 1.29D-14 for   3337   3320.
 Error on total polarization charges =  0.01442
 SCF Done:  E(RB3LYP) =  -1038.96427578     A.U. after   12 cycles
            NFock= 12  Conv=0.63D-08     -V/T= 2.0095
 QCSCF skips out because SCF is already converged.
 DoSCS=F DFT=T ScalE2(SS,OS)=  1.000000  1.000000
 Range of M.O.s used for correlation:     1   500
 NBasis=   500 NAE=    89 NBE=    89 NFC=     0 NFV=     0
 NROrb=    500 NOA=    89 NOB=    89 NVA=   411 NVB=   411
 Symmetrizing basis deriv contribution to polar:
 IMax=3 JMax=2 DiffMx= 0.00D+00
 G2DrvN: will do    53 centers at a time, making    1 passes.
 Calling FoFCou, ICntrl=  3107 FMM=F I1Cent=   0 AccDes= 0.00D+00.
 NEqPCM:  Using equilibrium solvation (IEInf=0, Eps=  78.3553, EpsInf=   1.7778)
 G2PCM: DoFxE=T DoFxN=T DoGrad=T DoDP/DQ/DG/TGxP=FFFF NFrqRd=   0 IEInf=0 SqF1=F DoCFld=F IF1Alg=4.
 End of G2Drv F.D. properties file   721 does not exist.
 End of G2Drv F.D. properties file   722 does not exist.
 End of G2Drv F.D. properties file   788 does not exist.
          IDoAtm=11111111111111111111111111111111111111111111111111
          IDoAtm=11
 NEqPCM:  Using equilibrium solvation (IEInf=0, Eps=  78.3553, EpsInf=   1.7778)
          Differentiating once with respect to nuclear coordinates.
 CalDSu exits because no D1Ps are significant.
          There are   159 degrees of freedom in the 1st order CPHF.  IDoFFX=6 NUNeed=     0.
    153 vectors produced by pass  0 Test12= 3.66D-14 1.00D-09 XBig12= 1.35D-01 1.69D-01.
 AX will form   153 AO Fock derivatives at one time.
    153 vectors produced by pass  1 Test12= 3.66D-14 1.00D-09 XBig12= 2.38D-02 5.13D-02.
    153 vectors produced by pass  2 Test12= 3.66D-14 1.00D-09 XBig12= 1.97D-04 2.34D-03.
    153 vectors produced by pass  3 Test12= 3.66D-14 1.00D-09 XBig12= 4.74D-07 7.84D-05.
    153 vectors produced by pass  4 Test12= 3.66D-14 1.00D-09 XBig12= 5.15D-10 2.44D-06.
     85 vectors produced by pass  5 Test12= 3.66D-14 1.00D-09 XBig12= 4.12D-13 5.90D-08.
     15 vectors produced by pass  6 Test12= 3.66D-14 1.00D-09 XBig12= 3.57D-16 2.27D-09.
 InvSVY:  IOpt=1 It=  1 EMax= 6.11D-16
 Solved reduced A of dimension   865 with   159 vectors.
 End of Minotr F.D. properties file   721 does not exist.
 End of Minotr F.D. properties file   722 does not exist.
 End of Minotr F.D. properties file   788 does not exist.

 **********************************************************************

            Population analysis using the SCF density.

 **********************************************************************

 Orbital symmetries:
       Occupied  (A) (A) (A) (A) (A) (A) (A) (A) (A) (A) (A) (A)
                 (A) (A) (A) (A) (A) (A) (A) (A) (A) (A) (A) (A)
                 (A) (A) (A) (A) (A) (A) (A) (A) (A) (A) (A) (A)
                 (A) (A) (A) (A) (A) (A) (A) (A) (A) (A) (A) (A)
                 (A) (A) (A) (A) (A) (A) (A) (A) (A) (A) (A) (A)
                 (A) (A) (A) (A) (A) (A) (A) (A) (A) (A) (A) (A)
                 (A) (A) (A) (A) (A) (A) (A) (A) (A) (A) (A) (A)
                 (A) (A) (A) (A) (A)
       Virtual   (A) (A) (A) (A) (A) (A) (A) (A) (A) (A) (A) (A)
                 (A) (A) (A) (A) (A) (A) (A) (A) (A) (A) (A) (A)
                 (A) (A) (A) (A) (A) (A) (A) (A) (A) (A) (A) (A)
                 (A) (A) (A) (A) (A) (A) (A) (A) (A) (A) (A) (A)
                 (A) (A) (A) (A) (A) (A) (A) (A) (A) (A) (A) (A)
                 (A) (A) (A) (A) (A) (A) (A) (A) (A) (A) (A) (A)
                 (A) (A) (A) (A) (A) (A) (A) (A) (A) (A) (A) (A)
                 (A) (A) (A) (A) (A) (A) (A) (A) (A) (A) (A) (A)
                 (A) (A) (A) (A) (A) (A) (A) (A) (A) (A) (A) (A)
                 (A) (A) (A) (A) (A) (A) (A) (A) (A) (A) (A) (A)
                 (A) (A) (A) (A) (A) (A) (A) (A) (A) (A) (A) (A)
                 (A) (A) (A) (A) (A) (A) (A) (A) (A) (A) (A) (A)
                 (A) (A) (A) (A) (A) (A) (A) (A) (A) (A) (A) (A)
                 (A) (A) (A) (A) (A) (A) (A) (A) (A) (A) (A) (A)
                 (A) (A) (A) (A) (A) (A) (A) (A) (A) (A) (A) (A)
                 (A) (A) (A) (A) (A) (A) (A) (A) (A) (A) (A) (A)
                 (A) (A) (A) (A) (A) (A) (A) (A) (A) (A) (A) (A)
                 (A) (A) (A) (A) (A) (A) (A) (A) (A) (A) (A) (A)
                 (A) (A) (A) (A) (A) (A) (A) (A) (A) (A) (A) (A)
                 (A) (A) (A) (A) (A) (A) (A) (A) (A) (A) (A) (A)
                 (A) (A) (A) (A) (A) (A) (A) (A) (A) (A) (A) (A)
                 (A) (A) (A) (A) (A) (A) (A) (A) (A) (A) (A) (A)
                 (A) (A) (A) (A) (A) (A) (A) (A) (A) (A) (A) (A)
                 (A) (A) (A) (A) (A) (A) (A) (A) (A) (A) (A) (A)
                 (A) (A) (A) (A) (A) (A) (A) (A) (A) (A) (A) (A)
                 (A) (A) (A) (A) (A) (A) (A) (A) (A) (A) (A) (A)
                 (A) (A) (A) (A) (A) (A) (A) (A) (A) (A) (A) (A)
                 (A) (A) (A) (A) (A) (A) (A) (A) (A) (A) (A) (A)
                 (A) (A) (A) (A) (A) (A) (A) (A) (A) (A) (A) (A)
                 (A) (A) (A) (A) (A) (A) (A) (A) (A) (A) (A) (A)
                 (A) (A) (A) (A) (A) (A) (A) (A) (A) (A) (A) (A)
                 (A) (A) (A) (A) (A) (A) (A) (A) (A) (A) (A) (A)
                 (A) (A) (A) (A) (A) (A) (A) (A) (A) (A) (A) (A)
                 (A) (A) (A) (A) (A) (A) (A) (A) (A) (A) (A) (A)
                 (A) (A) (A)
 The electronic state is 1-A.
 Alpha  occ. eigenvalues --  -19.15257 -19.15087 -14.34264 -14.33727 -10.23297
 Alpha  occ. eigenvalues --  -10.23221 -10.23158 -10.23036 -10.22279 -10.22019
 Alpha  occ. eigenvalues --  -10.21690 -10.21448 -10.18244 -10.18220 -10.18142
 Alpha  occ. eigenvalues --  -10.18124 -10.18119 -10.18031 -10.17966 -10.17888
 Alpha  occ. eigenvalues --  -10.17803 -10.17785 -10.17437 -10.17404  -1.03545
 Alpha  occ. eigenvalues --   -1.02128  -0.93013  -0.92572  -0.84155  -0.84004
 Alpha  occ. eigenvalues --   -0.77656  -0.76755  -0.75341  -0.73895  -0.73731
 Alpha  occ. eigenvalues --   -0.72804  -0.70849  -0.67167  -0.66325  -0.64497
 Alpha  occ. eigenvalues --   -0.62003  -0.60556  -0.60095  -0.58126  -0.57172
 Alpha  occ. eigenvalues --   -0.56959  -0.52565  -0.52329  -0.50987  -0.49573
 Alpha  occ. eigenvalues --   -0.48968  -0.47631  -0.47064  -0.46290  -0.45441
 Alpha  occ. eigenvalues --   -0.45148  -0.44106  -0.43739  -0.43137  -0.42428
 Alpha  occ. eigenvalues --   -0.41898  -0.41600  -0.41479  -0.41247  -0.41068
 Alpha  occ. eigenvalues --   -0.40939  -0.40776  -0.39786  -0.38557  -0.37242
 Alpha  occ. eigenvalues --   -0.37146  -0.37093  -0.36663  -0.35899  -0.35232
 Alpha  occ. eigenvalues --   -0.34233  -0.34039  -0.33144  -0.33068  -0.32109
 Alpha  occ. eigenvalues --   -0.30705  -0.29303  -0.28353  -0.26587  -0.25115
 Alpha  occ. eigenvalues --   -0.24524  -0.24429  -0.19123  -0.19015
 Alpha virt. eigenvalues --    0.00012   0.00146   0.02099   0.02264   0.07635
 Alpha virt. eigenvalues --    0.08811   0.09545   0.10434   0.10630   0.11034
 Alpha virt. eigenvalues --    0.11120   0.12466   0.12679   0.13424   0.13524
 Alpha virt. eigenvalues --    0.13988   0.14228   0.14810   0.15038   0.15133
 Alpha virt. eigenvalues --    0.15591   0.16129   0.16594   0.17131   0.18000
 Alpha virt. eigenvalues --    0.18184   0.18285   0.19004   0.19232   0.19263
 Alpha virt. eigenvalues --    0.20036   0.20619   0.20765   0.21035   0.21429
 Alpha virt. eigenvalues --    0.22712   0.23074   0.23670   0.24116   0.24630
 Alpha virt. eigenvalues --    0.25098   0.25632   0.26508   0.27645   0.28007
 Alpha virt. eigenvalues --    0.29327   0.30164   0.33433   0.33893   0.34427
 Alpha virt. eigenvalues --    0.34725   0.34881   0.35464   0.37979   0.38186
 Alpha virt. eigenvalues --    0.46973   0.47392   0.49481   0.50309   0.50887
 Alpha virt. eigenvalues --    0.51330   0.51776   0.51985   0.52371   0.52654
 Alpha virt. eigenvalues --    0.52993   0.54098   0.54454   0.54770   0.55323
 Alpha virt. eigenvalues --    0.55935   0.56190   0.56787   0.57186   0.58214
 Alpha virt. eigenvalues --    0.58630   0.58850   0.59767   0.60012   0.60331
 Alpha virt. eigenvalues --    0.60349   0.60449   0.60847   0.61352   0.62194
 Alpha virt. eigenvalues --    0.62668   0.62844   0.63074   0.64715   0.64963
 Alpha virt. eigenvalues --    0.65295   0.65828   0.66320   0.66862   0.68386
 Alpha virt. eigenvalues --    0.68686   0.70393   0.70829   0.71699   0.71995
 Alpha virt. eigenvalues --    0.73282   0.73883   0.74658   0.75712   0.75864
 Alpha virt. eigenvalues --    0.77162   0.77997   0.78785   0.79880   0.80227
 Alpha virt. eigenvalues --    0.80964   0.81626   0.81946   0.82038   0.82561
 Alpha virt. eigenvalues --    0.83596   0.84025   0.85014   0.85244   0.86148
 Alpha virt. eigenvalues --    0.86471   0.86684   0.87530   0.87762   0.88336
 Alpha virt. eigenvalues --    0.88553   0.89314   0.89378   0.89866   0.90372
 Alpha virt. eigenvalues --    0.90570   0.91663   0.92796   0.93156   0.93738
 Alpha virt. eigenvalues --    0.94059   0.94230   0.95439   0.96115   0.97303
 Alpha virt. eigenvalues --    0.97662   0.98448   0.99307   1.00092   1.00361
 Alpha virt. eigenvalues --    1.00736   1.02283   1.02765   1.04333   1.06954
 Alpha virt. eigenvalues --    1.08532   1.09538   1.09713   1.13382   1.13781
 Alpha virt. eigenvalues --    1.15133   1.15658   1.16913   1.17901   1.18094
 Alpha virt. eigenvalues --    1.18441   1.19154   1.19460   1.22846   1.23062
 Alpha virt. eigenvalues --    1.24607   1.25827   1.26645   1.27601   1.28809
 Alpha virt. eigenvalues --    1.30799   1.31288   1.33009   1.33703   1.34838
 Alpha virt. eigenvalues --    1.36718   1.39576   1.39789   1.40401   1.40907
 Alpha virt. eigenvalues --    1.41864   1.42395   1.42715   1.43745   1.44714
 Alpha virt. eigenvalues --    1.45321   1.46081   1.47205   1.48967   1.50525
 Alpha virt. eigenvalues --    1.53586   1.54083   1.56592   1.58760   1.59946
 Alpha virt. eigenvalues --    1.63437   1.65060   1.67044   1.69069   1.69437
 Alpha virt. eigenvalues --    1.71482   1.73678   1.74213   1.74257   1.75423
 Alpha virt. eigenvalues --    1.76097   1.77165   1.78040   1.78178   1.78737
 Alpha virt. eigenvalues --    1.79301   1.80926   1.82214   1.82323   1.83021
 Alpha virt. eigenvalues --    1.84169   1.84510   1.85422   1.85527   1.86371
 Alpha virt. eigenvalues --    1.86864   1.88412   1.91366   1.92252   1.92733
 Alpha virt. eigenvalues --    1.93272   1.93630   1.93688   1.93988   1.94951
 Alpha virt. eigenvalues --    1.96746   1.97247   1.97262   1.97536   1.98860
 Alpha virt. eigenvalues --    1.99640   2.00607   2.00785   2.01137   2.02153
 Alpha virt. eigenvalues --    2.02573   2.03097   2.04157   2.04461   2.05212
 Alpha virt. eigenvalues --    2.05293   2.06452   2.06747   2.06859   2.09737
 Alpha virt. eigenvalues --    2.09857   2.10167   2.10884   2.11385   2.12449
 Alpha virt. eigenvalues --    2.14235   2.14339   2.14725   2.15093   2.16125
 Alpha virt. eigenvalues --    2.17668   2.18644   2.20417   2.21118   2.21370
 Alpha virt. eigenvalues --    2.22242   2.23853   2.24683   2.26176   2.27364
 Alpha virt. eigenvalues --    2.28929   2.29410   2.30732   2.31521   2.32206
 Alpha virt. eigenvalues --    2.32690   2.32733   2.33638   2.35065   2.36147
 Alpha virt. eigenvalues --    2.36564   2.38491   2.38923   2.39686   2.41677
 Alpha virt. eigenvalues --    2.41802   2.41964   2.42264   2.43213   2.44153
 Alpha virt. eigenvalues --    2.44944   2.45421   2.46610   2.48436   2.48656
 Alpha virt. eigenvalues --    2.49856   2.50310   2.51269   2.52364   2.52926
 Alpha virt. eigenvalues --    2.54107   2.55109   2.56095   2.56813   2.57788
 Alpha virt. eigenvalues --    2.58364   2.59384   2.59839   2.59922   2.61585
 Alpha virt. eigenvalues --    2.63636   2.63670   2.64120   2.64514   2.65937
 Alpha virt. eigenvalues --    2.66418   2.68788   2.69712   2.70425   2.70816
 Alpha virt. eigenvalues --    2.71541   2.71769   2.73103   2.73714   2.74010
 Alpha virt. eigenvalues --    2.74407   2.75445   2.76462   2.77457   2.78302
 Alpha virt. eigenvalues --    2.78975   2.81047   2.81749   2.82759   2.83507
 Alpha virt. eigenvalues --    2.86138   2.86690   2.87049   2.88112   2.88789
 Alpha virt. eigenvalues --    2.89117   2.89612   2.89892   2.91031   2.93165
 Alpha virt. eigenvalues --    2.94685   2.97888   2.98236   2.99546   3.01521
 Alpha virt. eigenvalues --    3.04835   3.06820   3.07348   3.07818   3.09617
 Alpha virt. eigenvalues --    3.19578   3.19669   3.20401   3.20776   3.25647
 Alpha virt. eigenvalues --    3.25782   3.26365   3.27716   3.29204   3.29621
 Alpha virt. eigenvalues --    3.31296   3.32301   3.33164   3.33943   3.37447
 Alpha virt. eigenvalues --    3.37867   3.42067   3.42455   3.43937   3.44010
 Alpha virt. eigenvalues --    3.46074   3.46505   3.47119   3.48293   3.50387
 Alpha virt. eigenvalues --    3.51297   3.52586   3.53881   3.55307   3.56429
 Alpha virt. eigenvalues --    3.83799   3.83838   3.90884   4.06023   4.13891
 Alpha virt. eigenvalues --    4.14144   4.14288   4.16328   4.16416   4.17774
 Alpha virt. eigenvalues --    4.20175   4.23213   4.37649   4.38478   4.38769
 Alpha virt. eigenvalues --    4.41321   4.43337   4.44312   4.44606   4.54573
 Alpha virt. eigenvalues --    4.55181   4.59759   4.67605   4.68964   4.84932
 Alpha virt. eigenvalues --    4.85270
          Condensed to atoms (all electrons):
 Mulliken charges:
               1
     1  C   -0.382129
     2  C    0.099025
     3  C   -0.133176
     4  C   -0.161145
     5  C    0.305808
     6  N   -0.593943
     7  C   -0.080357
     8  C    0.056092
     9  O   -0.513937
    10  C    0.047693
    11  C    0.031831
    12  O   -0.512286
    13  C    0.020416
    14  C   -0.051202
    15  N   -0.602595
    16  C    0.312727
    17  C   -0.146690
    18  C   -0.143506
    19  C    0.097388
    20  C   -0.381596
    21  C   -0.137552
    22  C   -0.160532
    23  C   -0.142124
    24  C   -0.147244
    25  H    0.111706
    26  H    0.116115
    27  H    0.123426
    28  H    0.089429
    29  H    0.089413
    30  H    0.271878
    31  H    0.122890
    32  H    0.125376
    33  H    0.109242
    34  H    0.103243
    35  H    0.104421
    36  H    0.108117
    37  H    0.118305
    38  H    0.113888
    39  H    0.112669
    40  H    0.117473
    41  H    0.108795
    42  H    0.120245
    43  H    0.267298
    44  H    0.091293
    45  H    0.088369
    46  H    0.123567
    47  H    0.111921
    48  H    0.113949
    49  H    0.088317
    50  H    0.087790
    51  H    0.089967
    52  H    0.089931
 Sum of Mulliken charges =  -0.00000
 Mulliken charges with hydrogens summed into heavy atoms:
               1
     1  C   -0.030882
     2  C    0.099025
     3  C   -0.043747
     4  C   -0.071733
     5  C    0.305808
     6  N   -0.322065
     7  C    0.167910
     8  C    0.268578
     9  O   -0.513937
    10  C    0.260231
    11  C    0.264023
    12  O   -0.512286
    13  C    0.250558
    14  C    0.177838
    15  N   -0.335298
    16  C    0.312727
    17  C   -0.055396
    18  C   -0.055137
    19  C    0.097388
    20  C   -0.032160
    21  C   -0.049235
    22  C   -0.072742
    23  C   -0.052157
    24  C   -0.057313
 APT charges:
               1
     1  C   -1.617414
     2  C    0.772819
     3  C   -0.214533
     4  C   -0.733813
     5  C   -0.784322
     6  N   -0.957239
     7  C   -0.338650
     8  C   -0.658674
     9  O   -0.413693
    10  C   -0.581545
    11  C   -0.720984
    12  O   -0.390848
    13  C   -0.518109
    14  C   -0.345176
    15  N   -1.054291
    16  C   -0.779697
    17  C   -0.586651
    18  C   -0.491586
    19  C    0.851261
    20  C   -1.657117
    21  C   -0.264249
    22  C   -0.713778
    23  C   -0.579708
    24  C   -0.568952
    25  H    0.421279
    26  H    1.045199
    27  H    0.458526
    28  H    1.247073
    29  H    0.527687
    30  H    0.630131
    31  H    0.196811
    32  H    0.247342
    33  H    0.408550
    34  H    0.446722
    35  H    0.462691
    36  H    0.312278
    37  H    0.614456
    38  H    0.283303
    39  H    0.539469
    40  H    0.106328
    41  H    0.400337
    42  H    0.154406
    43  H    0.582909
    44  H   -0.197683
    45  H    0.588982
    46  H    0.610874
    47  H    0.937032
    48  H    0.424709
    49  H    1.205010
    50  H    0.414106
    51  H   -0.214290
    52  H    0.492714
 Sum of APT charges =  -0.00000
 APT charges with hydrogens summed into heavy atoms:
               1
     1  C    0.307590
     2  C    0.772819
     3  C    1.032541
     4  C   -0.206126
     5  C   -0.784322
     6  N   -0.327108
     7  C    0.105503
     8  C    0.196597
     9  O   -0.413693
    10  C    0.193424
    11  C    0.176774
    12  O   -0.390848
    13  C    0.127688
    14  C    0.209568
    15  N   -0.471382
    16  C   -0.779697
    17  C   -0.784334
    18  C    0.097396
    19  C    0.851261
    20  C    0.315497
    21  C    0.940760
    22  C   -0.299672
    23  C   -0.793998
    24  C   -0.076238
 Electronic spatial extent (au):  <R**2>=          19655.3378
 Charge=             -0.0000 electrons
 Dipole moment (field-independent basis, Debye):
    X=             -1.8077    Y=             -0.9114    Z=             -0.1486  Tot=              2.0299
 Quadrupole moment (field-independent basis, Debye-Ang):
   XX=           -153.9873   YY=           -133.1833   ZZ=           -146.8440
   XY=              1.8682   XZ=              8.9129   YZ=              0.1151
 Traceless Quadrupole moment (field-independent basis, Debye-Ang):
   XX=             -9.3158   YY=             11.4883   ZZ=             -2.1725
   XY=              1.8682   XZ=              8.9129   YZ=              0.1151
 Octapole moment (field-independent basis, Debye-Ang**2):
  XXX=            -10.4399  YYY=            -14.9276  ZZZ=             -0.7535  XYY=            -19.5537
  XXY=              0.0084  XXZ=            -22.9229  XZZ=             11.2738  YZZ=             10.5618
  YYZ=             -7.6420  XYZ=             12.4344
 Hexadecapole moment (field-independent basis, Debye-Ang**3):
 XXXX=         -24539.1379 YYYY=          -1300.5161 ZZZZ=           -511.0711 XXXY=            142.6004
 XXXZ=            263.1609 YYYX=             78.4573 YYYZ=            -10.3360 ZZZX=             46.0511
 ZZZY=              8.0633 XXYY=          -4121.9173 XXZZ=          -4515.7973 YYZZ=           -315.7727
 XXYZ=            103.4620 YYXZ=             -0.3529 ZZXY=             -7.6050
 N-N= 1.868709254782D+03 E-N=-6.150467640819D+03  KE= 1.029139133253D+03
  Exact polarizability:   0.000   0.000   0.000   0.000   0.000   0.000
 Approx polarizability: 430.815 -17.152 380.287  20.660  16.273 212.509
 D2PCM: PCM CHGder 2nd derivatives, FixD1E=F FixD2E=F DoIter=F DoCFld=F I1PDM=0
 Calling FoFJK, ICntrl=    100147 FMM=F ISym2X=0 I1Cent= 0 IOpClX= 0 NMat=1 NMatS=1 NMatT=0.
 ***** Axes restored to original set *****
 -------------------------------------------------------------------
 Center     Atomic                   Forces (Hartrees/Bohr)
 Number     Number              X              Y              Z
 -------------------------------------------------------------------
      1        6          -0.002335905   -0.000457689   -0.003627202
      2        6          -0.003450541   -0.006321213   -0.002886942
      3        6           0.013376978    0.006283274   -0.000903011
      4        6          -0.013759737    0.000148859    0.008266736
      5        6          -0.001660152    0.007030928   -0.002181170
      6        7           0.004683844   -0.001065320   -0.002880141
      7        6           0.001438946    0.005705315    0.004183404
      8        6           0.007876748   -0.000249946   -0.000388935
      9        8          -0.003201104   -0.001076855   -0.000056383
     10        6           0.008709003    0.002475403    0.009667399
     11        6          -0.005373251    0.004462568   -0.007922875
     12        8           0.004175508   -0.000348900    0.001061045
     13        6           0.002329112    0.001802244   -0.001320964
     14        6          -0.001310040   -0.006802624   -0.004860293
     15        7          -0.005234528    0.002612524   -0.002431991
     16        6          -0.003097605   -0.009810449   -0.002545573
     17        6          -0.000442373    0.010096609    0.011197560
     18        6          -0.007261082   -0.005417525   -0.006357477
     19        6           0.004110816    0.002784440    0.002960968
     20        6           0.002703114   -0.003184460    0.002686350
     21        6          -0.013896928   -0.002191629   -0.002550696
     22        6           0.015320778   -0.001898862   -0.006345576
     23        6          -0.000538019   -0.011966293   -0.006523011
     24        6           0.006059337    0.009324997    0.002643751
     25        1          -0.000150339   -0.001367708    0.001292836
     26        1          -0.002406021   -0.001251078    0.002556338
     27        1          -0.004758143   -0.001589611    0.000710330
     28        1           0.000014146   -0.000179250   -0.000686711
     29        1           0.002363216    0.000260058    0.000531152
     30        1           0.000760202   -0.001537472   -0.003788743
     31        1          -0.001374321   -0.000461467    0.002148470
     32        1          -0.004890889   -0.001254957    0.001816503
     33        1           0.000984151    0.000662017   -0.000200914
     34        1          -0.001696203   -0.000482633   -0.001883239
     35        1          -0.002780639   -0.003810614   -0.001560964
     36        1           0.000068087   -0.003617817   -0.002925924
     37        1           0.000082051    0.000718984   -0.001274466
     38        1          -0.002309617    0.000595179    0.003658341
     39        1           0.000825090   -0.003512079   -0.001501507
     40        1           0.001577993    0.001017855    0.005184728
     41        1          -0.001876280    0.003198595    0.001427470
     42        1          -0.001032640    0.002390453    0.001002345
     43        1           0.000430271    0.001248263    0.004245718
     44        1          -0.001063724    0.000136959   -0.002019464
     45        1           0.000330930   -0.000944227   -0.000596088
     46        1           0.004510012    0.001371339    0.001756448
     47        1           0.001405221    0.001953375   -0.000824454
     48        1           0.001721441    0.002788158   -0.000032456
     49        1           0.000335902   -0.000025808    0.001044676
     50        1          -0.001925122    0.000823343   -0.000447814
     51        1           0.002153750    0.000485574    0.001322765
     52        1          -0.000521444    0.000449171    0.000159648
 -------------------------------------------------------------------
 Cartesian Forces:  Max     0.015320778 RMS     0.004272088
 FormGI is forming the generalized inverse of G from B-inverse, IUseBI=4.

 GradGradGradGradGradGradGradGradGradGradGradGradGradGradGradGradGradGrad
 Berny optimization.
 Internal  Forces:  Max     0.011281841 RMS     0.002696351
 Search for a local minimum.
 Step number   1 out of a maximum of  274
 All quantities printed in internal units (Hartrees-Bohrs-Radians)
 Mixed Optimization -- RFO/linear search
 Second derivative matrix not updated -- analytic derivatives used.
 ITU=  0
     Eigenvalues ---   -0.00012   0.00001   0.00002   0.00057   0.00234
     Eigenvalues ---    0.00270   0.00303   0.00364   0.00416   0.00478
     Eigenvalues ---    0.00537   0.00642   0.00830   0.00848   0.00883
     Eigenvalues ---    0.01567   0.01574   0.01650   0.01665   0.01725
     Eigenvalues ---    0.01725   0.01996   0.02001   0.02192   0.02196
     Eigenvalues ---    0.02317   0.02339   0.02716   0.02720   0.02750
     Eigenvalues ---    0.02767   0.02773   0.02796   0.04255   0.04578
     Eigenvalues ---    0.04659   0.04699   0.04758   0.04857   0.04981
     Eigenvalues ---    0.05035   0.05546   0.05714   0.05880   0.05889
     Eigenvalues ---    0.05925   0.05927   0.06185   0.06936   0.07996
     Eigenvalues ---    0.08200   0.09698   0.09806   0.10095   0.10300
     Eigenvalues ---    0.11006   0.11422   0.11429   0.11616   0.11689
     Eigenvalues ---    0.11784   0.11932   0.11974   0.12275   0.12509
     Eigenvalues ---    0.12633   0.12680   0.12890   0.12948   0.12990
     Eigenvalues ---    0.13380   0.13682   0.14498   0.14505   0.14596
     Eigenvalues ---    0.14931   0.14942   0.16965   0.18011   0.18084
     Eigenvalues ---    0.19182   0.19214   0.19441   0.19522   0.19655
     Eigenvalues ---    0.19696   0.20489   0.21140   0.21602   0.21674
     Eigenvalues ---    0.23047   0.23619   0.24234   0.25120   0.25357
     Eigenvalues ---    0.25594   0.26291   0.26692   0.27979   0.28465
     Eigenvalues ---    0.30793   0.31771   0.31985   0.32252   0.32297
     Eigenvalues ---    0.32800   0.32872   0.32943   0.33042   0.33051
     Eigenvalues ---    0.33150   0.33196   0.33563   0.33632   0.33684
     Eigenvalues ---    0.33730   0.33779   0.33852   0.33883   0.34642
     Eigenvalues ---    0.34667   0.34740   0.35048   0.35392   0.35517
     Eigenvalues ---    0.35581   0.35766   0.35877   0.35930   0.35994
     Eigenvalues ---    0.36235   0.36282   0.36493   0.36906   0.39020
     Eigenvalues ---    0.39122   0.39944   0.41067   0.41126   0.44790
     Eigenvalues ---    0.44821   0.45855   0.46105   0.47384   0.47424
     Eigenvalues ---    0.47830   0.47908   0.49000   0.51737   0.51814
 RFO step:  Lambda=-9.12306850D-03 EMin=-1.17092779D-04
 Linear search not attempted -- first point.
 Iteration  1 RMS(Cart)=  0.30712308 RMS(Int)=  0.02688876
 Iteration  2 RMS(Cart)=  0.08871071 RMS(Int)=  0.00267534
 Iteration  3 RMS(Cart)=  0.00741117 RMS(Int)=  0.00099591
 Iteration  4 RMS(Cart)=  0.00002952 RMS(Int)=  0.00099580
 Iteration  5 RMS(Cart)=  0.00000024 RMS(Int)=  0.00099580
 Variable       Old X    -DE/DX   Delta X   Delta X   Delta X     New X
                                 (Linear)    (Quad)   (Total)
    R1        2.83356   0.01067   0.00000   0.02096   0.02096   2.85452
    R2        2.06801  -0.00021   0.00000  -0.00061  -0.00061   2.06739
    R3        2.06752   0.00067   0.00000   0.00220   0.00220   2.06972
    R4        2.06613   0.00221   0.00000   0.00750   0.00750   2.07363
    R5        2.63637   0.00721   0.00000   0.01603   0.01608   2.65245
    R6        2.63880   0.00275   0.00000   0.00415   0.00421   2.64301
    R7        2.64370  -0.00530   0.00000  -0.01653  -0.01654   2.62716
    R8        2.05500  -0.00044   0.00000   0.00050   0.00050   2.05551
    R9        2.64864   0.00683   0.00000   0.01593   0.01587   2.66451
   R10        2.05401   0.00077   0.00000   0.00123   0.00123   2.05524
   R11        2.63635   0.00447   0.00000   0.00469   0.00469   2.64104
   R12        2.64126   0.00632   0.00000   0.01602   0.01597   2.65722
   R13        2.75956  -0.00223   0.00000  -0.00827  -0.00827   2.75128
   R14        1.92114  -0.00392   0.00000  -0.00808  -0.00808   1.91306
   R15        2.90003   0.00163   0.00000   0.00802   0.00802   2.90805
   R16        2.07392  -0.00139   0.00000  -0.00537  -0.00537   2.06855
   R17        2.07011  -0.00101   0.00000  -0.00258  -0.00258   2.06753
   R18        2.70509  -0.00119   0.00000  -0.01178  -0.01178   2.69331
   R19        2.07041   0.00021   0.00000   0.00014   0.00014   2.07056
   R20        2.07169   0.00130   0.00000   0.00510   0.00510   2.07679
   R21        2.70922   0.00052   0.00000  -0.01237  -0.01237   2.69685
   R22        2.89241  -0.00430   0.00000  -0.01791  -0.01791   2.87450
   R23        2.07044   0.00329   0.00000   0.01080   0.01080   2.08123
   R24        2.06935   0.00140   0.00000   0.00682   0.00682   2.07617
   R25        2.70453  -0.00062   0.00000  -0.00831  -0.00831   2.69622
   R26        2.06899  -0.00028   0.00000  -0.00088  -0.00088   2.06811
   R27        2.06839   0.00126   0.00000   0.00534   0.00534   2.07373
   R28        2.70122  -0.00191   0.00000  -0.00021  -0.00021   2.70101
   R29        2.90776  -0.00653   0.00000  -0.01573  -0.01573   2.89203
   R30        2.07148   0.00022   0.00000  -0.00330  -0.00330   2.06817
   R31        2.06727   0.00066   0.00000   0.00182   0.00182   2.06909
   R32        2.76391  -0.00176   0.00000  -0.02025  -0.02025   2.74366
   R33        2.07230   0.00268   0.00000   0.00519   0.00519   2.07749
   R34        2.06943   0.00062   0.00000   0.00861   0.00861   2.07804
   R35        2.62921   0.00103   0.00000  -0.02129  -0.02129   2.60792
   R36        1.92126  -0.00443   0.00000  -0.01454  -0.01454   1.90672
   R37        2.64140   0.00699   0.00000   0.02161   0.02159   2.66299
   R38        2.64611   0.00795   0.00000   0.01985   0.01980   2.66591
   R39        2.64633  -0.00225   0.00000  -0.00931  -0.00929   2.63704
   R40        2.05225  -0.00019   0.00000  -0.00168  -0.00168   2.05056
   R41        2.63931   0.00332   0.00000   0.00630   0.00634   2.64565
   R42        2.05620  -0.00096   0.00000  -0.00028  -0.00028   2.05592
   R43        2.83226   0.01128   0.00000   0.02286   0.02286   2.85513
   R44        2.63857   0.00618   0.00000   0.01323   0.01325   2.65183
   R45        2.06671   0.00212   0.00000   0.00756   0.00756   2.07427
   R46        2.06870  -0.00025   0.00000  -0.00053  -0.00053   2.06817
   R47        2.06872  -0.00001   0.00000   0.00045   0.00045   2.06918
   R48        2.64295  -0.00447   0.00000  -0.01457  -0.01458   2.62836
   R49        2.05425  -0.00025   0.00000   0.00134   0.00134   2.05560
   R50        2.05580   0.00014   0.00000  -0.00047  -0.00047   2.05533
   R51        2.64702  -0.00203   0.00000  -0.00764  -0.00763   2.63940
   R52        2.04904   0.00065   0.00000   0.00024   0.00024   2.04928
   R53        2.05418  -0.00039   0.00000   0.00110   0.00110   2.05528
    A1        1.94296  -0.00004   0.00000  -0.00061  -0.00067   1.94229
    A2        1.92984   0.00259   0.00000   0.01556   0.01546   1.94530
    A3        1.92009   0.00513   0.00000   0.02843   0.02837   1.94846
    A4        1.87212  -0.00028   0.00000   0.00936   0.00926   1.88138
    A5        1.89335  -0.00298   0.00000  -0.01924  -0.01925   1.87410
    A6        1.90426  -0.00479   0.00000  -0.03562  -0.03571   1.86855
    A7        2.10107   0.00323   0.00000   0.01536   0.01533   2.11641
    A8        2.11200   0.00301   0.00000   0.01218   0.01216   2.12416
    A9        2.06988  -0.00624   0.00000  -0.02748  -0.02744   2.04244
   A10        2.10138   0.00496   0.00000   0.02213   0.02208   2.12346
   A11        2.10073  -0.00285   0.00000  -0.01506  -0.01505   2.08568
   A12        2.08101  -0.00211   0.00000  -0.00698  -0.00697   2.07404
   A13        2.12228  -0.00176   0.00000  -0.00892  -0.00908   2.11320
   A14        2.06613   0.00311   0.00000   0.02230   0.02237   2.08850
   A15        2.09477  -0.00135   0.00000  -0.01337  -0.01330   2.08148
   A16        2.06937   0.00294   0.00000   0.01089   0.01083   2.08020
   A17        2.04831   0.00020   0.00000   0.00411   0.00372   2.05203
   A18        2.16073  -0.00302   0.00000  -0.01180  -0.01188   2.14884
   A19        2.12430   0.00281   0.00000   0.01707   0.01692   2.14122
   A20        1.96861  -0.00002   0.00000   0.00457   0.00441   1.97302
   A21        1.97858  -0.00215   0.00000  -0.00265  -0.00285   1.97573
   A22        1.96527   0.00713   0.00000   0.02019   0.02004   1.98532
   A23        1.88313  -0.00168   0.00000  -0.00078  -0.00095   1.88217
   A24        1.94615  -0.00493   0.00000  -0.03495  -0.03499   1.91116
   A25        1.88979  -0.00185   0.00000   0.00686   0.00677   1.89656
   A26        1.95008  -0.00189   0.00000  -0.01906  -0.01910   1.93098
   A27        1.82155   0.00292   0.00000   0.03052   0.03064   1.85219
   A28        1.93873   0.00576   0.00000   0.02290   0.02293   1.96166
   A29        1.90341  -0.00097   0.00000   0.00212   0.00206   1.90547
   A30        1.95648  -0.00355   0.00000  -0.03013  -0.03008   1.92640
   A31        1.86573  -0.00203   0.00000  -0.00676  -0.00686   1.85887
   A32        1.93059  -0.00112   0.00000  -0.00097  -0.00082   1.92977
   A33        1.86493   0.00179   0.00000   0.01357   0.01355   1.87847
   A34        1.96109   0.00670   0.00000   0.02589   0.02589   1.98698
   A35        1.91746  -0.00080   0.00000   0.00005   0.00008   1.91754
   A36        1.88388   0.00212   0.00000   0.02866   0.02862   1.91250
   A37        1.92136   0.00277   0.00000   0.02111   0.02112   1.94247
   A38        1.90550  -0.00030   0.00000  -0.00569  -0.00591   1.89959
   A39        1.92276  -0.00267   0.00000  -0.01826  -0.01840   1.90436
   A40        1.91240  -0.00105   0.00000  -0.02527  -0.02576   1.88665
   A41        1.96981   0.00966   0.00000   0.02864   0.02872   1.99852
   A42        1.88981  -0.00114   0.00000  -0.00096  -0.00112   1.88868
   A43        1.95311  -0.00661   0.00000  -0.03948  -0.03952   1.91359
   A44        1.83985  -0.00381   0.00000  -0.00616  -0.00624   1.83361
   A45        1.93163  -0.00041   0.00000   0.01080   0.01109   1.94271
   A46        1.87298   0.00214   0.00000   0.00815   0.00793   1.88091
   A47        2.01988   0.00514   0.00000   0.01196   0.01196   2.03184
   A48        2.00353  -0.00004   0.00000  -0.02665  -0.02696   1.97657
   A49        1.84558  -0.00272   0.00000  -0.02423  -0.02423   1.82135
   A50        1.92663   0.00371   0.00000   0.02066   0.02013   1.94676
   A51        1.89167   0.00216   0.00000   0.01833   0.01816   1.90983
   A52        1.93604  -0.00535   0.00000  -0.02655  -0.02666   1.90938
   A53        1.85155   0.00262   0.00000   0.04492   0.04509   1.89663
   A54        1.93044  -0.00131   0.00000  -0.01022  -0.01021   1.92023
   A55        1.88114  -0.00084   0.00000  -0.00712  -0.00713   1.87400
   A56        1.92618   0.00010   0.00000  -0.00063  -0.00067   1.92551
   A57        1.93362   0.00227   0.00000   0.00764   0.00756   1.94119
   A58        1.90632   0.00112   0.00000   0.03164   0.03162   1.93794
   A59        1.88563  -0.00136   0.00000  -0.02219  -0.02235   1.86328
   A60        2.10998   0.00085   0.00000   0.05394   0.04517   2.15515
   A61        1.98496   0.00017   0.00000   0.03279   0.02326   2.00823
   A62        1.99548  -0.00073   0.00000   0.05342   0.04440   2.03988
   A63        2.15440  -0.00531   0.00000  -0.02527  -0.02555   2.12885
   A64        2.07372   0.00524   0.00000   0.02534   0.02514   2.09886
   A65        2.05089   0.00019   0.00000   0.00374   0.00335   2.05424
   A66        2.11663  -0.00278   0.00000  -0.01296  -0.01301   2.10362
   A67        2.10721  -0.00066   0.00000  -0.01174  -0.01174   2.09548
   A68        2.05929   0.00344   0.00000   0.02460   0.02459   2.08388
   A69        2.10488   0.00566   0.00000   0.02495   0.02498   2.12986
   A70        2.07839  -0.00234   0.00000  -0.00814  -0.00815   2.07024
   A71        2.09985  -0.00332   0.00000  -0.01680  -0.01682   2.08303
   A72        2.10411   0.00306   0.00000   0.01550   0.01547   2.11957
   A73        2.07072  -0.00601   0.00000  -0.02745  -0.02742   2.04330
   A74        2.10787   0.00296   0.00000   0.01220   0.01217   2.12004
   A75        1.92026   0.00515   0.00000   0.03018   0.03010   1.95036
   A76        1.93747   0.00102   0.00000   0.00567   0.00556   1.94303
   A77        1.93279   0.00204   0.00000   0.01213   0.01200   1.94479
   A78        1.89743  -0.00373   0.00000  -0.02604  -0.02609   1.87134
   A79        1.90147  -0.00439   0.00000  -0.03214  -0.03223   1.86924
   A80        1.87327  -0.00046   0.00000   0.00804   0.00791   1.88117
   A81        2.10048   0.00524   0.00000   0.02550   0.02546   2.12594
   A82        2.10433  -0.00356   0.00000  -0.02076  -0.02076   2.08357
   A83        2.07835  -0.00169   0.00000  -0.00467  -0.00467   2.07367
   A84        2.12159  -0.00226   0.00000  -0.01222  -0.01233   2.10926
   A85        2.09360  -0.00091   0.00000  -0.01090  -0.01086   2.08274
   A86        2.06799   0.00317   0.00000   0.02314   0.02319   2.09118
   A87        2.11772  -0.00266   0.00000  -0.01323  -0.01336   2.10435
   A88        2.11381  -0.00089   0.00000  -0.00897  -0.00890   2.10490
   A89        2.05165   0.00355   0.00000   0.02219   0.02226   2.07391
   A90        2.10558   0.00555   0.00000   0.02527   0.02524   2.13082
   A91        2.10022  -0.00331   0.00000  -0.01702  -0.01704   2.08317
   A92        2.07727  -0.00224   0.00000  -0.00806  -0.00808   2.06919
    D1        2.84183   0.00059   0.00000   0.00492   0.00494   2.84677
    D2       -0.32330   0.00053   0.00000   0.00739   0.00744  -0.31585
    D3        0.76261  -0.00074   0.00000  -0.01662  -0.01665   0.74596
    D4       -2.40251  -0.00080   0.00000  -0.01416  -0.01414  -2.41666
    D5       -1.34195   0.00024   0.00000  -0.00073  -0.00078  -1.34273
    D6        1.77611   0.00018   0.00000   0.00174   0.00173   1.77784
    D7        3.12626  -0.00031   0.00000  -0.00537  -0.00535   3.12090
    D8       -0.02780  -0.00003   0.00000   0.00330   0.00330  -0.02450
    D9        0.00763  -0.00037   0.00000  -0.00829  -0.00825  -0.00061
   D10        3.13676  -0.00009   0.00000   0.00038   0.00041   3.13717
   D11       -3.12719   0.00044   0.00000   0.00735   0.00737  -3.11982
   D12        0.03079  -0.00016   0.00000  -0.00677  -0.00671   0.02408
   D13       -0.00871   0.00050   0.00000   0.01033   0.01031   0.00160
   D14       -3.13392  -0.00010   0.00000  -0.00379  -0.00377  -3.13768
   D15       -0.03016   0.00068   0.00000   0.02297   0.02304  -0.00712
   D16        3.11226   0.00048   0.00000   0.01678   0.01679   3.12904
   D17        3.12376   0.00041   0.00000   0.01445   0.01449   3.13825
   D18       -0.01701   0.00020   0.00000   0.00826   0.00824  -0.00877
   D19        3.09237  -0.00005   0.00000  -0.00518  -0.00497   3.08740
   D20        0.05163  -0.00110   0.00000  -0.03810  -0.03819   0.01344
   D21       -0.05006   0.00015   0.00000   0.00113   0.00127  -0.04879
   D22       -3.09080  -0.00089   0.00000  -0.03180  -0.03195  -3.12274
   D23        2.86016  -0.00110   0.00000  -0.03562  -0.03552   2.82464
   D24        0.41781  -0.00106   0.00000  -0.06115  -0.06117   0.35663
   D25       -0.38925   0.00025   0.00000   0.00068   0.00070  -0.38855
   D26       -2.83161   0.00029   0.00000  -0.02485  -0.02494  -2.85655
   D27       -0.05256   0.00126   0.00000   0.04023   0.04015  -0.01241
   D28        3.08378   0.00122   0.00000   0.03843   0.03837   3.12215
   D29       -3.08754  -0.00023   0.00000   0.00392   0.00404  -3.08349
   D30        0.04880  -0.00027   0.00000   0.00213   0.00226   0.05107
   D31       -1.25315   0.00029   0.00000   0.00664   0.00663  -1.24651
   D32        2.94556  -0.00062   0.00000  -0.01358  -0.01361   2.93195
   D33        0.95505  -0.00054   0.00000  -0.03119  -0.03115   0.92390
   D34        1.18562   0.00103   0.00000   0.03496   0.03494   1.22057
   D35       -0.89886   0.00012   0.00000   0.01473   0.01470  -0.88416
   D36       -2.88937   0.00020   0.00000  -0.00288  -0.00284  -2.89221
   D37       -3.07643  -0.00120   0.00000  -0.04734  -0.04745  -3.12389
   D38       -1.02454  -0.00087   0.00000  -0.04079  -0.04081  -1.06535
   D39        1.03702  -0.00144   0.00000  -0.04094  -0.04093   0.99609
   D40       -0.99582  -0.00016   0.00000  -0.03143  -0.03144  -1.02726
   D41        1.05607   0.00017   0.00000  -0.02488  -0.02479   1.03128
   D42        3.11763  -0.00040   0.00000  -0.02503  -0.02492   3.09272
   D43        1.00067   0.00125   0.00000  -0.00096  -0.00106   0.99961
   D44        3.05256   0.00158   0.00000   0.00559   0.00559   3.05815
   D45       -1.16907   0.00101   0.00000   0.00544   0.00546  -1.16360
   D46       -1.55044   0.00073   0.00000   0.04026   0.04023  -1.51021
   D47        2.65806  -0.00008   0.00000   0.02900   0.02901   2.68707
   D48        0.63390  -0.00048   0.00000   0.01720   0.01723   0.65113
   D49        3.06544   0.00004   0.00000   0.05033   0.05026   3.11570
   D50       -1.14167   0.00048   0.00000   0.06046   0.06042  -1.08125
   D51        0.94501   0.00209   0.00000   0.05938   0.05948   1.00449
   D52       -1.47024  -0.00011   0.00000   0.05124   0.05135  -1.41889
   D53        2.78313  -0.00028   0.00000   0.04290   0.04295   2.82608
   D54        0.72235   0.00170   0.00000   0.05674   0.05659   0.77894
   D55        2.75019  -0.00203   0.00000   0.01977   0.02000   2.77019
   D56        0.72038  -0.00220   0.00000   0.01143   0.01160   0.73198
   D57       -1.34040  -0.00022   0.00000   0.02528   0.02524  -1.31516
   D58        0.64935   0.00109   0.00000   0.06576   0.06576   0.71511
   D59       -1.38046   0.00093   0.00000   0.05743   0.05735  -1.32310
   D60        2.84195   0.00291   0.00000   0.07127   0.07099   2.91294
   D61        1.21231  -0.00036   0.00000   0.06980   0.06991   1.28222
   D62       -3.01155   0.00107   0.00000   0.08015   0.08018  -2.93138
   D63       -0.99182   0.00128   0.00000   0.09159   0.09146  -0.90036
   D64        1.10025  -0.00168   0.00000   0.02697   0.02654   1.12679
   D65       -3.09869  -0.00088   0.00000   0.01756   0.01784  -3.08085
   D66       -1.10337   0.00250   0.00000   0.06696   0.06710  -1.03627
   D67        0.89523  -0.00132   0.00000  -0.14299  -0.14323   0.75200
   D68        3.01146   0.00013   0.00000  -0.14430  -0.14452   2.86693
   D69       -1.21630  -0.00194   0.00000  -0.17556  -0.17575  -1.39204
   D70       -1.16315   0.00062   0.00000  -0.10861  -0.10863  -1.27177
   D71        0.95307   0.00208   0.00000  -0.10992  -0.10992   0.84315
   D72        3.00851   0.00001   0.00000  -0.14118  -0.14114   2.86736
   D73        3.09399  -0.00083   0.00000  -0.15882  -0.15863   2.93535
   D74       -1.07298   0.00063   0.00000  -0.16013  -0.15993  -1.23291
   D75        0.98246  -0.00144   0.00000  -0.19139  -0.19115   0.79131
   D76        2.80295  -0.00006   0.00000  -0.21240  -0.21223   2.59072
   D77        0.32539  -0.00020   0.00000  -0.44291  -0.44313  -0.11774
   D78        0.71810   0.00037   0.00000  -0.20181  -0.20157   0.51653
   D79       -1.75947   0.00023   0.00000  -0.43232  -0.43247  -2.19193
[...]
   293    C   20  py     Ryd( 3p)     0.00193
   294    C   20  pz     Val( 2p)     1.24179
   295    C   20  pz     Ryd( 3p)     0.00104
   296    C   20  dxy    Ryd( 3d)     0.00033
   297    C   20  dxz    Ryd( 3d)     0.00076
   298    C   20  dyz    Ryd( 3d)     0.00060
   299    C   20  dx2y2  Ryd( 3d)     0.00079
   300    C   20  dz2    Ryd( 3d)     0.00036

   301    C   21  S      Cor( 1S)     1.99905
   302    C   21  S      Val( 2S)     0.95126
   303    C   21  S      Ryd( 3S)     0.00061
   304    C   21  S      Ryd( 4S)     0.00005
   305    C   21  px     Val( 2p)     1.09396
   306    C   21  px     Ryd( 3p)     0.00376
   307    C   21  py     Val( 2p)     1.13115
   308    C   21  py     Ryd( 3p)     0.00371
   309    C   21  pz     Val( 2p)     1.04034
   310    C   21  pz     Ryd( 3p)     0.00187
   311    C   21  dxy    Ryd( 3d)     0.00068
   312    C   21  dxz    Ryd( 3d)     0.00053
   313    C   21  dyz    Ryd( 3d)     0.00043
   314    C   21  dx2y2  Ryd( 3d)     0.00053
   315    C   21  dz2    Ryd( 3d)     0.00049

   316    C   22  S      Cor( 1S)     1.99906
   317    C   22  S      Val( 2S)     0.95223
   318    C   22  S      Ryd( 3S)     0.00068
   319    C   22  S      Ryd( 4S)     0.00004
   320    C   22  px     Val( 2p)     1.09597
   321    C   22  px     Ryd( 3p)     0.00403
   322    C   22  py     Val( 2p)     1.11264
   323    C   22  py     Ryd( 3p)     0.00342
   324    C   22  pz     Val( 2p)     1.10889
   325    C   22  pz     Ryd( 3p)     0.00210
   326    C   22  dxy    Ryd( 3d)     0.00060
   327    C   22  dxz    Ryd( 3d)     0.00056
   328    C   22  dyz    Ryd( 3d)     0.00047
   329    C   22  dx2y2  Ryd( 3d)     0.00050
   330    C   22  dz2    Ryd( 3d)     0.00034

   331    C   23  S      Cor( 1S)     1.99907
   332    C   23  S      Val( 2S)     0.94288
   333    C   23  S      Ryd( 3S)     0.00070
   334    C   23  S      Ryd( 4S)     0.00004
   335    C   23  px     Val( 2p)     1.17702
   336    C   23  px     Ryd( 3p)     0.00382
   337    C   23  py     Val( 2p)     1.06701
   338    C   23  py     Ryd( 3p)     0.00491
   339    C   23  pz     Val( 2p)     1.15813
   340    C   23  pz     Ryd( 3p)     0.00762
   341    C   23  dxy    Ryd( 3d)     0.00054
   342    C   23  dxz    Ryd( 3d)     0.00046
   343    C   23  dyz    Ryd( 3d)     0.00050
   344    C   23  dx2y2  Ryd( 3d)     0.00069
   345    C   23  dz2    Ryd( 3d)     0.00039

   346    C   24  S      Cor( 1S)     1.99907
   347    C   24  S      Val( 2S)     0.94199
   348    C   24  S      Ryd( 3S)     0.00068
   349    C   24  S      Ryd( 4S)     0.00004
   350    C   24  px     Val( 2p)     1.05978
   351    C   24  px     Ryd( 3p)     0.00485
   352    C   24  py     Val( 2p)     1.18730
   353    C   24  py     Ryd( 3p)     0.00459
   354    C   24  pz     Val( 2p)     1.13406
   355    C   24  pz     Ryd( 3p)     0.00614
   356    C   24  dxy    Ryd( 3d)     0.00062
   357    C   24  dxz    Ryd( 3d)     0.00052
   358    C   24  dyz    Ryd( 3d)     0.00036
   359    C   24  dx2y2  Ryd( 3d)     0.00069
   360    C   24  dz2    Ryd( 3d)     0.00039

   361    H   25  S      Val( 1S)     0.75620
   362    H   25  S      Ryd( 2S)     0.00098
   363    H   25  px     Ryd( 2p)     0.00008
   364    H   25  py     Ryd( 2p)     0.00032
   365    H   25  pz     Ryd( 2p)     0.00010

   366    H   26  S      Val( 1S)     0.74955
   367    H   26  S      Ryd( 2S)     0.00180
   368    H   26  px     Ryd( 2p)     0.00026
   369    H   26  py     Ryd( 2p)     0.00011
   370    H   26  pz     Ryd( 2p)     0.00016

   371    H   27  S      Val( 1S)     0.74495
   372    H   27  S      Ryd( 2S)     0.00127
   373    H   27  px     Ryd( 2p)     0.00011
   374    H   27  py     Ryd( 2p)     0.00010
   375    H   27  pz     Ryd( 2p)     0.00033

   376    H   28  S      Val( 1S)     0.77363
   377    H   28  S      Ryd( 2S)     0.00095
   378    H   28  px     Ryd( 2p)     0.00033
   379    H   28  py     Ryd( 2p)     0.00011
   380    H   28  pz     Ryd( 2p)     0.00023

   381    H   29  S      Val( 1S)     0.77166
   382    H   29  S      Ryd( 2S)     0.00117
   383    H   29  px     Ryd( 2p)     0.00007
   384    H   29  py     Ryd( 2p)     0.00039
   385    H   29  pz     Ryd( 2p)     0.00022

   386    H   30  S      Val( 1S)     0.55581
   387    H   30  S      Ryd( 2S)     0.00229
   388    H   30  px     Ryd( 2p)     0.00018
   389    H   30  py     Ryd( 2p)     0.00059
   390    H   30  pz     Ryd( 2p)     0.00042

   391    H   31  S      Val( 1S)     0.73259
   392    H   31  S      Ryd( 2S)     0.00177
   393    H   31  px     Ryd( 2p)     0.00016
   394    H   31  py     Ryd( 2p)     0.00022
   395    H   31  pz     Ryd( 2p)     0.00014

   396    H   32  S      Val( 1S)     0.74387
   397    H   32  S      Ryd( 2S)     0.00146
   398    H   32  px     Ryd( 2p)     0.00008
   399    H   32  py     Ryd( 2p)     0.00027
   400    H   32  pz     Ryd( 2p)     0.00021

   401    H   33  S      Val( 1S)     0.76053
   402    H   33  S      Ryd( 2S)     0.00129
   403    H   33  px     Ryd( 2p)     0.00005
   404    H   33  py     Ryd( 2p)     0.00032
   405    H   33  pz     Ryd( 2p)     0.00020

   406    H   34  S      Val( 1S)     0.77722
   407    H   34  S      Ryd( 2S)     0.00367
   408    H   34  px     Ryd( 2p)     0.00015
   409    H   34  py     Ryd( 2p)     0.00024
   410    H   34  pz     Ryd( 2p)     0.00019

   411    H   35  S      Val( 1S)     0.77804
   412    H   35  S      Ryd( 2S)     0.00224
   413    H   35  px     Ryd( 2p)     0.00016
   414    H   35  py     Ryd( 2p)     0.00015
   415    H   35  pz     Ryd( 2p)     0.00028

   416    H   36  S      Val( 1S)     0.78221
   417    H   36  S      Ryd( 2S)     0.00254
   418    H   36  px     Ryd( 2p)     0.00016
   419    H   36  py     Ryd( 2p)     0.00009
   420    H   36  pz     Ryd( 2p)     0.00034

   421    H   37  S      Val( 1S)     0.75691
   422    H   37  S      Ryd( 2S)     0.00097
   423    H   37  px     Ryd( 2p)     0.00011
   424    H   37  py     Ryd( 2p)     0.00040
   425    H   37  pz     Ryd( 2p)     0.00006

   426    H   38  S      Val( 1S)     0.77985
   427    H   38  S      Ryd( 2S)     0.00232
   428    H   38  px     Ryd( 2p)     0.00018
   429    H   38  py     Ryd( 2p)     0.00013
   430    H   38  pz     Ryd( 2p)     0.00028

   431    H   39  S      Val( 1S)     0.76625
   432    H   39  S      Ryd( 2S)     0.00178
   433    H   39  px     Ryd( 2p)     0.00009
   434    H   39  py     Ryd( 2p)     0.00008
   435    H   39  pz     Ryd( 2p)     0.00039

   436    H   40  S      Val( 1S)     0.76409
   437    H   40  S      Ryd( 2S)     0.00195
   438    H   40  px     Ryd( 2p)     0.00030
   439    H   40  py     Ryd( 2p)     0.00015
   440    H   40  pz     Ryd( 2p)     0.00017

   441    H   41  S      Val( 1S)     0.75503
   442    H   41  S      Ryd( 2S)     0.00164
   443    H   41  px     Ryd( 2p)     0.00012
   444    H   41  py     Ryd( 2p)     0.00036
   445    H   41  pz     Ryd( 2p)     0.00008

   446    H   42  S      Val( 1S)     0.78013
   447    H   42  S      Ryd( 2S)     0.00256
   448    H   42  px     Ryd( 2p)     0.00009
   449    H   42  py     Ryd( 2p)     0.00009
   450    H   42  pz     Ryd( 2p)     0.00037

   451    H   43  S      Val( 1S)     0.57756
   452    H   43  S      Ryd( 2S)     0.00371
   453    H   43  px     Ryd( 2p)     0.00032
   454    H   43  py     Ryd( 2p)     0.00053
   455    H   43  pz     Ryd( 2p)     0.00044

   456    H   44  S      Val( 1S)     0.75535
   457    H   44  S      Ryd( 2S)     0.00083
   458    H   44  px     Ryd( 2p)     0.00015
   459    H   44  py     Ryd( 2p)     0.00030
   460    H   44  pz     Ryd( 2p)     0.00016

   461    H   45  S      Val( 1S)     0.75888
   462    H   45  S      Ryd( 2S)     0.00097
   463    H   45  px     Ryd( 2p)     0.00013
   464    H   45  py     Ryd( 2p)     0.00024
   465    H   45  pz     Ryd( 2p)     0.00023

   466    H   46  S      Val( 1S)     0.75453
   467    H   46  S      Ryd( 2S)     0.00098
   468    H   46  px     Ryd( 2p)     0.00018
   469    H   46  py     Ryd( 2p)     0.00010
   470    H   46  pz     Ryd( 2p)     0.00026

   471    H   47  S      Val( 1S)     0.75507
   472    H   47  S      Ryd( 2S)     0.00093
   473    H   47  px     Ryd( 2p)     0.00010
   474    H   47  py     Ryd( 2p)     0.00030
   475    H   47  pz     Ryd( 2p)     0.00012

   476    H   48  S      Val( 1S)     0.75742
   477    H   48  S      Ryd( 2S)     0.00080
   478    H   48  px     Ryd( 2p)     0.00010
   479    H   48  py     Ryd( 2p)     0.00019
   480    H   48  pz     Ryd( 2p)     0.00021

   481    H   49  S      Val( 1S)     0.75784
   482    H   49  S      Ryd( 2S)     0.00096
   483    H   49  px     Ryd( 2p)     0.00016
   484    H   49  py     Ryd( 2p)     0.00030
   485    H   49  pz     Ryd( 2p)     0.00014

   486    H   50  S      Val( 1S)     0.75753
   487    H   50  S      Ryd( 2S)     0.00097
   488    H   50  px     Ryd( 2p)     0.00012
   489    H   50  py     Ryd( 2p)     0.00024
   490    H   50  pz     Ryd( 2p)     0.00023

   491    H   51  S      Val( 1S)     0.76850
   492    H   51  S      Ryd( 2S)     0.00108
   493    H   51  px     Ryd( 2p)     0.00032
   494    H   51  py     Ryd( 2p)     0.00013
   495    H   51  pz     Ryd( 2p)     0.00024

   496    H   52  S      Val( 1S)     0.77198
   497    H   52  S      Ryd( 2S)     0.00101
   498    H   52  px     Ryd( 2p)     0.00007
   499    H   52  py     Ryd( 2p)     0.00039
   500    H   52  pz     Ryd( 2p)     0.00019

 WARNING:  1 low occupancy (<1.9990e) core orbital  found on  C    5


 Summary of Natural Population Analysis:                  
                                                          
                                       Natural Population 
                Natural  -----------------------------------------------
    Atom  No    Charge         Core      Valence    Rydberg      Total
 -----------------------------------------------------------------------
      C    1   -0.70888      1.99939     4.70227    0.00723     6.70888
      C    2    0.04852      1.99903     3.93739    0.01506     5.95148
      C    3   -0.36329      1.99906     4.34504    0.01918     6.36329
      C    4   -0.35031      1.99908     4.33135    0.01989     6.35031
      C    5    0.16359      1.99898     3.81786    0.01957     5.83641
      N    6   -0.44565      1.99940     5.43533    0.01092     7.44565
      C    7   -0.31378      1.99931     4.29682    0.01764     6.31378
      C    8   -0.11576      1.99926     4.09812    0.01839     6.11576
      O    9   -0.58813      1.99979     6.57577    0.01256     8.58813
      C   10   -0.13939      1.99925     4.12400    0.01614     6.13939
      C   11   -0.13403      1.99924     4.11481    0.01998     6.13403
      O   12   -0.60969      1.99981     6.59759    0.01230     8.60969
      C   13   -0.12366      1.99925     4.10439    0.02002     6.12366
      C   14   -0.29847      1.99933     4.28524    0.01390     6.29847
      N   15   -0.65705      1.99941     5.64455    0.01309     7.65705
      C   16    0.16553      1.99901     3.81776    0.01769     5.83447
      C   17   -0.30519      1.99905     4.29407    0.01206     6.30519
      C   18   -0.22753      1.99905     4.21569    0.01279     6.22753
      C   19   -0.07663      1.99902     4.06349    0.01412     6.07663
      C   20   -0.69979      1.99940     4.69352    0.00686     6.69979
      C   21   -0.22841      1.99905     4.21671    0.01266     6.22841
      C   22   -0.28152      1.99906     4.26973    0.01274     6.28152
      C   23   -0.36377      1.99907     4.34503    0.01967     6.36377
      C   24   -0.34106      1.99907     4.32314    0.01886     6.34106
      H   25    0.24233      0.00000     0.75620    0.00147     0.75767
      H   26    0.24812      0.00000     0.74955    0.00233     0.75188
      H   27    0.25324      0.00000     0.74495    0.00181     0.74676
      H   28    0.22475      0.00000     0.77363    0.00162     0.77525
      H   29    0.22649      0.00000     0.77166    0.00184     0.77351
      H   30    0.44072      0.00000     0.55581    0.00348     0.55928
      H   31    0.26512      0.00000     0.73259    0.00229     0.73488
      H   32    0.25412      0.00000     0.74387    0.00201     0.74588
      H   33    0.23761      0.00000     0.76053    0.00186     0.76239
      H   34    0.21852      0.00000     0.77722    0.00426     0.78148
      H   35    0.21913      0.00000     0.77804    0.00283     0.78087
      H   36    0.21465      0.00000     0.78221    0.00313     0.78535
      H   37    0.24154      0.00000     0.75691    0.00154     0.75846
      H   38    0.21725      0.00000     0.77985    0.00290     0.78275
      H   39    0.23141      0.00000     0.76625    0.00234     0.76859
      H   40    0.23336      0.00000     0.76409    0.00256     0.76664
      H   41    0.24276      0.00000     0.75503    0.00221     0.75724
      H   42    0.21675      0.00000     0.78013    0.00312     0.78325
      H   43    0.41744      0.00000     0.57756    0.00500     0.58256
      H   44    0.24321      0.00000     0.75535    0.00144     0.75679
      H   45    0.23955      0.00000     0.75888    0.00157     0.76045
      H   46    0.24395      0.00000     0.75453    0.00152     0.75605
      H   47    0.24346      0.00000     0.75507    0.00146     0.75654
      H   48    0.24129      0.00000     0.75742    0.00130     0.75871
      H   49    0.24059      0.00000     0.75784    0.00157     0.75941
      H   50    0.24091      0.00000     0.75753    0.00156     0.75909
      H   51    0.22974      0.00000     0.76850    0.00177     0.77026
      H   52    0.22637      0.00000     0.77198    0.00166     0.77363
 =======================================================================
   * Total *    0.00000     47.98138   129.59284    0.42578   178.00000

                                 Natural Population      
 --------------------------------------------------------
   Core                      47.98138 ( 99.9612% of  48)
   Valence                  129.59284 ( 99.6868% of 130)
   Natural Minimal Basis    177.57422 ( 99.7608% of 178)
   Natural Rydberg Basis      0.42578 (  0.2392% of 178)
 --------------------------------------------------------

    Atom  No          Natural Electron Configuration
 ----------------------------------------------------------------------------
      C    1      [core]2S( 1.10)2p( 3.60)
      C    2      [core]2S( 0.89)2p( 3.04)3p( 0.01)
      C    3      [core]2S( 0.94)2p( 3.41)3p( 0.02)
      C    4      [core]2S( 0.94)2p( 3.39)3p( 0.02)
      C    5      [core]2S( 0.85)2p( 2.97)3p( 0.01)3d( 0.01)
      N    6      [core]2S( 1.28)2p( 4.16)3p( 0.01)
      C    7      [core]2S( 1.04)2p( 3.26)3p( 0.01)
      C    8      [core]2S( 1.04)2p( 3.06)3p( 0.01)3d( 0.01)
      O    9      [core]2S( 1.62)2p( 4.95)3p( 0.01)
      C   10      [core]2S( 1.04)2p( 3.09)3p( 0.01)3d( 0.01)
      C   11      [core]2S( 1.03)2p( 3.09)3p( 0.01)3d( 0.01)
      O   12      [core]2S( 1.62)2p( 4.97)3p( 0.01)
      C   13      [core]2S( 1.03)2p( 3.08)3p( 0.01)3d( 0.01)
      C   14      [core]2S( 1.03)2p( 3.26)3p( 0.01)
      N   15      [core]2S( 1.27)2p( 4.37)3p( 0.01)
      C   16      [core]2S( 0.84)2p( 2.98)3p( 0.01)
      C   17      [core]2S( 0.95)2p( 3.34)3p( 0.01)
      C   18      [core]2S( 0.95)2p( 3.26)3p( 0.01)
      C   19      [core]2S( 0.88)2p( 3.18)3p( 0.01)
      C   20      [core]2S( 1.10)2p( 3.60)
      C   21      [core]2S( 0.95)2p( 3.27)3p( 0.01)
      C   22      [core]2S( 0.95)2p( 3.32)3p( 0.01)
      C   23      [core]2S( 0.94)2p( 3.40)3p( 0.02)
      C   24      [core]2S( 0.94)2p( 3.38)3p( 0.02)
      H   25            1S( 0.76)
      H   26            1S( 0.75)
      H   27            1S( 0.74)
      H   28            1S( 0.77)
      H   29            1S( 0.77)
      H   30            1S( 0.56)
      H   31            1S( 0.73)
      H   32            1S( 0.74)
      H   33            1S( 0.76)
      H   34            1S( 0.78)
      H   35            1S( 0.78)
      H   36            1S( 0.78)
      H   37            1S( 0.76)
      H   38            1S( 0.78)
      H   39            1S( 0.77)
      H   40            1S( 0.76)
      H   41            1S( 0.76)
      H   42            1S( 0.78)
      H   43            1S( 0.58)
      H   44            1S( 0.76)
      H   45            1S( 0.76)
      H   46            1S( 0.75)
      H   47            1S( 0.76)
      H   48            1S( 0.76)
      H   49            1S( 0.76)
      H   50            1S( 0.76)
      H   51            1S( 0.77)
      H   52            1S( 0.77)


 NBO analysis skipped by request.
 1\1\GINC-DRG2-W001\SP\RB3LYP TD-FC\6-31G(d,p)\C20H28N2O2\QDUEZ\19-Jul-
 2024\0\\# TD(NStates=10, Root=1) B3LYP/6-31G** SCRF=(Solvent=water) vo
 lume pop=NPA density=current Geom=AllCheck Guess=Read\\RRZROWKVNHGBPP-
 UHFFFAOYSA-N_conf_4\\0,1\C,0,-8.9702850659,-1.5242282387,-0.3821312856
 \C,0,-7.7542580334,-0.6344898032,-0.267234237\C,0,-7.820984777,0.61097
 25182,0.3784767651\C,0,-6.7050752987,1.4296280897,0.5049459137\C,0,-5.
 4535415856,1.0394444281,-0.0177181792\N,0,-4.3741000271,1.9177927149,0
 .0705106147\C,0,-2.9891508278,1.5019265811,-0.0858359768\C,0,-2.452397
 9667,0.668509971,1.0920821854\O,0,-1.0760204832,0.3374231778,0.9340914
 807\C,0,-0.8370451066,-0.8349424826,0.161095225\C,0,0.6610365684,-1.05
 12370607,0.0232366524\O,0,1.2748501557,-0.1195066333,-0.8671528229\C,0
 ,1.7515040988,1.0883004423,-0.2628674217\C,0,3.1480602282,0.9138983774
 ,0.329793328\N,0,4.0493820348,0.4156294436,-0.697351553\C,0,5.36660377
 4,0.0707683869,-0.4016117758\C,0,6.0336424957,0.5333889682,0.746433111
 6\C,0,7.3730575403,0.2019444812,0.9698838095\C,0,8.0986809317,-0.59698
 80029,0.0814360348\C,0,9.5496018258,-0.9425522349,0.324609484\C,0,7.42
 16100165,-1.0623574423,-1.0588711585\C,0,6.0919235848,-0.7405970827,-1
 .3004237928\C,0,-5.3775459789,-0.2078426943,-0.6638906232\C,0,-6.51092
 60662,-1.0158974942,-0.7813244613\H,0,-8.7832598095,-2.3664919278,-1.0
 545072345\H,0,-9.8373518593,-0.9754114467,-0.7667385473\H,0,-9.2634300
 272,-1.9393762545,0.5903834419\H,0,-8.7682185414,0.9481262016,0.793831
 4012\H,0,-6.7935984063,2.389668778,1.0084189472\H,0,-4.5052852072,2.65
 80545465,0.7472289559\H,0,-2.3762758132,2.4032432901,-0.1828590812\H,0
 ,-2.8807181693,0.950934507,-1.0252047478\H,0,-2.526120868,1.2584582265
 ,2.0120739882\H,0,-3.0562166429,-0.2397110578,1.2278416756\H,0,-1.2831
 300794,-1.7128119386,0.6559432176\H,0,-1.2802787056,-0.7523329023,-0.8
 413238076\H,0,0.8278327022,-2.0463289783,-0.4025166217\H,0,1.130779300
 2,-1.0262937612,1.0150754244\H,0,1.7903037976,1.8243553867,-1.07245639
 04\H,0,1.054132941,1.4451172019,0.5001919022\H,0,3.4872867893,1.893108
 5708,0.6895135522\H,0,3.1128500102,0.2480136886,1.2087829347\H,0,3.580
 8740008,-0.2462709674,-1.305925845\H,0,5.5134821312,1.1519287355,1.469
 7070291\H,0,7.8593924133,0.5757027987,1.8682166578\H,0,10.2097595707,-
 0.4600708753,-0.4070065619\H,0,9.7266273196,-2.0214359616,0.247624944\
 H,0,9.8723524825,-0.6215954431,1.3192095572\H,0,7.9474653553,-1.693279
 6751,-1.7722788348\H,0,5.5967391237,-1.1154802285,-2.1932086637\H,0,-4
 .4389522654,-0.5552941462,-1.0815477829\H,0,-6.4156635806,-1.973514778
 ,-1.2882567697\\Version=ES64L-G16RevA.03\State=1-A\HF=-1038.9725851\RM
 SD=4.290e-09\Dipole=0.585802,0.4815306,0.8931903\Quadrupole=-27.565415
 1,18.2138522,9.3515629,-5.8771416,-2.2343043,5.9198098\PG=C01 [X(C20H2
 8N2O2)]\\@


 A SLIP OF THE FOOT YOU MAY SOON RECOVER, BUT A SLIP OF THE TONGUE
 YOU MAY NEVER GET OVER. -- BEN FRANKLIN
 Job cpu time:       0 days  1 hours 56 minutes 59.9 seconds.
 Elapsed time:       0 days  0 hours 39 minutes  5.7 seconds.
 File lengths (MBytes):  RWF=   1994 Int=      0 D2E=      0 Chk=    122 Scr=      1
 Normal termination of Gaussian 16 at Fri Jul 19 14:58:09 2024.
