 Entering Gaussian System, Link 0=g16
 Initial command:
 /opt/sw/arch/manual/gaussian/G16_A03/g16/l1.exe "/scratch/1381393/Gau-244710.inp" -scrdir="/scratch/1381393/"
 Entering Link 1 = /opt/sw/arch/manual/gaussian/G16_A03/g16/l1.exe PID=    244725.
  
 Copyright (c) 1988,1990,1992,1993,1995,1998,2003,2009,2016,
            Gaussian, Inc.  All Rights Reserved.
  
 This is part of the Gaussian(R) 16 program.  It is based on
 the Gaussian(R) 09 system (copyright 2009, Gaussian, Inc.),
 the Gaussian(R) 03 system (copyright 2003, Gaussian, Inc.),
 the Gaussian(R) 98 system (copyright 1998, Gaussian, Inc.),
 the Gaussian(R) 94 system (copyright 1995, Gaussian, Inc.),
 the Gaussian 92(TM) system (copyright 1992, Gaussian, Inc.),
 the Gaussian 90(TM) system (copyright 1990, Gaussian, Inc.),
 the Gaussian 88(TM) system (copyright 1988, Gaussian, Inc.),
 the Gaussian 86(TM) system (copyright 1986, Carnegie Mellon
 University), and the Gaussian 82(TM) system (copyright 1983,
 Carnegie Mellon University). Gaussian is a federally registered
 trademark of Gaussian, Inc.
  
 This software contains proprietary and confidential information,
 including trade secrets, belonging to Gaussian, Inc.
  
 This software is provided under written license and may be
 used, copied, transmitted, or stored only in accord with that
 written license.
  
 The following legend is applicable only to US Government
 contracts under FAR:
  
                    RESTRICTED RIGHTS LEGEND
  
 Use, reproduction and disclosure by the US Government is
 subject to restrictions as set forth in subparagraphs (a)
 and (c) of the Commercial Computer Software - Restricted
 Rights clause in FAR 52.227-19.
  
 Gaussian, Inc.
 340 Quinnipiac St., Bldg. 40, Wallingford CT 06492
  
  
 ---------------------------------------------------------------
 Warning -- This program may not be used in any manner that
 competes with the business of Gaussian, Inc. or will provide
 assistance to any competitor of Gaussian, Inc.  The licensee
 of this program is prohibited from giving any competitor of
 Gaussian, Inc. access to this program.  By using this program,
 the user acknowledges that Gaussian, Inc. is engaged in the
 business of creating and licensing software in the field of
 computational chemistry and represents and warrants to the
 licensee that it is not a competitor of Gaussian, Inc. and that
 it will not use this program in any manner prohibited above.
 ---------------------------------------------------------------
  

 Cite this work as:
 Gaussian 16, Revision A.03,
 M. J. Frisch, G. W. Trucks, H. B. Schlegel, G. E. Scuseria, 
 M. A. Robb, J. R. Cheeseman, G. Scalmani, V. Barone, 
 G. A. Petersson, H. Nakatsuji, X. Li, M. Caricato, A. V. Marenich, 
 J. Bloino, B. G. Janesko, R. Gomperts, B. Mennucci, H. P. Hratchian, 
 J. V. Ortiz, A. F. Izmaylov, J. L. Sonnenberg, D. Williams-Young, 
 F. Ding, F. Lipparini, F. Egidi, J. Goings, B. Peng, A. Petrone, 
 T. Henderson, D. Ranasinghe, V. G. Zakrzewski, J. Gao, N. Rega, 
 G. Zheng, W. Liang, M. Hada, M. Ehara, K. Toyota, R. Fukuda, 
 J. Hasegawa, M. Ishida, T. Nakajima, Y. Honda, O. Kitao, H. Nakai, 
 T. Vreven, K. Throssell, J. A. Montgomery, Jr., J. E. Peralta, 
 F. Ogliaro, M. J. Bearpark, J. J. Heyd, E. N. Brothers, K. N. Kudin, 
 V. N. Staroverov, T. A. Keith, R. Kobayashi, J. Normand, 
 K. Raghavachari, A. P. Rendell, J. C. Burant, S. S. Iyengar, 
 J. Tomasi, M. Cossi, J. M. Millam, M. Klene, C. Adamo, R. Cammi, 
 J. W. Ochterski, R. L. Martin, K. Morokuma, O. Farkas, 
 J. B. Foresman, and D. J. Fox, Gaussian, Inc., Wallingford CT, 2016.
 
 ******************************************
 Gaussian 16:  ES64L-G16RevA.03 25-Dec-2016
                19-Jul-2024 
 ******************************************
 %nprocshared=8
 Will use up to    8 processors via shared memory.
 %mem=16GB
 %Chk=RRZROWKVNHGBPP-UHFFFAOYSA-N_conf_1_0.chk
 -------------------------------------------------------
 # opt=CalcFc B3LYP/6-31G** SCRF=(Solvent=water) scf=xqc
 -------------------------------------------------------
 1/10=4,18=20,19=15,26=3,38=1/1,3;
 2/9=110,12=2,17=6,18=5,40=1/2;
 3/5=1,6=6,7=101,11=2,25=1,30=1,70=2201,71=2,72=1,74=-5,140=1/1,2,3;
 4//1;
 5/5=2,8=3,13=1,38=5,53=1/2,8;
 8/6=4,10=90,11=11/1;
 11/6=1,8=1,9=11,15=111,16=1/1,2,10;
 10/6=1,13=1/2;
 6/7=2,8=2,9=2,10=2,28=1/1;
 7/10=1,18=20,25=1/1,2,3,16;
 1/10=4,18=20,19=15,26=3/3(2);
 2/9=110/2;
 99//99;
 2/9=110/2;
 3/5=1,6=6,7=101,11=2,25=1,30=1,70=2205,71=1,72=1,74=-5/1,2,3;
 4/5=5,16=3,69=1/1;
 5/5=2,8=3,13=1,38=5,53=1/2,8;
 7//1,2,3,16;
 1/18=20,19=15,26=3/3(-5);
 2/9=110/2;
 6/7=2,8=2,9=2,10=2,19=2,28=1/1;
 99/9=1/99;
 ----------------------------------
 RRZROWKVNHGBPP-UHFFFAOYSA-N_conf_1
 ----------------------------------
 Symbolic Z-matrix:
 Charge =  0 Multiplicity = 1
 C                     7.83957   2.75643  -0.44276 
 C                     6.76699   1.73315  -0.2169 
 C                     6.61133   1.14307   1.03977 
 C                     5.62103   0.1761    1.25738 
 C                     4.78182  -0.24975   0.2231 
 N                     3.72793  -1.15657   0.39451 
 C                     3.73745  -2.07048   1.54148 
 C                     2.50718  -2.99686   1.53164 
 O                     1.36027  -2.37794   2.12522 
 C                     0.57816  -1.60795   1.21228 
 C                    -0.5231   -2.46949   0.58842 
 O                    -1.25229  -1.76221  -0.41524 
 C                    -2.28147  -0.91003   0.09791 
 C                    -3.59475  -1.67825   0.3056 
 N                    -4.65266  -0.8396    0.86904 
 C                    -5.27069   0.15906   0.11369 
 C                    -6.00717   1.14649   0.78536 
 C                    -6.69765   2.14589   0.09109 
 C                    -6.69691   2.1633   -1.30487 
 C                    -7.40625   3.24337  -2.06391 
 C                    -5.99264   1.16801  -1.98762 
 C                    -5.30573   0.16991  -1.28457 
 C                     4.92664   0.37445  -1.02333 
 C                     5.91494   1.33985  -1.24978 
 H                     7.81415   3.5158    0.34686 
 H                     8.82343   2.27558  -0.44806 
 H                     7.70338   3.27298  -1.39858 
 H                     7.25436   1.43699   1.86698 
 H                     5.52912  -0.23199   2.25861 
 H                     3.50086  -1.61835  -0.48352 
 H                     3.73807  -1.50481   2.47995 
 H                     4.64032  -2.68949   1.48997 
 H                     2.27961  -3.37504   0.52869 
 H                     2.73328  -3.86287   2.16245 
 H                     1.18421  -1.12954   0.43693 
 H                     0.12426  -0.79482   1.78857 
 H                    -1.18802  -2.86884   1.36182 
 H                    -0.07026  -3.33996   0.10052 
 H                    -1.96378  -0.41705   1.02307 
 H                    -2.42853  -0.11952  -0.64464 
 H                    -3.90986  -2.17121  -0.6207 
 H                    -3.41982  -2.50094   1.00792 
 H                    -4.45814  -0.53949   1.8209 
 H                    -6.0513    1.1476    1.87213 
 H                    -7.2403    2.90228   0.65357 
 H                    -8.14899   3.74885  -1.43607 
 H                    -7.93765   2.82287  -2.92599 
 H                    -6.68399   3.98774  -2.41573 
 H                    -5.9807    1.15025  -3.07606 
 H                    -4.79949  -0.59646  -1.86482 
 H                     4.25938   0.11431  -1.84145 
 H                     6.00439   1.78517  -2.23853 
 

 GradGradGradGradGradGradGradGradGradGradGradGradGradGradGradGradGradGrad
 Berny optimization.
 Initialization pass.
                           ----------------------------
                           !    Initial Parameters    !
                           ! (Angstroms and Degrees)  !
 --------------------------                            --------------------------
 ! Name  Definition              Value          Derivative Info.                !
 --------------------------------------------------------------------------------
 ! R1    R(1,2)                  1.4995         calculate D2E/DX2 analytically  !
 ! R2    R(1,25)                 1.0958         calculate D2E/DX2 analytically  !
 ! R3    R(1,26)                 1.0951         calculate D2E/DX2 analytically  !
 ! R4    R(1,27)                 1.095          calculate D2E/DX2 analytically  !
 ! R5    R(2,3)                  1.397          calculate D2E/DX2 analytically  !
 ! R6    R(2,24)                 1.3955         calculate D2E/DX2 analytically  !
 ! R7    R(3,4)                  1.4011         calculate D2E/DX2 analytically  !
 ! R8    R(3,28)                 1.0882         calculate D2E/DX2 analytically  !
 ! R9    R(4,5)                  1.3983         calculate D2E/DX2 analytically  !
 ! R10   R(4,29)                 1.0851         calculate D2E/DX2 analytically  !
 ! R11   R(5,6)                  1.4009         calculate D2E/DX2 analytically  !
 ! R12   R(5,23)                 1.4015         calculate D2E/DX2 analytically  !
 ! R13   R(6,7)                  1.4666         calculate D2E/DX2 analytically  !
 ! R14   R(6,30)                 1.0177         calculate D2E/DX2 analytically  !
 ! R15   R(7,8)                  1.5401         calculate D2E/DX2 analytically  !
 ! R16   R(7,31)                 1.0958         calculate D2E/DX2 analytically  !
 ! R17   R(7,32)                 1.0959         calculate D2E/DX2 analytically  !
 ! R18   R(8,9)                  1.4321         calculate D2E/DX2 analytically  !
 ! R19   R(8,33)                 1.0958         calculate D2E/DX2 analytically  !
 ! R20   R(8,34)                 1.095          calculate D2E/DX2 analytically  !
 ! R21   R(9,10)                 1.4276         calculate D2E/DX2 analytically  !
 ! R22   R(10,11)                1.5311         calculate D2E/DX2 analytically  !
 ! R23   R(10,35)                1.0942         calculate D2E/DX2 analytically  !
 ! R24   R(10,36)                1.0951         calculate D2E/DX2 analytically  !
 ! R25   R(11,12)                1.428          calculate D2E/DX2 analytically  !
 ! R26   R(11,37)                1.0953         calculate D2E/DX2 analytically  !
 ! R27   R(11,38)                1.0958         calculate D2E/DX2 analytically  !
 ! R28   R(12,13)                1.4313         calculate D2E/DX2 analytically  !
 ! R29   R(13,14)                1.5356         calculate D2E/DX2 analytically  !
 ! R30   R(13,39)                1.0954         calculate D2E/DX2 analytically  !
 ! R31   R(13,40)                1.0945         calculate D2E/DX2 analytically  !
 ! R32   R(14,15)                1.4629         calculate D2E/DX2 analytically  !
 ! R33   R(14,41)                1.0956         calculate D2E/DX2 analytically  !
 ! R34   R(14,42)                1.0958         calculate D2E/DX2 analytically  !
 ! R35   R(15,16)                1.3964         calculate D2E/DX2 analytically  !
 ! R36   R(15,43)                1.0168         calculate D2E/DX2 analytically  !
 ! R37   R(16,17)                1.4031         calculate D2E/DX2 analytically  !
 ! R38   R(16,22)                1.3987         calculate D2E/DX2 analytically  !
 ! R39   R(17,18)                1.3991         calculate D2E/DX2 analytically  !
 ! R40   R(17,44)                1.0877         calculate D2E/DX2 analytically  !
 ! R41   R(18,19)                1.3961         calculate D2E/DX2 analytically  !
 ! R42   R(18,45)                1.0876         calculate D2E/DX2 analytically  !
 ! R43   R(19,20)                1.4986         calculate D2E/DX2 analytically  !
 ! R44   R(19,21)                1.3974         calculate D2E/DX2 analytically  !
 ! R45   R(20,46)                1.0961         calculate D2E/DX2 analytically  !
 ! R46   R(20,47)                1.0965         calculate D2E/DX2 analytically  !
 ! R47   R(20,48)                1.0952         calculate D2E/DX2 analytically  !
 ! R48   R(21,22)                1.4008         calculate D2E/DX2 analytically  !
 ! R49   R(21,49)                1.0887         calculate D2E/DX2 analytically  !
 ! R50   R(22,50)                1.0864         calculate D2E/DX2 analytically  !
 ! R51   R(23,24)                1.4            calculate D2E/DX2 analytically  !
 ! R52   R(23,51)                1.0873         calculate D2E/DX2 analytically  !
 ! R53   R(24,52)                1.0881         calculate D2E/DX2 analytically  !
 ! A1    A(2,1,25)             110.351          calculate D2E/DX2 analytically  !
 ! A2    A(2,1,26)             110.1033         calculate D2E/DX2 analytically  !
 ! A3    A(2,1,27)             111.3727         calculate D2E/DX2 analytically  !
 ! A4    A(25,1,26)            109.185          calculate D2E/DX2 analytically  !
 ! A5    A(25,1,27)            107.4104         calculate D2E/DX2 analytically  !
 ! A6    A(26,1,27)            108.3404         calculate D2E/DX2 analytically  !
 ! A7    A(1,2,3)              120.2272         calculate D2E/DX2 analytically  !
 ! A8    A(1,2,24)             121.1696         calculate D2E/DX2 analytically  !
 ! A9    A(3,2,24)             118.6004         calculate D2E/DX2 analytically  !
 ! A10   A(2,3,4)              120.6622         calculate D2E/DX2 analytically  !
 ! A11   A(2,3,28)             120.2564         calculate D2E/DX2 analytically  !
 ! A12   A(4,3,28)             119.0789         calculate D2E/DX2 analytically  !
 ! A13   A(3,4,5)              121.298          calculate D2E/DX2 analytically  !
 ! A14   A(3,4,29)             117.5628         calculate D2E/DX2 analytically  !
 ! A15   A(5,4,29)             121.1392         calculate D2E/DX2 analytically  !
 ! A16   A(4,5,6)              123.9271         calculate D2E/DX2 analytically  !
 ! A17   A(4,5,23)             117.3974         calculate D2E/DX2 analytically  !
 ! A18   A(6,5,23)             118.3511         calculate D2E/DX2 analytically  !
 ! A19   A(5,6,7)              119.617          calculate D2E/DX2 analytically  !
 ! A20   A(5,6,30)             110.8553         calculate D2E/DX2 analytically  !
 ! A21   A(7,6,30)             113.1682         calculate D2E/DX2 analytically  !
 ! A22   A(6,7,8)              111.3863         calculate D2E/DX2 analytically  !
 ! A23   A(6,7,31)             110.3722         calculate D2E/DX2 analytically  !
 ! A24   A(6,7,32)             108.6974         calculate D2E/DX2 analytically  !
 ! A25   A(8,7,31)             108.4478         calculate D2E/DX2 analytically  !
 ! A26   A(8,7,32)             108.5464         calculate D2E/DX2 analytically  !
 ! A27   A(31,7,32)            109.3525         calculate D2E/DX2 analytically  !
 ! A28   A(7,8,9)              112.1578         calculate D2E/DX2 analytically  !
 ! A29   A(7,8,33)             112.2933         calculate D2E/DX2 analytically  !
 ! A30   A(7,8,34)             107.884          calculate D2E/DX2 analytically  !
 ! A31   A(9,8,33)             111.2366         calculate D2E/DX2 analytically  !
 ! A32   A(9,8,34)             105.5692         calculate D2E/DX2 analytically  !
 ! A33   A(33,8,34)            107.2899         calculate D2E/DX2 analytically  !
 ! A34   A(8,9,10)             114.0043         calculate D2E/DX2 analytically  !
 ! A35   A(9,10,11)            110.5559         calculate D2E/DX2 analytically  !
 ! A36   A(9,10,35)            112.6757         calculate D2E/DX2 analytically  !
 ! A37   A(9,10,36)            106.9193         calculate D2E/DX2 analytically  !
 ! A38   A(11,10,35)           110.8341         calculate D2E/DX2 analytically  !
 ! A39   A(11,10,36)           109.5182         calculate D2E/DX2 analytically  !
 ! A40   A(35,10,36)           106.1295         calculate D2E/DX2 analytically  !
 ! A41   A(10,11,12)           112.0213         calculate D2E/DX2 analytically  !
 ! A42   A(10,11,37)           110.7368         calculate D2E/DX2 analytically  !
 ! A43   A(10,11,38)           109.3395         calculate D2E/DX2 analytically  !
 ! A44   A(12,11,37)           111.5223         calculate D2E/DX2 analytically  !
 ! A45   A(12,11,38)           106.9492         calculate D2E/DX2 analytically  !
 ! A46   A(37,11,38)           105.9989         calculate D2E/DX2 analytically  !
 ! A47   A(11,12,13)           114.2085         calculate D2E/DX2 analytically  !
 ! A48   A(12,13,14)           111.4433         calculate D2E/DX2 analytically  !
 ! A49   A(12,13,39)           111.2362         calculate D2E/DX2 analytically  !
 ! A50   A(12,13,40)           106.463          calculate D2E/DX2 analytically  !
 ! A51   A(14,13,39)           111.0357         calculate D2E/DX2 analytically  !
 ! A52   A(14,13,40)           109.7658         calculate D2E/DX2 analytically  !
 ! A53   A(39,13,40)           106.674          calculate D2E/DX2 analytically  !
 ! A54   A(13,14,15)           112.5679         calculate D2E/DX2 analytically  !
 ! A55   A(13,14,41)           110.8985         calculate D2E/DX2 analytically  !
 ! A56   A(13,14,42)           109.0118         calculate D2E/DX2 analytically  !
 ! A57   A(15,14,41)           112.0614         calculate D2E/DX2 analytically  !
 ! A58   A(15,14,42)           107.3985         calculate D2E/DX2 analytically  !
 ! A59   A(41,14,42)           104.4778         calculate D2E/DX2 analytically  !
 ! A60   A(14,15,16)           121.4492         calculate D2E/DX2 analytically  !
 ! A61   A(14,15,43)           113.0421         calculate D2E/DX2 analytically  !
 ! A62   A(16,15,43)           112.3312         calculate D2E/DX2 analytically  !
 ! A63   A(15,16,17)           118.4699         calculate D2E/DX2 analytically  !
 ! A64   A(15,16,22)           123.8751         calculate D2E/DX2 analytically  !
 ! A65   A(17,16,22)           117.3837         calculate D2E/DX2 analytically  !
 ! A66   A(16,17,18)           121.6145         calculate D2E/DX2 analytically  !
 ! A67   A(16,17,44)           120.0225         calculate D2E/DX2 analytically  !
 ! A68   A(18,17,44)           118.363          calculate D2E/DX2 analytically  !
 ! A69   A(17,18,19)           120.3198         calculate D2E/DX2 analytically  !
 ! A70   A(17,18,45)           119.1012         calculate D2E/DX2 analytically  !
 ! A71   A(19,18,45)           120.5772         calculate D2E/DX2 analytically  !
 ! A72   A(18,19,20)           121.0102         calculate D2E/DX2 analytically  !
 ! A73   A(18,19,21)           118.6807         calculate D2E/DX2 analytically  !
 ! A74   A(20,19,21)           120.292          calculate D2E/DX2 analytically  !
 ! A75   A(19,20,46)           111.2845         calculate D2E/DX2 analytically  !
 ! A76   A(19,20,47)           110.5606         calculate D2E/DX2 analytically  !
 ! A77   A(19,20,48)           109.9006         calculate D2E/DX2 analytically  !
 ! A78   A(46,20,47)           107.3853         calculate D2E/DX2 analytically  !
 ! A79   A(46,20,48)           108.509          calculate D2E/DX2 analytically  !
 ! A80   A(47,20,48)           109.127          calculate D2E/DX2 analytically  !
 ! A81   A(19,21,22)           120.6239         calculate D2E/DX2 analytically  !
 ! A82   A(19,21,49)           120.3733         calculate D2E/DX2 analytically  !
 ! A83   A(22,21,49)           118.9983         calculate D2E/DX2 analytically  !
 ! A84   A(16,22,21)           121.2998         calculate D2E/DX2 analytically  !
 ! A85   A(16,22,50)           121.1157         calculate D2E/DX2 analytically  !
 ! A86   A(21,22,50)           117.5844         calculate D2E/DX2 analytically  !
 ! A87   A(5,23,24)            121.5958         calculate D2E/DX2 analytically  !
 ! A88   A(5,23,51)            119.9472         calculate D2E/DX2 analytically  !
 ! A89   A(24,23,51)           118.4565         calculate D2E/DX2 analytically  !
 ! A90   A(2,24,23)            120.3735         calculate D2E/DX2 analytically  !
 ! A91   A(2,24,52)            120.465          calculate D2E/DX2 analytically  !
 ! A92   A(23,24,52)           119.1595         calculate D2E/DX2 analytically  !
 ! D1    D(25,1,2,3)           -48.8429         calculate D2E/DX2 analytically  !
 ! D2    D(25,1,2,24)          131.7763         calculate D2E/DX2 analytically  !
 ! D3    D(26,1,2,3)            71.7543         calculate D2E/DX2 analytically  !
 ! D4    D(26,1,2,24)         -107.6265         calculate D2E/DX2 analytically  !
 ! D5    D(27,1,2,3)          -168.0431         calculate D2E/DX2 analytically  !
 ! D6    D(27,1,2,24)           12.5762         calculate D2E/DX2 analytically  !
 ! D7    D(1,2,3,4)           -179.3481         calculate D2E/DX2 analytically  !
 ! D8    D(1,2,3,28)             1.227          calculate D2E/DX2 analytically  !
 ! D9    D(24,2,3,4)             0.0484         calculate D2E/DX2 analytically  !
 ! D10   D(24,2,3,28)         -179.3765         calculate D2E/DX2 analytically  !
 ! D11   D(1,2,24,23)          179.4429         calculate D2E/DX2 analytically  !
 ! D12   D(1,2,24,52)           -1.0775         calculate D2E/DX2 analytically  !
 ! D13   D(3,2,24,23)            0.0523         calculate D2E/DX2 analytically  !
 ! D14   D(3,2,24,52)          179.5319         calculate D2E/DX2 analytically  !
 ! D15   D(2,3,4,5)              1.4877         calculate D2E/DX2 analytically  !
 ! D16   D(2,3,4,29)          -178.5773         calculate D2E/DX2 analytically  !
 ! D17   D(28,3,4,5)          -179.0807         calculate D2E/DX2 analytically  !
 ! D18   D(28,3,4,29)            0.8543         calculate D2E/DX2 analytically  !
 ! D19   D(3,4,5,6)           -176.344          calculate D2E/DX2 analytically  !
 ! D20   D(3,4,5,23)            -3.0064         calculate D2E/DX2 analytically  !
 ! D21   D(29,4,5,6)             3.7234         calculate D2E/DX2 analytically  !
 ! D22   D(29,4,5,23)          177.0609         calculate D2E/DX2 analytically  !
 ! D23   D(4,5,6,7)            -22.0859         calculate D2E/DX2 analytically  !
 ! D24   D(4,5,6,30)          -156.5818         calculate D2E/DX2 analytically  !
 ! D25   D(23,5,6,7)           164.6357         calculate D2E/DX2 analytically  !
 ! D26   D(23,5,6,30)           30.1398         calculate D2E/DX2 analytically  !
 ! D27   D(4,5,23,24)            3.1182         calculate D2E/DX2 analytically  !
 ! D28   D(4,5,23,51)         -176.6505         calculate D2E/DX2 analytically  !
 ! D29   D(6,5,23,24)          176.8382         calculate D2E/DX2 analytically  !
 ! D30   D(6,5,23,51)           -2.9306         calculate D2E/DX2 analytically  !
 ! D31   D(5,6,7,8)           -179.0158         calculate D2E/DX2 analytically  !
 ! D32   D(5,6,7,31)            60.4573         calculate D2E/DX2 analytically  !
 ! D33   D(5,6,7,32)           -59.4672         calculate D2E/DX2 analytically  !
 ! D34   D(30,6,7,8)           -45.4878         calculate D2E/DX2 analytically  !
 ! D35   D(30,6,7,31)         -166.0147         calculate D2E/DX2 analytically  !
 ! D36   D(30,6,7,32)           74.0608         calculate D2E/DX2 analytically  !
 ! D37   D(6,7,8,9)            -84.1505         calculate D2E/DX2 analytically  !
 ! D38   D(6,7,8,33)            41.9825         calculate D2E/DX2 analytically  !
 ! D39   D(6,7,8,34)           160.0053         calculate D2E/DX2 analytically  !
 ! D40   D(31,7,8,9)            37.501          calculate D2E/DX2 analytically  !
 ! D41   D(31,7,8,33)          163.6339         calculate D2E/DX2 analytically  !
 ! D42   D(31,7,8,34)          -78.3433         calculate D2E/DX2 analytically  !
 ! D43   D(32,7,8,9)           156.2113         calculate D2E/DX2 analytically  !
 ! D44   D(32,7,8,33)          -77.6557         calculate D2E/DX2 analytically  !
 ! D45   D(32,7,8,34)           40.3671         calculate D2E/DX2 analytically  !
 ! D46   D(7,8,9,10)            87.5523         calculate D2E/DX2 analytically  !
 ! D47   D(33,8,9,10)          -39.1526         calculate D2E/DX2 analytically  !
 ! D48   D(34,8,9,10)         -155.2106         calculate D2E/DX2 analytically  !
 ! D49   D(8,9,10,11)           91.4152         calculate D2E/DX2 analytically  !
 ! D50   D(8,9,10,35)          -33.2198         calculate D2E/DX2 analytically  !
 ! D51   D(8,9,10,36)         -149.4386         calculate D2E/DX2 analytically  !
 ! D52   D(9,10,11,12)        -174.9699         calculate D2E/DX2 analytically  !
 ! D53   D(9,10,11,37)          59.841          calculate D2E/DX2 analytically  !
 ! D54   D(9,10,11,38)         -56.596          calculate D2E/DX2 analytically  !
 ! D55   D(35,10,11,12)        -49.2913         calculate D2E/DX2 analytically  !
 ! D56   D(35,10,11,37)       -174.4804         calculate D2E/DX2 analytically  !
 ! D57   D(35,10,11,38)         69.0826         calculate D2E/DX2 analytically  !
 ! D58   D(36,10,11,12)         67.4691         calculate D2E/DX2 analytically  !
 ! D59   D(36,10,11,37)        -57.7199         calculate D2E/DX2 analytically  !
 ! D60   D(36,10,11,38)       -174.1569         calculate D2E/DX2 analytically  !
 ! D61   D(10,11,12,13)        -81.9999         calculate D2E/DX2 analytically  !
 ! D62   D(37,11,12,13)         42.7552         calculate D2E/DX2 analytically  !
 ! D63   D(38,11,12,13)        158.2174         calculate D2E/DX2 analytically  !
 ! D64   D(11,12,13,14)        -86.2146         calculate D2E/DX2 analytically  !
 ! D65   D(11,12,13,39)         38.2828         calculate D2E/DX2 analytically  !
 ! D66   D(11,12,13,40)        154.1206         calculate D2E/DX2 analytically  !
 ! D67   D(12,13,14,15)        178.22           calculate D2E/DX2 analytically  !
 ! D68   D(12,13,14,41)        -55.3329         calculate D2E/DX2 analytically  !
 ! D69   D(12,13,14,42)         59.1621         calculate D2E/DX2 analytically  !
 ! D70   D(39,13,14,15)         53.6101         calculate D2E/DX2 analytically  !
 ! D71   D(39,13,14,41)       -179.9428         calculate D2E/DX2 analytically  !
 ! D72   D(39,13,14,42)        -65.4478         calculate D2E/DX2 analytically  !
 ! D73   D(40,13,14,15)        -64.0908         calculate D2E/DX2 analytically  !
 ! D74   D(40,13,14,41)         62.3562         calculate D2E/DX2 analytically  !
 ! D75   D(40,13,14,42)        176.8513         calculate D2E/DX2 analytically  !
 ! D76   D(13,14,15,16)         71.2929         calculate D2E/DX2 analytically  !
 ! D77   D(13,14,15,43)        -66.7917         calculate D2E/DX2 analytically  !
 ! D78   D(41,14,15,16)        -54.5274         calculate D2E/DX2 analytically  !
 ! D79   D(41,14,15,43)        167.388          calculate D2E/DX2 analytically  !
 ! D80   D(42,14,15,16)       -168.7124         calculate D2E/DX2 analytically  !
 ! D81   D(42,14,15,43)         53.2031         calculate D2E/DX2 analytically  !
 ! D82   D(14,15,16,17)       -163.417          calculate D2E/DX2 analytically  !
 ! D83   D(14,15,16,22)         22.7317         calculate D2E/DX2 analytically  !
 ! D84   D(43,15,16,17)        -25.0668         calculate D2E/DX2 analytically  !
 ! D85   D(43,15,16,22)        161.0818         calculate D2E/DX2 analytically  !
 ! D86   D(15,16,17,18)       -177.3667         calculate D2E/DX2 analytically  !
 ! D87   D(15,16,17,44)          2.639          calculate D2E/DX2 analytically  !
 ! D88   D(22,16,17,18)         -3.1145         calculate D2E/DX2 analytically  !
 ! D89   D(22,16,17,44)        176.8912         calculate D2E/DX2 analytically  !
 ! D90   D(15,16,22,21)        177.1186         calculate D2E/DX2 analytically  !
 ! D91   D(15,16,22,50)         -2.9342         calculate D2E/DX2 analytically  !
 ! D92   D(17,16,22,21)          3.2055         calculate D2E/DX2 analytically  !
 ! D93   D(17,16,22,50)       -176.8473         calculate D2E/DX2 analytically  !
 ! D94   D(16,17,18,19)          1.6422         calculate D2E/DX2 analytically  !
 ! D95   D(16,17,18,45)       -178.8534         calculate D2E/DX2 analytically  !
 ! D96   D(44,17,18,19)       -178.3634         calculate D2E/DX2 analytically  !
 ! D97   D(44,17,18,45)          1.1409         calculate D2E/DX2 analytically  !
 ! D98   D(17,18,19,20)       -178.6533         calculate D2E/DX2 analytically  !
 ! D99   D(17,18,19,21)         -0.1516         calculate D2E/DX2 analytically  !
 ! D100  D(45,18,19,20)          1.8497         calculate D2E/DX2 analytically  !
 ! D101  D(45,18,19,21)       -179.6485         calculate D2E/DX2 analytically  !
 ! D102  D(18,19,20,46)        -19.1572         calculate D2E/DX2 analytically  !
 ! D103  D(18,19,20,47)       -138.4064         calculate D2E/DX2 analytically  !
 ! D104  D(18,19,20,48)        101.0651         calculate D2E/DX2 analytically  !
 ! D105  D(21,19,20,46)        162.3651         calculate D2E/DX2 analytically  !
 ! D106  D(21,19,20,47)         43.1158         calculate D2E/DX2 analytically  !
 ! D107  D(21,19,20,48)        -77.4126         calculate D2E/DX2 analytically  !
 ! D108  D(18,19,21,22)          0.2523         calculate D2E/DX2 analytically  !
 ! D109  D(18,19,21,49)        179.4702         calculate D2E/DX2 analytically  !
 ! D110  D(20,19,21,22)        178.7652         calculate D2E/DX2 analytically  !
 ! D111  D(20,19,21,49)         -2.017          calculate D2E/DX2 analytically  !
 ! D112  D(19,21,22,16)         -1.8467         calculate D2E/DX2 analytically  !
 ! D113  D(19,21,22,50)        178.2043         calculate D2E/DX2 analytically  !
 ! D114  D(49,21,22,16)        178.9248         calculate D2E/DX2 analytically  !
 ! D115  D(49,21,22,50)         -1.0242         calculate D2E/DX2 analytically  !
 ! D116  D(5,23,24,2)           -1.6952         calculate D2E/DX2 analytically  !
 ! D117  D(5,23,24,52)         178.8185         calculate D2E/DX2 analytically  !
 ! D118  D(51,23,24,2)         178.0769         calculate D2E/DX2 analytically  !
 ! D119  D(51,23,24,52)         -1.4094         calculate D2E/DX2 analytically  !
 --------------------------------------------------------------------------------
 Trust Radius=3.00D-01 FncErr=1.00D-07 GrdErr=1.00D-06 EigMax=2.50D+02 EigMin=1.00D-04
 Number of steps in this run=    274 maximum allowed number of steps=    312.
 GradGradGradGradGradGradGradGradGradGradGradGradGradGradGradGradGradGrad

 Stoichiometry    C20H28N2O2
 Framework group  C1[X(C20H28N2O2)]
 Deg. of freedom   150
 Full point group                 C1      NOp   1
 Largest Abelian subgroup         C1      NOp   1
 Largest concise Abelian subgroup C1      NOp   1
                         Standard orientation:                         
 ---------------------------------------------------------------------
 Center     Atomic      Atomic             Coordinates (Angstroms)
 Number     Number       Type             X           Y           Z
 ---------------------------------------------------------------------
      1          6           0        7.641727    3.444790    0.353669
      2          6           0        6.649050    2.337461    0.161474
      3          6           0        6.628504    1.251086    1.039561
      4          6           0        5.713928    0.204855    0.860560
      5          6           0        4.818444    0.198587   -0.213404
      6          7           0        3.833526   -0.779068   -0.404476
      7          6           0        3.986339   -2.094642    0.225421
      8          6           0        2.812281   -3.026458   -0.128346
      9          8           0        1.684859   -2.825026    0.731386
     10          6           0        0.790077   -1.805485    0.286491
     11          6           0       -0.308922   -2.402603   -0.596632
     12          8           0       -1.154929   -1.395618   -1.153004
     13          6           0       -2.184564   -0.940021   -0.269252
     14          6           0       -3.432334   -1.830995   -0.354456
     15          7           0       -4.485745   -1.411729    0.569937
     16          6           0       -5.217074   -0.241135    0.358528
     17          6           0       -5.950042    0.292182    1.429461
     18          6           0       -6.748565    1.430866    1.276758
     19          6           0       -6.861904    2.050260    0.030759
     20          6           0       -7.688896    3.287774   -0.143906
     21          6           0       -6.161456    1.511943   -1.051986
     22          6           0       -5.365845    0.370321   -0.890662
     23          6           0        4.827146    1.310238   -1.066841
     24          6           0        5.739091    2.358707   -0.896377
     25          1           0        7.638531    3.782791    1.396034
     26          1           0        8.646941    3.099031    0.090550
     27          1           0        7.400255    4.310251   -0.272135
     28          1           0        7.319254    1.211817    1.879484
     29          1           0        5.726103   -0.602265    1.585722
     30          1           0        3.561869   -0.833150   -1.383772
     31          1           0        4.031802   -1.992678    1.315487
     32          1           0        4.914827   -2.551310   -0.135645
     33          1           0        2.525401   -2.951528   -1.183243
     34          1           0        3.136172   -4.057416    0.048393
     35          1           0        1.303997   -0.989249   -0.230219
     36          1           0        0.340219   -1.363374    1.181733
     37          1           0       -0.885944   -3.152029   -0.044229
     38          1           0        0.150212   -2.934506   -1.437525
     39          1           0       -1.820633   -0.870611    0.761576
     40          1           0       -2.434684    0.078209   -0.583216
     41          1           0       -3.793793   -1.899668   -1.386431
     42          1           0       -3.155964   -2.858346   -0.092057
     43          1           0       -4.231579   -1.537455    1.546437
     44          1           0       -5.905957   -0.180556    2.408025
     45          1           0       -7.284737    1.820484    2.139131
     46          1           0       -8.405060    3.406897    0.677230
     47          1           0       -8.264397    3.237990   -1.075951
     48          1           0       -7.039668    4.169460   -0.169672
     49          1           0       -6.236791    1.967732   -2.037762
     50          1           0       -4.866791   -0.023654   -1.771576
     51          1           0        4.111152    1.373840   -1.882648
     52          1           0        5.723435    3.193649   -1.593924
 ---------------------------------------------------------------------
 Rotational constants (GHZ):           0.3476623           0.0592755           0.0528548
 Standard basis: 6-31G(d,p) (6D, 7F)
 There are   500 symmetry adapted cartesian basis functions of A   symmetry.
 There are   500 symmetry adapted basis functions of A   symmetry.
   500 basis functions,   868 primitive gaussians,   500 cartesian basis functions
    89 alpha electrons       89 beta electrons
       nuclear repulsion energy      1835.0803106535 Hartrees.
 NAtoms=   52 NActive=   52 NUniq=   52 SFac= 1.00D+00 NAtFMM=   60 NAOKFM=F Big=F
 Integral buffers will be    131072 words long.
 Raffenetti 2 integral format.
 Two-electron integral symmetry is turned on.
 Force inversion solution in PCM.
 ------------------------------------------------------------------------------
 Polarizable Continuum Model (PCM)
 =================================
 Model                : PCM.
 Atomic radii         : UFF (Universal Force Field).
 Polarization charges : Total charges.
 Charge compensation  : None.
 Solution method      : Matrix inversion.
 Cavity type          : Scaled VdW (van der Waals Surface) (Alpha=1.100).
 Cavity algorithm     : GePol (No added spheres)
                        Default sphere list used, NSphG=   52.
                        Lebedev-Laikov grids with approx.  5.0 points / Ang**2.
                        Smoothing algorithm: York/Karplus (Gamma=1.0000).
                        Polarization charges: spherical gaussians, with
                                              point-specific exponents (IZeta= 3).
                        Self-potential: point-specific (ISelfS= 7).
                        Self-field    : sphere-specific E.n sum rule (ISelfD= 2).
 1st derivatives      : Analytical E(r).r(x)/FMM algorithm (CHGder, D1EAlg=3).
                        Cavity 1st derivative terms included.
 2nd derivatives      : Analytical E(r).r(xy)/FMM algorithm (CHGder, D2EAlg=3).
                        Cavity 2nd derivative terms included.
 Solvent              : Water, Eps=  78.355300 Eps(inf)=   1.777849
 ------------------------------------------------------------------------------
 One-electron integrals computed using PRISM.
 NBasis=   500 RedAO= T EigKep=  4.17D-04  NBF=   500
 NBsUse=   500 1.00D-06 EigRej= -1.00D+00 NBFU=   500
 ExpMin= 1.61D-01 ExpMax= 5.48D+03 ExpMxC= 8.25D+02 IAcc=3 IRadAn=         5 AccDes= 0.00D+00
 Harris functional with IExCor=  402 and IRadAn=       5 diagonalized for initial guess.
 HarFok:  IExCor=  402 AccDes= 0.00D+00 IRadAn=         5 IDoV= 1 UseB2=F ITyADJ=14
 ICtDFT=  3500011 ScaDFX=  1.000000  1.000000  1.000000  1.000000
 FoFCou: FMM=F IPFlag=           0 FMFlag=      100000 FMFlg1=           0
         NFxFlg=           0 DoJE=T BraDBF=F KetDBF=T FulRan=T
         wScrn=  0.000000 ICntrl=       500 IOpCl=  0 I1Cent=   200000004 NGrid=           0
         NMat0=    1 NMatS0=      1 NMatT0=    0 NMatD0=    1 NMtDS0=    0 NMtDT0=    0
 Petite list used in FoFCou.
 Requested convergence on RMS density matrix=1.00D-08 within  32 cycles.
 Requested convergence on MAX density matrix=1.00D-06.
 Requested convergence on             energy=1.00D-06.
 No special actions if energy rises.
 Inv3:  Mode=1 IEnd=    38858403.
 Iteration    1 A*A^-1 deviation from unit magnitude is 3.77D-15 for   2159.
 Iteration    1 A*A^-1 deviation from orthogonality  is 2.50D-15 for   2567   2417.
 Iteration    1 A^-1*A deviation from unit magnitude is 3.55D-15 for   2159.
 Iteration    1 A^-1*A deviation from orthogonality  is 1.89D-15 for   2282     37.
 Error on total polarization charges =  0.01447
 SCF Done:  E(RB3LYP) =  -1038.96072433     A.U. after   12 cycles
            NFock= 12  Conv=0.58D-08     -V/T= 2.0096
 QCSCF skips out because SCF is already converged.
 DoSCS=F DFT=T ScalE2(SS,OS)=  1.000000  1.000000
 Range of M.O.s used for correlation:     1   500
 NBasis=   500 NAE=    89 NBE=    89 NFC=     0 NFV=     0
 NROrb=    500 NOA=    89 NOB=    89 NVA=   411 NVB=   411
 Symmetrizing basis deriv contribution to polar:
 IMax=3 JMax=2 DiffMx= 0.00D+00
 G2DrvN: will do    53 centers at a time, making    1 passes.
 Calling FoFCou, ICntrl=  3107 FMM=F I1Cent=   0 AccDes= 0.00D+00.
 NEqPCM:  Using equilibrium solvation (IEInf=0, Eps=  78.3553, EpsInf=   1.7778)
 G2PCM: DoFxE=T DoFxN=T DoGrad=T DoDP/DQ/DG/TGxP=FFFF NFrqRd=   0 IEInf=0 SqF1=F DoCFld=F IF1Alg=4.
 End of G2Drv F.D. properties file   721 does not exist.
 End of G2Drv F.D. properties file   722 does not exist.
 End of G2Drv F.D. properties file   788 does not exist.
          IDoAtm=11111111111111111111111111111111111111111111111111
          IDoAtm=11
 NEqPCM:  Using equilibrium solvation (IEInf=0, Eps=  78.3553, EpsInf=   1.7778)
          Differentiating once with respect to nuclear coordinates.
 CalDSu exits because no D1Ps are significant.
          There are   159 degrees of freedom in the 1st order CPHF.  IDoFFX=6 NUNeed=     0.
    153 vectors produced by pass  0 Test12= 3.66D-14 1.00D-09 XBig12= 1.49D-01 1.98D-01.
 AX will form   153 AO Fock derivatives at one time.
    153 vectors produced by pass  1 Test12= 3.66D-14 1.00D-09 XBig12= 1.48D-02 3.47D-02.
    153 vectors produced by pass  2 Test12= 3.66D-14 1.00D-09 XBig12= 1.04D-04 1.77D-03.
    153 vectors produced by pass  3 Test12= 3.66D-14 1.00D-09 XBig12= 2.34D-07 6.53D-05.
    153 vectors produced by pass  4 Test12= 3.66D-14 1.00D-09 XBig12= 2.56D-10 1.69D-06.
     90 vectors produced by pass  5 Test12= 3.66D-14 1.00D-09 XBig12= 2.34D-13 4.93D-08.
      4 vectors produced by pass  6 Test12= 3.66D-14 1.00D-09 XBig12= 2.40D-16 1.52D-09.
 InvSVY:  IOpt=1 It=  1 EMax= 5.55D-16
 Solved reduced A of dimension   859 with   159 vectors.
 End of Minotr F.D. properties file   721 does not exist.
 End of Minotr F.D. properties file   722 does not exist.
 End of Minotr F.D. properties file   788 does not exist.

 **********************************************************************

            Population analysis using the SCF density.

 **********************************************************************

 Orbital symmetries:
       Occupied  (A) (A) (A) (A) (A) (A) (A) (A) (A) (A) (A) (A)
                 (A) (A) (A) (A) (A) (A) (A) (A) (A) (A) (A) (A)
                 (A) (A) (A) (A) (A) (A) (A) (A) (A) (A) (A) (A)
                 (A) (A) (A) (A) (A) (A) (A) (A) (A) (A) (A) (A)
                 (A) (A) (A) (A) (A) (A) (A) (A) (A) (A) (A) (A)
                 (A) (A) (A) (A) (A) (A) (A) (A) (A) (A) (A) (A)
                 (A) (A) (A) (A) (A) (A) (A) (A) (A) (A) (A) (A)
                 (A) (A) (A) (A) (A)
       Virtual   (A) (A) (A) (A) (A) (A) (A) (A) (A) (A) (A) (A)
                 (A) (A) (A) (A) (A) (A) (A) (A) (A) (A) (A) (A)
                 (A) (A) (A) (A) (A) (A) (A) (A) (A) (A) (A) (A)
                 (A) (A) (A) (A) (A) (A) (A) (A) (A) (A) (A) (A)
                 (A) (A) (A) (A) (A) (A) (A) (A) (A) (A) (A) (A)
                 (A) (A) (A) (A) (A) (A) (A) (A) (A) (A) (A) (A)
                 (A) (A) (A) (A) (A) (A) (A) (A) (A) (A) (A) (A)
                 (A) (A) (A) (A) (A) (A) (A) (A) (A) (A) (A) (A)
                 (A) (A) (A) (A) (A) (A) (A) (A) (A) (A) (A) (A)
                 (A) (A) (A) (A) (A) (A) (A) (A) (A) (A) (A) (A)
                 (A) (A) (A) (A) (A) (A) (A) (A) (A) (A) (A) (A)
                 (A) (A) (A) (A) (A) (A) (A) (A) (A) (A) (A) (A)
                 (A) (A) (A) (A) (A) (A) (A) (A) (A) (A) (A) (A)
                 (A) (A) (A) (A) (A) (A) (A) (A) (A) (A) (A) (A)
                 (A) (A) (A) (A) (A) (A) (A) (A) (A) (A) (A) (A)
                 (A) (A) (A) (A) (A) (A) (A) (A) (A) (A) (A) (A)
                 (A) (A) (A) (A) (A) (A) (A) (A) (A) (A) (A) (A)
                 (A) (A) (A) (A) (A) (A) (A) (A) (A) (A) (A) (A)
                 (A) (A) (A) (A) (A) (A) (A) (A) (A) (A) (A) (A)
                 (A) (A) (A) (A) (A) (A) (A) (A) (A) (A) (A) (A)
                 (A) (A) (A) (A) (A) (A) (A) (A) (A) (A) (A) (A)
                 (A) (A) (A) (A) (A) (A) (A) (A) (A) (A) (A) (A)
                 (A) (A) (A) (A) (A) (A) (A) (A) (A) (A) (A) (A)
                 (A) (A) (A) (A) (A) (A) (A) (A) (A) (A) (A) (A)
                 (A) (A) (A) (A) (A) (A) (A) (A) (A) (A) (A) (A)
                 (A) (A) (A) (A) (A) (A) (A) (A) (A) (A) (A) (A)
                 (A) (A) (A) (A) (A) (A) (A) (A) (A) (A) (A) (A)
                 (A) (A) (A) (A) (A) (A) (A) (A) (A) (A) (A) (A)
                 (A) (A) (A) (A) (A) (A) (A) (A) (A) (A) (A) (A)
                 (A) (A) (A) (A) (A) (A) (A) (A) (A) (A) (A) (A)
                 (A) (A) (A) (A) (A) (A) (A) (A) (A) (A) (A) (A)
                 (A) (A) (A) (A) (A) (A) (A) (A) (A) (A) (A) (A)
                 (A) (A) (A) (A) (A) (A) (A) (A) (A) (A) (A) (A)
                 (A) (A) (A) (A) (A) (A) (A) (A) (A) (A) (A) (A)
                 (A) (A) (A)
 The electronic state is 1-A.
 Alpha  occ. eigenvalues --  -19.15260 -19.15225 -14.34250 -14.34031 -10.23679
 Alpha  occ. eigenvalues --  -10.23011 -10.22868 -10.22551 -10.22276 -10.22117
 Alpha  occ. eigenvalues --  -10.21643 -10.21584 -10.18304 -10.18264 -10.18259
 Alpha  occ. eigenvalues --  -10.18241 -10.18223 -10.18139 -10.18024 -10.17985
 Alpha  occ. eigenvalues --  -10.17972 -10.17919 -10.17515 -10.17487  -1.03348
 Alpha  occ. eigenvalues --   -1.02444  -0.92942  -0.92786  -0.84145  -0.84106
 Alpha  occ. eigenvalues --   -0.77564  -0.76774  -0.75213  -0.73932  -0.73795
 Alpha  occ. eigenvalues --   -0.72935  -0.70566  -0.67317  -0.66260  -0.64351
 Alpha  occ. eigenvalues --   -0.62358  -0.60597  -0.59762  -0.58347  -0.57263
 Alpha  occ. eigenvalues --   -0.57073  -0.52579  -0.52145  -0.50715  -0.49877
 Alpha  occ. eigenvalues --   -0.48921  -0.47937  -0.47050  -0.46242  -0.45408
 Alpha  occ. eigenvalues --   -0.45193  -0.44673  -0.43620  -0.43142  -0.42668
 Alpha  occ. eigenvalues --   -0.42058  -0.41629  -0.41578  -0.41272  -0.41081
 Alpha  occ. eigenvalues --   -0.40926  -0.40454  -0.39559  -0.37787  -0.37252
 Alpha  occ. eigenvalues --   -0.37171  -0.36777  -0.36262  -0.35856  -0.35287
 Alpha  occ. eigenvalues --   -0.34203  -0.34123  -0.33205  -0.33129  -0.32634
 Alpha  occ. eigenvalues --   -0.30865  -0.29617  -0.28537  -0.27115  -0.24560
 Alpha  occ. eigenvalues --   -0.24532  -0.24386  -0.19426  -0.19089
 Alpha virt. eigenvalues --   -0.00069  -0.00026   0.01961   0.02094   0.08034
 Alpha virt. eigenvalues --    0.08554   0.09332   0.10218   0.10447   0.11110
 Alpha virt. eigenvalues --    0.11234   0.11924   0.12566   0.12917   0.13397
 Alpha virt. eigenvalues --    0.13449   0.14235   0.14736   0.15072   0.15266
 Alpha virt. eigenvalues --    0.15561   0.16416   0.17174   0.17528   0.17626
 Alpha virt. eigenvalues --    0.18108   0.18628   0.19174   0.19253   0.19291
 Alpha virt. eigenvalues --    0.20291   0.20634   0.20892   0.21238   0.21922
 Alpha virt. eigenvalues --    0.22814   0.23427   0.23834   0.23979   0.24679
 Alpha virt. eigenvalues --    0.25128   0.25674   0.26425   0.28615   0.28794
 Alpha virt. eigenvalues --    0.29144   0.29325   0.33396   0.33663   0.34177
 Alpha virt. eigenvalues --    0.34351   0.34781   0.35459   0.37688   0.37838
 Alpha virt. eigenvalues --    0.46650   0.47014   0.49543   0.50078   0.51162
 Alpha virt. eigenvalues --    0.51360   0.51683   0.52219   0.52287   0.52582
 Alpha virt. eigenvalues --    0.52779   0.53825   0.54098   0.55137   0.55823
 Alpha virt. eigenvalues --    0.55857   0.56044   0.56536   0.57011   0.57281
 Alpha virt. eigenvalues --    0.58409   0.58518   0.59126   0.59633   0.59686
 Alpha virt. eigenvalues --    0.60255   0.60274   0.60811   0.61285   0.62123
 Alpha virt. eigenvalues --    0.62559   0.62809   0.63289   0.64551   0.65354
 Alpha virt. eigenvalues --    0.65723   0.66359   0.66468   0.67241   0.67962
 Alpha virt. eigenvalues --    0.69523   0.70258   0.70944   0.71312   0.71691
 Alpha virt. eigenvalues --    0.73653   0.73980   0.74188   0.75647   0.76118
 Alpha virt. eigenvalues --    0.77175   0.77767   0.78442   0.79426   0.80071
 Alpha virt. eigenvalues --    0.80708   0.81575   0.82028   0.82207   0.82524
 Alpha virt. eigenvalues --    0.83235   0.84141   0.84491   0.84754   0.85341
 Alpha virt. eigenvalues --    0.85530   0.86654   0.86753   0.87645   0.88041
 Alpha virt. eigenvalues --    0.88508   0.88680   0.89526   0.89813   0.90292
 Alpha virt. eigenvalues --    0.90738   0.91624   0.92028   0.93469   0.93888
 Alpha virt. eigenvalues --    0.94037   0.94401   0.95626   0.95920   0.96836
 Alpha virt. eigenvalues --    0.97689   0.98776   0.99314   0.99539   1.00334
 Alpha virt. eigenvalues --    1.01040   1.02120   1.02885   1.03997   1.04957
 Alpha virt. eigenvalues --    1.08812   1.09073   1.09612   1.11362   1.12807
 Alpha virt. eigenvalues --    1.14293   1.15374   1.16751   1.17705   1.18286
 Alpha virt. eigenvalues --    1.18689   1.18849   1.19172   1.22124   1.23299
 Alpha virt. eigenvalues --    1.25607   1.25980   1.26971   1.27330   1.28372
 Alpha virt. eigenvalues --    1.29592   1.31278   1.32053   1.34734   1.35651
 Alpha virt. eigenvalues --    1.37431   1.38924   1.39546   1.39766   1.40328
 Alpha virt. eigenvalues --    1.41551   1.41698   1.42792   1.43334   1.44678
 Alpha virt. eigenvalues --    1.45984   1.47224   1.47350   1.49979   1.52569
 Alpha virt. eigenvalues --    1.55046   1.56167   1.56843   1.58866   1.59950
 Alpha virt. eigenvalues --    1.61662   1.64863   1.65901   1.67464   1.68478
 Alpha virt. eigenvalues --    1.69002   1.71160   1.74150   1.74244   1.75172
 Alpha virt. eigenvalues --    1.75554   1.76664   1.77324   1.78273   1.78651
 Alpha virt. eigenvalues --    1.78821   1.80929   1.81984   1.82311   1.84803
 Alpha virt. eigenvalues --    1.84945   1.85017   1.85267   1.85363   1.86246
 Alpha virt. eigenvalues --    1.87982   1.90203   1.90980   1.92137   1.92698
 Alpha virt. eigenvalues --    1.92813   1.93140   1.93509   1.93927   1.94694
 Alpha virt. eigenvalues --    1.96575   1.96900   1.97083   1.97236   1.98008
 Alpha virt. eigenvalues --    1.98505   1.99863   2.01231   2.01829   2.02388
 Alpha virt. eigenvalues --    2.02901   2.03257   2.03848   2.04208   2.04908
 Alpha virt. eigenvalues --    2.05141   2.07359   2.08372   2.08745   2.08950
 Alpha virt. eigenvalues --    2.09708   2.09746   2.10427   2.12600   2.13753
 Alpha virt. eigenvalues --    2.14159   2.14697   2.14911   2.15421   2.16464
 Alpha virt. eigenvalues --    2.17529   2.19960   2.21037   2.21548   2.22010
 Alpha virt. eigenvalues --    2.23092   2.23888   2.25376   2.25925   2.26958
 Alpha virt. eigenvalues --    2.28835   2.29235   2.30414   2.30931   2.31884
 Alpha virt. eigenvalues --    2.32240   2.32811   2.33122   2.33262   2.35507
 Alpha virt. eigenvalues --    2.36310   2.37634   2.38090   2.39756   2.40841
 Alpha virt. eigenvalues --    2.41113   2.41630   2.41922   2.42642   2.43197
 Alpha virt. eigenvalues --    2.43855   2.44651   2.46525   2.47094   2.47854
 Alpha virt. eigenvalues --    2.48508   2.50052   2.50236   2.51489   2.52495
 Alpha virt. eigenvalues --    2.53821   2.54845   2.55174   2.55496   2.58475
 Alpha virt. eigenvalues --    2.59113   2.59312   2.59642   2.59959   2.60978
 Alpha virt. eigenvalues --    2.62577   2.63281   2.64170   2.64645   2.66060
 Alpha virt. eigenvalues --    2.67005   2.67847   2.68736   2.70450   2.70678
 Alpha virt. eigenvalues --    2.71443   2.71643   2.72387   2.73399   2.73984
 Alpha virt. eigenvalues --    2.74584   2.75256   2.77056   2.78129   2.79758
 Alpha virt. eigenvalues --    2.80404   2.81836   2.82277   2.84255   2.85504
 Alpha virt. eigenvalues --    2.86442   2.86682   2.86852   2.88477   2.88588
 Alpha virt. eigenvalues --    2.88816   2.89280   2.90456   2.91945   2.92927
 Alpha virt. eigenvalues --    2.93583   2.96375   2.97468   2.99589   3.00099
 Alpha virt. eigenvalues --    3.03860   3.06345   3.06693   3.07917   3.09002
 Alpha virt. eigenvalues --    3.19244   3.19358   3.20095   3.20266   3.24783
 Alpha virt. eigenvalues --    3.25585   3.25711   3.27028   3.28512   3.30287
 Alpha virt. eigenvalues --    3.30468   3.32949   3.34288   3.36426   3.37053
 Alpha virt. eigenvalues --    3.38096   3.40464   3.42037   3.42968   3.43268
 Alpha virt. eigenvalues --    3.43512   3.46804   3.47351   3.48171   3.50170
 Alpha virt. eigenvalues --    3.51101   3.52572   3.55163   3.55465   3.56659
 Alpha virt. eigenvalues --    3.83325   3.83405   3.90059   4.08194   4.13918
 Alpha virt. eigenvalues --    4.14136   4.15057   4.16253   4.16506   4.17501
 Alpha virt. eigenvalues --    4.19958   4.22089   4.37053   4.37994   4.38260
 Alpha virt. eigenvalues --    4.41242   4.42653   4.44269   4.44648   4.54560
 Alpha virt. eigenvalues --    4.55700   4.65381   4.66628   4.69685   4.84747
 Alpha virt. eigenvalues --    4.85059
          Condensed to atoms (all electrons):
 Mulliken charges:
               1
     1  C   -0.382369
     2  C    0.100746
     3  C   -0.142781
     4  C   -0.143445
     5  C    0.302828
     6  N   -0.606474
     7  C   -0.032451
     8  C    0.021936
     9  O   -0.512369
    10  C    0.032756
    11  C    0.035344
    12  O   -0.514437
    13  C    0.051048
    14  C   -0.081160
    15  N   -0.591907
    16  C    0.302810
    17  C   -0.161209
    18  C   -0.137139
    19  C    0.098175
    20  C   -0.381843
    21  C   -0.142411
    22  C   -0.141283
    23  C   -0.155157
    24  C   -0.140336
    25  H    0.118210
    26  H    0.123338
    27  H    0.111545
    28  H    0.090103
    29  H    0.092362
    30  H    0.269672
    31  H    0.129464
    32  H    0.104096
    33  H    0.108844
    34  H    0.117560
    35  H    0.113037
    36  H    0.106888
    37  H    0.101940
    38  H    0.109554
    39  H    0.102975
    40  H    0.111993
    41  H    0.127246
    42  H    0.118710
    43  H    0.272071
    44  H    0.088883
    45  H    0.089903
    46  H    0.111381
    47  H    0.115792
    48  H    0.123524
    49  H    0.090052
    50  H    0.091876
    51  H    0.089821
    52  H    0.090287
 Sum of Mulliken charges =  -0.00000
 Mulliken charges with hydrogens summed into heavy atoms:
               1
     1  C   -0.029276
     2  C    0.100746
     3  C   -0.052678
     4  C   -0.051084
     5  C    0.302828
     6  N   -0.336802
     7  C    0.201109
     8  C    0.248339
     9  O   -0.512369
    10  C    0.252681
    11  C    0.246838
    12  O   -0.514437
    13  C    0.266017
    14  C    0.164797
    15  N   -0.319835
    16  C    0.302810
    17  C   -0.072326
    18  C   -0.047236
    19  C    0.098175
    20  C   -0.031145
    21  C   -0.052359
    22  C   -0.049407
    23  C   -0.065336
    24  C   -0.050049
 APT charges:
               1
     1  C   -1.547172
     2  C    0.732752
     3  C   -0.327703
     4  C   -0.621599
     5  C   -0.672975
     6  N   -0.563279
     7  C   -1.023376
     8  C   -0.900554
     9  O   -0.399066
    10  C   -0.037689
    11  C   -0.889488
    12  O   -0.438127
    13  C   -0.114749
    14  C   -0.925922
    15  N   -0.563666
    16  C   -0.615941
    17  C   -0.704166
    18  C   -0.306830
    19  C    0.484329
    20  C   -1.533534
    21  C   -0.456175
    22  C   -0.578601
    23  C   -0.606291
    24  C   -0.526088
    25  H    0.409756
    26  H    1.037057
    27  H    0.376862
    28  H    1.021046
    29  H    0.387795
    30  H    0.307914
    31  H    0.360774
    32  H    0.751120
    33  H    0.198522
    34  H    0.846709
    35  H    0.110503
    36  H    0.181088
    37  H    0.479419
    38  H    0.522335
    39  H    0.131160
    40  H    0.244438
    41  H    0.528613
    42  H    0.425401
    43  H    0.379789
    44  H    0.461147
    45  H    1.009233
    46  H    1.007754
    47  H    0.832204
    48  H   -0.040067
    49  H    0.570725
    50  H    0.030647
    51  H   -0.044654
    52  H    0.608619
 Sum of APT charges =  -0.00000
 APT charges with hydrogens summed into heavy atoms:
               1
     1  C    0.276503
     2  C    0.732752
     3  C    0.693343
     4  C   -0.233804
     5  C   -0.672975
     6  N   -0.255364
     7  C    0.088518
     8  C    0.144678
     9  O   -0.399066
    10  C    0.253902
    11  C    0.112267
    12  O   -0.438127
    13  C    0.260849
    14  C    0.028092
    15  N   -0.183877
    16  C   -0.615941
    17  C   -0.243019
    18  C    0.702402
    19  C    0.484329
    20  C    0.266358
    21  C    0.114550
    22  C   -0.547954
    23  C   -0.650946
    24  C    0.082531
 Electronic spatial extent (au):  <R**2>=          19550.5709
 Charge=             -0.0000 electrons
 Dipole moment (field-independent basis, Debye):
    X=              1.6434    Y=             -1.6617    Z=             -0.1567  Tot=              2.3423
 Quadrupole moment (field-independent basis, Debye-Ang):
   XX=           -151.7156   YY=           -137.1284   ZZ=           -136.9529
   XY=             -7.2565   XZ=             -6.8659   YZ=             -0.0021
 Traceless Quadrupole moment (field-independent basis, Debye-Ang):
   XX=             -9.7833   YY=              4.8039   ZZ=              4.9794
   XY=             -7.2565   XZ=             -6.8659   YZ=             -0.0021
 Octapole moment (field-independent basis, Debye-Ang**2):
  XXX=            112.1640  YYY=            -26.1178  ZZZ=              3.8246  XYY=             21.2485
  XXY=             22.2320  XXZ=             35.5411  XZZ=            -13.0369  YZZ=             -5.5990
  YYZ=            -19.3697  XYZ=             11.6765
 Hexadecapole moment (field-independent basis, Debye-Ang**3):
 XXXX=         -23234.1785 YYYY=          -3451.9504 ZZZZ=           -701.7349 XXXY=           -313.4734
 XXXZ=            102.1539 YYYX=            -32.5399 YYYZ=             16.6018 ZZZX=            -29.2002
 ZZZY=            -13.4310 XXYY=          -4101.0103 XXZZ=          -3646.2298 YYZZ=           -695.9105
 XXYZ=            -19.7908 YYXZ=            -47.5168 ZZXY=             -7.1945
 N-N= 1.835080310654D+03 E-N=-6.083183577268D+03  KE= 1.029118814501D+03
  Exact polarizability:   0.000   0.000   0.000   0.000   0.000   0.000
 Approx polarizability: 316.255 -19.322 364.375  21.021 -36.147 341.466
 D2PCM: PCM CHGder 2nd derivatives, FixD1E=F FixD2E=F DoIter=F DoCFld=F I1PDM=0
 Calling FoFJK, ICntrl=    100147 FMM=F ISym2X=0 I1Cent= 0 IOpClX= 0 NMat=1 NMatS=1 NMatT=0.
 ***** Axes restored to original set *****
 -------------------------------------------------------------------
 Center     Atomic                   Forces (Hartrees/Bohr)
 Number     Number              X              Y              Z
 -------------------------------------------------------------------
      1        6           0.000283683    0.004144806   -0.001604874
      2        6           0.004193713    0.003230589    0.000648551
      3        6          -0.009477196   -0.005746061   -0.002783040
      4        6           0.009720955    0.001098541    0.010517625
      5        6          -0.009023916    0.005399574   -0.002290440
      6        7           0.000458077    0.001896376    0.002813497
      7        6          -0.004399251   -0.005419194   -0.014803884
      8        6           0.002219406    0.004673163    0.012567305
      9        8           0.001536863   -0.000146421   -0.006238268
     10        6          -0.005966530    0.003902928    0.003079738
     11        6           0.001355029   -0.003002324   -0.003984754
     12        8           0.000824529    0.000843607    0.002209335
     13        6           0.001686713   -0.002126921   -0.007853853
     14        6           0.002098439   -0.000681290    0.009964173
     15        7           0.003522810   -0.004478828   -0.003106751
     16        6          -0.006590204   -0.001453285    0.005202929
     17        6          -0.005063725    0.012184785    0.002781042
     18        6           0.006484023   -0.011266339    0.004311979
     19        6          -0.001627237    0.003468946   -0.003765634
     20        6          -0.005074259    0.001527032   -0.000879325
     21        6           0.002090625   -0.006723821    0.009707155
     22        6           0.002361424    0.000557385   -0.014375865
     23        6           0.007005897    0.006374370   -0.011494472
     24        6          -0.009632167   -0.009359586    0.003533174
     25        1           0.003996144   -0.000225358   -0.000094229
     26        1           0.002686421    0.003539753    0.000560625
     27        1           0.001368847   -0.000830362    0.000171476
     28        1          -0.000598906    0.000098051   -0.000894268
     29        1          -0.001009373   -0.002047399   -0.000916577
     30        1          -0.000595934   -0.000548345    0.004724927
     31        1           0.000192326   -0.001408868   -0.001873618
     32        1           0.003456636   -0.003373312    0.006181243
     33        1           0.001537118    0.000813410   -0.002298007
     34        1          -0.000215370   -0.000124893   -0.000325861
     35        1           0.001632814   -0.002954374   -0.000893694
     36        1           0.000621752   -0.000051431    0.001934987
     37        1          -0.000459404    0.001357019    0.002938572
     38        1          -0.000303818    0.000972053   -0.002292902
     39        1          -0.001555025   -0.001064028    0.002719082
     40        1           0.000203835   -0.000203637   -0.000685562
     41        1          -0.001547280    0.005334069   -0.000522860
     42        1          -0.000448858    0.000977184    0.001274324
     43        1          -0.000727455   -0.002902993   -0.003071164
     44        1           0.001995599   -0.001348854    0.000329464
     45        1          -0.000220493   -0.000376671   -0.001144962
     46        1           0.001747595    0.001055877   -0.001057186
     47        1           0.001690946    0.003199421   -0.001357283
     48        1          -0.002697209    0.002642289   -0.003019215
     49        1          -0.000554513    0.000315476    0.001362193
     50        1           0.001313929    0.000069589    0.002249489
     51        1          -0.000677793   -0.002060782    0.000576074
     52        1           0.000179763    0.000249084    0.001269587
 -------------------------------------------------------------------
 Cartesian Forces:  Max     0.014803884 RMS     0.004307407
 FormGI is forming the generalized inverse of G from B-inverse, IUseBI=4.

 GradGradGradGradGradGradGradGradGradGradGradGradGradGradGradGradGradGrad
 Berny optimization.
 Internal  Forces:  Max     0.011319284 RMS     0.002504265
 Search for a local minimum.
 Step number   1 out of a maximum of  274
 All quantities printed in internal units (Hartrees-Bohrs-Radians)
 Mixed Optimization -- RFO/linear search
 Second derivative matrix not updated -- analytic derivatives used.
 ITU=  0
     Eigenvalues ---   -0.00016  -0.00006   0.00149   0.00230   0.00267
     Eigenvalues ---    0.00379   0.00387   0.00483   0.00541   0.00599
     Eigenvalues ---    0.00623   0.00681   0.00792   0.00983   0.01085
     Eigenvalues ---    0.01568   0.01590   0.01658   0.01682   0.01727
     Eigenvalues ---    0.01727   0.01991   0.02024   0.02200   0.02203
     Eigenvalues ---    0.02306   0.02360   0.02696   0.02734   0.02766
     Eigenvalues ---    0.02776   0.02787   0.02792   0.04265   0.04450
     Eigenvalues ---    0.04647   0.04671   0.04743   0.04855   0.04916
     Eigenvalues ---    0.05019   0.05574   0.05866   0.05869   0.05917
     Eigenvalues ---    0.05921   0.06207   0.06541   0.07024   0.08124
     Eigenvalues ---    0.08168   0.09559   0.09990   0.10088   0.10435
     Eigenvalues ---    0.11015   0.11286   0.11420   0.11435   0.11671
     Eigenvalues ---    0.11686   0.11929   0.11965   0.12323   0.12621
     Eigenvalues ---    0.12651   0.12797   0.12860   0.12939   0.12955
     Eigenvalues ---    0.13503   0.14518   0.14522   0.14666   0.14910
     Eigenvalues ---    0.14929   0.15102   0.16893   0.17616   0.18024
     Eigenvalues ---    0.18112   0.19138   0.19141   0.19470   0.19511
     Eigenvalues ---    0.19669   0.19688   0.20943   0.21633   0.22284
     Eigenvalues ---    0.23145   0.23711   0.24182   0.24836   0.25568
     Eigenvalues ---    0.26060   0.26291   0.26508   0.27249   0.28132
     Eigenvalues ---    0.31002   0.31401   0.32129   0.32218   0.32694
     Eigenvalues ---    0.32940   0.32977   0.33049   0.33162   0.33199
     Eigenvalues ---    0.33285   0.33324   0.33352   0.33384   0.33461
     Eigenvalues ---    0.33540   0.33753   0.33814   0.34076   0.34314
     Eigenvalues ---    0.34390   0.34497   0.34800   0.35173   0.35349
     Eigenvalues ---    0.35384   0.35565   0.35657   0.35797   0.35814
     Eigenvalues ---    0.36053   0.36108   0.36367   0.37158   0.38756
     Eigenvalues ---    0.38950   0.40986   0.41018   0.41298   0.43908
     Eigenvalues ---    0.44416   0.44737   0.45933   0.45956   0.47112
     Eigenvalues ---    0.47344   0.47618   0.47732   0.51495   0.51552
 RFO step:  Lambda=-9.01033333D-03 EMin=-1.56206400D-04
 Linear search not attempted -- first point.
 Iteration  1 RMS(Cart)=  0.13996281 RMS(Int)=  0.01786038
 Iteration  2 RMS(Cart)=  0.02433134 RMS(Int)=  0.00133112
 Iteration  3 RMS(Cart)=  0.00138383 RMS(Int)=  0.00015296
 Iteration  4 RMS(Cart)=  0.00000373 RMS(Int)=  0.00015294
 Iteration  5 RMS(Cart)=  0.00000000 RMS(Int)=  0.00015294
 Variable       Old X    -DE/DX   Delta X   Delta X   Delta X     New X
                                 (Linear)    (Quad)   (Total)
    R1        2.83366   0.01063   0.00000   0.02101   0.02101   2.85466
    R2        2.07076  -0.00032   0.00000  -0.00300  -0.00300   2.06776
    R3        2.06943   0.00086   0.00000   0.00559   0.00559   2.07502
    R4        2.06920  -0.00071   0.00000  -0.00137  -0.00137   2.06783
    R5        2.63999   0.00315   0.00000   0.00399   0.00404   2.64403
    R6        2.63719   0.00586   0.00000   0.01444   0.01449   2.65167
    R7        2.64770  -0.00311   0.00000  -0.00849  -0.00849   2.63921
    R8        2.05637  -0.00101   0.00000  -0.00092  -0.00092   2.05546
    R9        2.64246   0.00593   0.00000   0.01440   0.01435   2.65682
   R10        2.05055   0.00001   0.00000  -0.00176  -0.00176   2.04879
   R11        2.64722   0.00211   0.00000  -0.00171  -0.00171   2.64551
   R12        2.64845   0.00575   0.00000   0.01399   0.01394   2.66239
   R13        2.77143  -0.00045   0.00000  -0.01273  -0.01273   2.75870
   R14        1.92320  -0.00369   0.00000  -0.00752  -0.00752   1.91568
   R15        2.91033  -0.00453   0.00000  -0.01934  -0.01934   2.89099
   R16        2.07070  -0.00233   0.00000  -0.00278  -0.00278   2.06792
   R17        2.07096   0.00446   0.00000   0.01420   0.01420   2.08516
   R18        2.70620  -0.00056   0.00000  -0.01187  -0.01187   2.69433
   R19        2.07071   0.00150   0.00000   0.00736   0.00736   2.07807
   R20        2.06924  -0.00013   0.00000  -0.00072  -0.00072   2.06852
   R21        2.69777   0.00032   0.00000  -0.00035  -0.00035   2.69741
   R22        2.89335   0.00111   0.00000   0.00365   0.00365   2.89701
   R23        2.06780   0.00025   0.00000   0.00122   0.00122   2.06902
   R24        2.06948   0.00072   0.00000   0.00063   0.00063   2.07011
   R25        2.69860  -0.00108   0.00000  -0.00431  -0.00431   2.69429
   R26        2.06987   0.00186   0.00000   0.00525   0.00525   2.07512
   R27        2.07080   0.00012   0.00000  -0.00089  -0.00089   2.06991
   R28        2.70484  -0.00045   0.00000  -0.00761  -0.00761   2.69723
   R29        2.90184   0.00068   0.00000   0.00539   0.00539   2.90723
   R30        2.06998   0.00137   0.00000   0.00578   0.00578   2.07576
   R31        2.06830   0.00029   0.00000   0.00006   0.00006   2.06836
   R32        2.76441  -0.00330   0.00000  -0.01308  -0.01308   2.75133
   R33        2.07039  -0.00151   0.00000  -0.00272  -0.00272   2.06767
   R34        2.07068   0.00001   0.00000  -0.00168  -0.00168   2.06900
   R35        2.63874   0.00440   0.00000   0.00315   0.00315   2.64190
   R36        1.92155  -0.00387   0.00000  -0.00862  -0.00862   1.91292
   R37        2.65139   0.00456   0.00000   0.01047   0.01040   2.66179
   R38        2.64324   0.00599   0.00000   0.01684   0.01677   2.66002
   R39        2.64397  -0.00428   0.00000  -0.01358  -0.01358   2.63039
   R40        2.05539   0.00025   0.00000  -0.00014  -0.00014   2.05524
   R41        2.63819   0.00515   0.00000   0.01102   0.01109   2.64928
   R42        2.05535  -0.00074   0.00000  -0.00010  -0.00010   2.05525
   R43        2.83198   0.01132   0.00000   0.02265   0.02265   2.85463
   R44        2.64072   0.00282   0.00000   0.00559   0.00566   2.64638
   R45        2.07125  -0.00130   0.00000  -0.00373  -0.00373   2.06752
   R46        2.07215  -0.00098   0.00000  -0.00250  -0.00250   2.06965
   R47        2.06969   0.00099   0.00000   0.00409   0.00409   2.07377
   R48        2.64718  -0.00313   0.00000  -0.01094  -0.01094   2.63624
   R49        2.05726  -0.00137   0.00000  -0.00162  -0.00162   2.05564
   R50        2.05301  -0.00064   0.00000  -0.00332  -0.00332   2.04969
   R51        2.64561  -0.00537   0.00000  -0.01755  -0.01755   2.62806
   R52        2.05471   0.00048   0.00000   0.00042   0.00042   2.05513
   R53        2.05620  -0.00104   0.00000  -0.00095  -0.00095   2.05525
    A1        1.92599   0.00332   0.00000   0.01944   0.01930   1.94529
    A2        1.92166   0.00476   0.00000   0.02554   0.02549   1.94715
    A3        1.94382  -0.00023   0.00000  -0.00080  -0.00087   1.94295
    A4        1.90564  -0.00501   0.00000  -0.03496  -0.03507   1.87057
    A5        1.87466  -0.00064   0.00000   0.01065   0.01050   1.88516
    A6        1.89090  -0.00258   0.00000  -0.02193  -0.02191   1.86898
    A7        2.09836   0.00343   0.00000   0.02164   0.02155   2.11991
    A8        2.11481   0.00253   0.00000   0.00406   0.00398   2.11879
    A9        2.06997  -0.00596   0.00000  -0.02589  -0.02591   2.04406
   A10        2.10595   0.00525   0.00000   0.02372   0.02370   2.12965
   A11        2.09887  -0.00294   0.00000  -0.01518  -0.01519   2.08368
   A12        2.07832  -0.00230   0.00000  -0.00845  -0.00847   2.06985
   A13        2.11705  -0.00274   0.00000  -0.01388  -0.01398   2.10307
   A14        2.05186   0.00366   0.00000   0.02438   0.02442   2.07628
   A15        2.11428  -0.00092   0.00000  -0.01050  -0.01045   2.10382
   A16        2.16294  -0.00434   0.00000  -0.01651  -0.01684   2.14610
   A17        2.04897   0.00059   0.00000   0.00650   0.00598   2.05495
   A18        2.06562   0.00395   0.00000   0.01502   0.01475   2.08037
   A19        2.08771   0.00256   0.00000   0.01996   0.01983   2.10754
   A20        1.93479   0.00156   0.00000   0.01862   0.01859   1.95338
   A21        1.97516  -0.00361   0.00000  -0.01655  -0.01685   1.95830
   A22        1.94406   0.00214   0.00000   0.01221   0.01172   1.95578
   A23        1.92636  -0.00227   0.00000  -0.01775  -0.01753   1.90883
   A24        1.89713   0.00398   0.00000   0.05174   0.05141   1.94854
   A25        1.89277  -0.00107   0.00000  -0.01560  -0.01568   1.87709
   A26        1.89449  -0.00154   0.00000   0.00087  -0.00018   1.89431
   A27        1.90856  -0.00131   0.00000  -0.03240  -0.03230   1.87626
   A28        1.95752   0.00564   0.00000   0.02350   0.02346   1.98098
   A29        1.95989  -0.00413   0.00000  -0.02970  -0.02968   1.93021
   A30        1.88293  -0.00038   0.00000   0.00321   0.00297   1.88590
   A31        1.94144  -0.00098   0.00000  -0.00092  -0.00076   1.94069
   A32        1.84253  -0.00122   0.00000   0.00605   0.00584   1.84837
   A33        1.87256   0.00109   0.00000  -0.00071  -0.00080   1.87176
   A34        1.98975   0.00800   0.00000   0.03323   0.03323   2.02298
   A35        1.92956   0.00102   0.00000   0.00327   0.00319   1.93276
   A36        1.96656  -0.00105   0.00000  -0.01407  -0.01417   1.95239
   A37        1.86609  -0.00139   0.00000  -0.00824  -0.00825   1.85784
   A38        1.93442  -0.00150   0.00000  -0.01336  -0.01344   1.92098
   A39        1.91145   0.00170   0.00000   0.01239   0.01240   1.92385
   A40        1.85231   0.00133   0.00000   0.02181   0.02184   1.87415
   A41        1.95514   0.00076   0.00000  -0.01022  -0.01030   1.94484
   A42        1.93272  -0.00201   0.00000  -0.01311  -0.01316   1.91956
   A43        1.90833   0.00051   0.00000   0.00592   0.00592   1.91425
   A44        1.94643   0.00076   0.00000   0.00367   0.00352   1.94995
   A45        1.86662  -0.00147   0.00000  -0.00543  -0.00543   1.86119
   A46        1.85003   0.00152   0.00000   0.02146   0.02150   1.87152
   A47        1.99331   0.00402   0.00000   0.01141   0.01141   2.00473
   A48        1.94505   0.00199   0.00000  -0.00219  -0.00222   1.94283
   A49        1.94144   0.00090   0.00000   0.00545   0.00536   1.94680
   A50        1.85813  -0.00106   0.00000   0.00204   0.00203   1.86016
   A51        1.93794  -0.00319   0.00000  -0.01812  -0.01814   1.91980
   A52        1.91577   0.00002   0.00000   0.00165   0.00167   1.91745
   A53        1.86181   0.00141   0.00000   0.01277   0.01276   1.87458
   A54        1.96468   0.00696   0.00000   0.02855   0.02833   1.99301
   A55        1.93554  -0.00279   0.00000  -0.02758  -0.02751   1.90804
   A56        1.90262  -0.00064   0.00000   0.00876   0.00851   1.91113
   A57        1.95584  -0.00466   0.00000  -0.03802  -0.03797   1.91787
   A58        1.87446  -0.00184   0.00000   0.00175   0.00136   1.87582
   A59        1.82348   0.00274   0.00000   0.02889   0.02908   1.85257
   A60        2.11969   0.00217   0.00000   0.01946   0.01908   2.13877
   A61        1.97296  -0.00190   0.00000   0.00233   0.00186   1.97481
   A62        1.96055   0.00042   0.00000   0.00978   0.00937   1.96992
   A63        2.06769   0.00360   0.00000   0.01384   0.01379   2.08148
   A64        2.16203  -0.00353   0.00000  -0.01451  -0.01459   2.14744
   A65        2.04873   0.00004   0.00000   0.00383   0.00343   2.05216
   A66        2.12257  -0.00184   0.00000  -0.00976  -0.00993   2.11265
   A67        2.09479  -0.00141   0.00000  -0.01264  -0.01257   2.08222
   A68        2.06582   0.00325   0.00000   0.02240   0.02248   2.08830
   A69        2.09998   0.00535   0.00000   0.02396   0.02393   2.12391
   A70        2.07871  -0.00177   0.00000  -0.00461  -0.00461   2.07410
   A71        2.10447  -0.00358   0.00000  -0.01930  -0.01930   2.08517
   A72        2.11203   0.00301   0.00000   0.01041   0.01038   2.12240
   A73        2.07137  -0.00671   0.00000  -0.02897  -0.02893   2.04244
   A74        2.09949   0.00370   0.00000   0.01866   0.01863   2.11812
   A75        1.94228   0.00016   0.00000   0.00013   0.00007   1.94235
   A76        1.92965   0.00278   0.00000   0.01604   0.01593   1.94557
   A77        1.91813   0.00537   0.00000   0.03010   0.03003   1.94816
   A78        1.87423  -0.00056   0.00000   0.00756   0.00746   1.88168
   A79        1.89384  -0.00320   0.00000  -0.02031  -0.02033   1.87351
   A80        1.90463  -0.00494   0.00000  -0.03570  -0.03582   1.86881
   A81        2.10528   0.00560   0.00000   0.02515   0.02511   2.13040
   A82        2.10091  -0.00336   0.00000  -0.01721  -0.01722   2.08369
   A83        2.07691  -0.00224   0.00000  -0.00780  -0.00781   2.06910
   A84        2.11708  -0.00239   0.00000  -0.01220  -0.01237   2.10471
   A85        2.11387  -0.00115   0.00000  -0.01079  -0.01072   2.10315
   A86        2.05224   0.00353   0.00000   0.02300   0.02307   2.07531
   A87        2.12225  -0.00195   0.00000  -0.01036  -0.01047   2.11178
   A88        2.09347  -0.00109   0.00000  -0.01182  -0.01177   2.08170
   A89        2.06746   0.00304   0.00000   0.02216   0.02221   2.08967
   A90        2.10091   0.00487   0.00000   0.02186   0.02185   2.12276
   A91        2.10251  -0.00314   0.00000  -0.01743  -0.01743   2.08508
   A92        2.07972  -0.00173   0.00000  -0.00440  -0.00440   2.07533
    D1       -0.85247   0.00068   0.00000   0.30853   0.30842  -0.54405
    D2        2.29993   0.00088   0.00000   0.33001   0.33014   2.63007
    D3        1.25235  -0.00033   0.00000   0.29403   0.29396   1.54631
    D4       -1.87844  -0.00013   0.00000   0.31550   0.31568  -1.56276
    D5       -2.93290  -0.00055   0.00000   0.28297   0.28279  -2.65012
    D6        0.21950  -0.00035   0.00000   0.30445   0.30450   0.52400
    D7       -3.13021   0.00033   0.00000   0.02724   0.02724  -3.10298
    D8        0.02141  -0.00016   0.00000   0.01688   0.01693   0.03834
    D9        0.00085   0.00018   0.00000   0.00649   0.00658   0.00743
   D10       -3.13071  -0.00030   0.00000  -0.00388  -0.00373  -3.13444
   D11        3.13187  -0.00016   0.00000  -0.02415  -0.02394   3.10793
   D12       -0.01881  -0.00002   0.00000  -0.02053  -0.02032  -0.03912
   D13        0.00091  -0.00002   0.00000  -0.00330  -0.00340  -0.00249
   D14        3.13342   0.00012   0.00000   0.00032   0.00022   3.13364
   D15        0.02597  -0.00091   0.00000  -0.02734  -0.02727  -0.00131
   D16       -3.11676  -0.00090   0.00000  -0.02087  -0.02071  -3.13747
   D17       -3.12555  -0.00044   0.00000  -0.01714  -0.01708   3.14056
   D18        0.01491  -0.00043   0.00000  -0.01066  -0.01051   0.00440
   D19       -3.07778  -0.00085   0.00000  -0.00937  -0.00907  -3.08685
   D20       -0.05247   0.00140   0.00000   0.04292   0.04285  -0.00962
   D21        0.06499  -0.00087   0.00000  -0.01610  -0.01576   0.04922
   D22        3.09030   0.00139   0.00000   0.03619   0.03615   3.12645
   D23       -0.38547   0.00035   0.00000   0.02788   0.02801  -0.35746
   D24       -2.73287   0.00147   0.00000   0.01052   0.01024  -2.72262
   D25        2.87344  -0.00171   0.00000  -0.02431  -0.02404   2.84939
   D26        0.52604  -0.00059   0.00000  -0.04168  -0.04181   0.48423
   D27        0.05442  -0.00122   0.00000  -0.03978  -0.03991   0.01451
   D28       -3.08313  -0.00115   0.00000  -0.03388  -0.03411  -3.11725
   D29        3.08641   0.00034   0.00000   0.00737   0.00783   3.09424
   D30       -0.05115   0.00042   0.00000   0.01326   0.01363  -0.03752
   D31       -3.12442  -0.00164   0.00000  -0.04120  -0.04149   3.11728
   D32        1.05518  -0.00017   0.00000  -0.01765  -0.01769   1.03749
   D33       -1.03790   0.00033   0.00000   0.00055   0.00116  -1.03674
   D34       -0.79391  -0.00054   0.00000  -0.00831  -0.00879  -0.80270
   D35       -2.89750   0.00093   0.00000   0.01524   0.01501  -2.88249
   D36        1.29260   0.00142   0.00000   0.03344   0.03386   1.32646
   D37       -1.46870   0.00328   0.00000   0.06983   0.06991  -1.39879
   D38        0.73273   0.00318   0.00000   0.06363   0.06355   0.79629
   D39        2.79262   0.00186   0.00000   0.04747   0.04745   2.84007
   D40        0.65452   0.00109   0.00000   0.04505   0.04506   0.69958
   D41        2.85595   0.00099   0.00000   0.03886   0.03870   2.89465
   D42       -1.36735  -0.00033   0.00000   0.02269   0.02260  -1.34474
   D43        2.72640  -0.00195   0.00000  -0.00204  -0.00187   2.72453
   D44       -1.35535  -0.00205   0.00000  -0.00823  -0.00823  -1.36357
   D45        0.70454  -0.00337   0.00000  -0.02439  -0.02433   0.68021
   D46        1.52808  -0.00067   0.00000   0.01797   0.01791   1.54599
   D47       -0.68334   0.00119   0.00000   0.03988   0.03984  -0.64350
   D48       -2.70894   0.00108   0.00000   0.03774   0.03784  -2.67110
   D49        1.59550  -0.00136   0.00000  -0.02249  -0.02245   1.57305
   D50       -0.57980   0.00060   0.00000   0.00304   0.00301  -0.57678
   D51       -2.60820   0.00042   0.00000  -0.01068  -0.01069  -2.61889
   D52       -3.05380   0.00066   0.00000  -0.01789  -0.01785  -3.07165
   D53        1.04442   0.00063   0.00000  -0.00506  -0.00513   1.03929
   D54       -0.98779  -0.00036   0.00000  -0.02710  -0.02711  -1.01490
   D55       -0.86030  -0.00105   0.00000  -0.04356  -0.04348  -0.90378
   D56       -3.04526  -0.00108   0.00000  -0.03073  -0.03076  -3.07602
   D57        1.20572  -0.00207   0.00000  -0.05277  -0.05274   1.15298
   D58        1.17756   0.00072   0.00000  -0.01729  -0.01726   1.16030
   D59       -1.00740   0.00069   0.00000  -0.00447  -0.00454  -1.01194
   D60       -3.03961  -0.00030   0.00000  -0.02651  -0.02652  -3.06613
   D61       -1.43117  -0.00066   0.00000  -0.06360  -0.06356  -1.49473
   D62        0.74622  -0.00216   0.00000  -0.08587  -0.08589   0.66033
   D63        2.76141  -0.00079   0.00000  -0.06142  -0.06144   2.69998
   D64       -1.50473   0.00016   0.00000  -0.03377  -0.03376  -1.53848
   D65        0.66816  -0.00186   0.00000  -0.05500  -0.05505   0.61311
   D66        2.68991  -0.00033   0.00000  -0.03581  -0.03579   2.65413
   D67        3.11053   0.00180   0.00000   0.03165   0.03177  -3.14089
   D68       -0.96574  -0.00121   0.00000  -0.01884  -0.01879  -0.98453
   D69        1.03257   0.00017   0.00000   0.00577   0.00567   1.03825
   D70        0.93567   0.00153   0.00000   0.03962   0.03969   0.97536
   D71       -3.14059  -0.00148   0.00000  -0.01087  -0.01087   3.13172
   D72       -1.14228  -0.00009   0.00000   0.01374   0.01359  -1.12869
   D73       -1.11860   0.00171   0.00000   0.03387   0.03397  -1.08462
   D74        1.08832  -0.00130   0.00000  -0.01662  -0.01658   1.07174
   D75        3.08664   0.00009   0.00000   0.00800   0.00788   3.09451
   D76        1.24430  -0.00107   0.00000  -0.02179  -0.02182   1.22247
   D77       -1.16573  -0.00204   0.00000  -0.06793  -0.06799  -1.23372
   D78       -0.95168   0.00087   0.00000   0.02312   0.02311  -0.92858
   D79        2.92147  -0.00009   0.00000  -0.02302  -0.02306   2.89841
[...]
   297    C   20  dxz    Ryd( 3d)     0.00016
   298    C   20  dyz    Ryd( 3d)     0.00084
   299    C   20  dx2y2  Ryd( 3d)     0.00067
   300    C   20  dz2    Ryd( 3d)     0.00062

   301    C   21  S      Cor( 1S)     1.99906
   302    C   21  S      Val( 2S)     0.94195
   303    C   21  S      Ryd( 3S)     0.00068
   304    C   21  S      Ryd( 4S)     0.00004
   305    C   21  px     Val( 2p)     1.09749
   306    C   21  px     Ryd( 3p)     0.00553
   307    C   21  py     Val( 2p)     1.11631
   308    C   21  py     Ryd( 3p)     0.00500
   309    C   21  pz     Val( 2p)     1.16731
   310    C   21  pz     Ryd( 3p)     0.00501
   311    C   21  dxy    Ryd( 3d)     0.00041
   312    C   21  dxz    Ryd( 3d)     0.00044
   313    C   21  dyz    Ryd( 3d)     0.00057
   314    C   21  dx2y2  Ryd( 3d)     0.00058
   315    C   21  dz2    Ryd( 3d)     0.00057

   316    C   22  S      Cor( 1S)     1.99907
   317    C   22  S      Val( 2S)     0.94290
   318    C   22  S      Ryd( 3S)     0.00069
   319    C   22  S      Ryd( 4S)     0.00004
   320    C   22  px     Val( 2p)     1.15905
   321    C   22  px     Ryd( 3p)     0.00600
   322    C   22  py     Val( 2p)     1.11235
   323    C   22  py     Ryd( 3p)     0.00557
   324    C   22  pz     Val( 2p)     1.13156
   325    C   22  pz     Ryd( 3p)     0.00474
   326    C   22  dxy    Ryd( 3d)     0.00043
   327    C   22  dxz    Ryd( 3d)     0.00055
   328    C   22  dyz    Ryd( 3d)     0.00053
   329    C   22  dx2y2  Ryd( 3d)     0.00057
   330    C   22  dz2    Ryd( 3d)     0.00049

   331    C   23  S      Cor( 1S)     1.99906
   332    C   23  S      Val( 2S)     0.95218
   333    C   23  S      Ryd( 3S)     0.00068
   334    C   23  S      Ryd( 4S)     0.00004
   335    C   23  px     Val( 2p)     1.13734
   336    C   23  px     Ryd( 3p)     0.00333
   337    C   23  py     Val( 2p)     1.05909
   338    C   23  py     Ryd( 3p)     0.00350
   339    C   23  pz     Val( 2p)     1.11929
   340    C   23  pz     Ryd( 3p)     0.00272
   341    C   23  dxy    Ryd( 3d)     0.00043
   342    C   23  dxz    Ryd( 3d)     0.00057
   343    C   23  dyz    Ryd( 3d)     0.00051
   344    C   23  dx2y2  Ryd( 3d)     0.00061
   345    C   23  dz2    Ryd( 3d)     0.00035

   346    C   24  S      Cor( 1S)     1.99905
   347    C   24  S      Val( 2S)     0.95134
   348    C   24  S      Ryd( 3S)     0.00062
   349    C   24  S      Ryd( 4S)     0.00005
   350    C   24  px     Val( 2p)     1.04427
   351    C   24  px     Ryd( 3p)     0.00278
   352    C   24  py     Val( 2p)     1.15007
   353    C   24  py     Ryd( 3p)     0.00403
   354    C   24  pz     Val( 2p)     1.07014
   355    C   24  pz     Ryd( 3p)     0.00253
   356    C   24  dxy    Ryd( 3d)     0.00048
   357    C   24  dxz    Ryd( 3d)     0.00045
   358    C   24  dyz    Ryd( 3d)     0.00062
   359    C   24  dx2y2  Ryd( 3d)     0.00066
   360    C   24  dz2    Ryd( 3d)     0.00045

   361    H   25  S      Val( 1S)     0.75709
   362    H   25  S      Ryd( 2S)     0.00079
   363    H   25  px     Ryd( 2p)     0.00022
   364    H   25  py     Ryd( 2p)     0.00011
   365    H   25  pz     Ryd( 2p)     0.00018

   366    H   26  S      Val( 1S)     0.75457
   367    H   26  S      Ryd( 2S)     0.00093
   368    H   26  px     Ryd( 2p)     0.00015
   369    H   26  py     Ryd( 2p)     0.00011
   370    H   26  pz     Ryd( 2p)     0.00028

   371    H   27  S      Val( 1S)     0.75399
   372    H   27  S      Ryd( 2S)     0.00097
   373    H   27  px     Ryd( 2p)     0.00013
   374    H   27  py     Ryd( 2p)     0.00027
   375    H   27  pz     Ryd( 2p)     0.00014

   376    H   28  S      Val( 1S)     0.75822
   377    H   28  S      Ryd( 2S)     0.00097
   378    H   28  px     Ryd( 2p)     0.00026
   379    H   28  py     Ryd( 2p)     0.00009
   380    H   28  pz     Ryd( 2p)     0.00025

   381    H   29  S      Val( 1S)     0.75492
   382    H   29  S      Ryd( 2S)     0.00080
   383    H   29  px     Ryd( 2p)     0.00008
   384    H   29  py     Ryd( 2p)     0.00032
   385    H   29  pz     Ryd( 2p)     0.00020

   386    H   30  S      Val( 1S)     0.58259
   387    H   30  S      Ryd( 2S)     0.00203
   388    H   30  px     Ryd( 2p)     0.00043
   389    H   30  py     Ryd( 2p)     0.00024
   390    H   30  pz     Ryd( 2p)     0.00062

   391    H   31  S      Val( 1S)     0.75686
   392    H   31  S      Ryd( 2S)     0.00226
   393    H   31  px     Ryd( 2p)     0.00011
   394    H   31  py     Ryd( 2p)     0.00007
   395    H   31  pz     Ryd( 2p)     0.00038

   396    H   32  S      Val( 1S)     0.77291
   397    H   32  S      Ryd( 2S)     0.00285
   398    H   32  px     Ryd( 2p)     0.00028
   399    H   32  py     Ryd( 2p)     0.00014
   400    H   32  pz     Ryd( 2p)     0.00014

   401    H   33  S      Val( 1S)     0.78638
   402    H   33  S      Ryd( 2S)     0.00182
   403    H   33  px     Ryd( 2p)     0.00012
   404    H   33  py     Ryd( 2p)     0.00010
   405    H   33  pz     Ryd( 2p)     0.00037

   406    H   34  S      Val( 1S)     0.76095
   407    H   34  S      Ryd( 2S)     0.00116
   408    H   34  px     Ryd( 2p)     0.00007
   409    H   34  py     Ryd( 2p)     0.00040
   410    H   34  pz     Ryd( 2p)     0.00009

   411    H   35  S      Val( 1S)     0.78427
   412    H   35  S      Ryd( 2S)     0.00270
   413    H   35  px     Ryd( 2p)     0.00016
   414    H   35  py     Ryd( 2p)     0.00022
   415    H   35  pz     Ryd( 2p)     0.00022

   416    H   36  S      Val( 1S)     0.77181
   417    H   36  S      Ryd( 2S)     0.00122
   418    H   36  px     Ryd( 2p)     0.00011
   419    H   36  py     Ryd( 2p)     0.00017
   420    H   36  pz     Ryd( 2p)     0.00029

   421    H   37  S      Val( 1S)     0.78460
   422    H   37  S      Ryd( 2S)     0.00235
   423    H   37  px     Ryd( 2p)     0.00013
   424    H   37  py     Ryd( 2p)     0.00022
   425    H   37  pz     Ryd( 2p)     0.00023

   426    H   38  S      Val( 1S)     0.76952
   427    H   38  S      Ryd( 2S)     0.00117
   428    H   38  px     Ryd( 2p)     0.00011
   429    H   38  py     Ryd( 2p)     0.00017
   430    H   38  pz     Ryd( 2p)     0.00029

   431    H   39  S      Val( 1S)     0.77996
   432    H   39  S      Ryd( 2S)     0.00186
   433    H   39  px     Ryd( 2p)     0.00012
   434    H   39  py     Ryd( 2p)     0.00010
   435    H   39  pz     Ryd( 2p)     0.00037

   436    H   40  S      Val( 1S)     0.75893
   437    H   40  S      Ryd( 2S)     0.00318
   438    H   40  px     Ryd( 2p)     0.00010
   439    H   40  py     Ryd( 2p)     0.00038
   440    H   40  pz     Ryd( 2p)     0.00009

   441    H   41  S      Val( 1S)     0.73939
   442    H   41  S      Ryd( 2S)     0.00216
   443    H   41  px     Ryd( 2p)     0.00008
   444    H   41  py     Ryd( 2p)     0.00009
   445    H   41  pz     Ryd( 2p)     0.00037

   446    H   42  S      Val( 1S)     0.73676
   447    H   42  S      Ryd( 2S)     0.00109
   448    H   42  px     Ryd( 2p)     0.00010
   449    H   42  py     Ryd( 2p)     0.00037
   450    H   42  pz     Ryd( 2p)     0.00007

   451    H   43  S      Val( 1S)     0.55592
   452    H   43  S      Ryd( 2S)     0.00225
   453    H   43  px     Ryd( 2p)     0.00025
   454    H   43  py     Ryd( 2p)     0.00032
   455    H   43  pz     Ryd( 2p)     0.00061

   456    H   44  S      Val( 1S)     0.77181
   457    H   44  S      Ryd( 2S)     0.00116
   458    H   44  px     Ryd( 2p)     0.00015
   459    H   44  py     Ryd( 2p)     0.00018
   460    H   44  pz     Ryd( 2p)     0.00034

   461    H   45  S      Val( 1S)     0.77383
   462    H   45  S      Ryd( 2S)     0.00095
   463    H   45  px     Ryd( 2p)     0.00025
   464    H   45  py     Ryd( 2p)     0.00016
   465    H   45  pz     Ryd( 2p)     0.00026

   466    H   46  S      Val( 1S)     0.74553
   467    H   46  S      Ryd( 2S)     0.00131
   468    H   46  px     Ryd( 2p)     0.00033
   469    H   46  py     Ryd( 2p)     0.00012
   470    H   46  pz     Ryd( 2p)     0.00010

   471    H   47  S      Val( 1S)     0.75630
   472    H   47  S      Ryd( 2S)     0.00094
   473    H   47  px     Ryd( 2p)     0.00008
   474    H   47  py     Ryd( 2p)     0.00013
   475    H   47  pz     Ryd( 2p)     0.00028

   476    H   48  S      Val( 1S)     0.74917
   477    H   48  S      Ryd( 2S)     0.00177
   478    H   48  px     Ryd( 2p)     0.00009
   479    H   48  py     Ryd( 2p)     0.00022
   480    H   48  pz     Ryd( 2p)     0.00022

   481    H   49  S      Val( 1S)     0.77208
   482    H   49  S      Ryd( 2S)     0.00100
   483    H   49  px     Ryd( 2p)     0.00013
   484    H   49  py     Ryd( 2p)     0.00019
   485    H   49  pz     Ryd( 2p)     0.00033

   486    H   50  S      Val( 1S)     0.76811
   487    H   50  S      Ryd( 2S)     0.00106
   488    H   50  px     Ryd( 2p)     0.00026
   489    H   50  py     Ryd( 2p)     0.00014
   490    H   50  pz     Ryd( 2p)     0.00028

   491    H   51  S      Val( 1S)     0.75700
   492    H   51  S      Ryd( 2S)     0.00098
   493    H   51  px     Ryd( 2p)     0.00026
   494    H   51  py     Ryd( 2p)     0.00009
   495    H   51  pz     Ryd( 2p)     0.00025

   496    H   52  S      Val( 1S)     0.75713
   497    H   52  S      Ryd( 2S)     0.00096
   498    H   52  px     Ryd( 2p)     0.00008
   499    H   52  py     Ryd( 2p)     0.00033
   500    H   52  pz     Ryd( 2p)     0.00019

 WARNING:  1 low occupancy (<1.9990e) core orbital  found on  C   16


 Summary of Natural Population Analysis:                  
                                                          
                                       Natural Population 
                Natural  -----------------------------------------------
    Atom  No    Charge         Core      Valence    Rydberg      Total
 -----------------------------------------------------------------------
      C    1   -0.70010      1.99940     4.69382    0.00687     6.70010
      C    2   -0.07425      1.99902     4.06113    0.01410     6.07425
      C    3   -0.22675      1.99905     4.21490    0.01280     6.22675
      C    4   -0.30289      1.99905     4.29193    0.01190     6.30289
      C    5    0.16396      1.99901     3.81934    0.01769     5.83604
      N    6   -0.65937      1.99941     5.64695    0.01301     7.65937
      C    7   -0.29359      1.99932     4.28014    0.01413     6.29359
      C    8   -0.11770      1.99925     4.09884    0.01962     6.11770
      O    9   -0.60168      1.99980     6.58914    0.01274     8.60168
      C   10   -0.13300      1.99927     4.11346    0.02027     6.13300
      C   11   -0.13935      1.99927     4.12041    0.01967     6.13935
      O   12   -0.58295      1.99981     6.57083    0.01231     8.58295
      C   13   -0.11686      1.99924     4.09910    0.01852     6.11686
      C   14   -0.31395      1.99931     4.29648    0.01817     6.31395
      N   15   -0.44629      1.99940     5.43600    0.01089     7.44629
      C   16    0.16327      1.99898     3.81818    0.01957     5.83673
      C   17   -0.35025      1.99908     4.33132    0.01985     6.35025
      C   18   -0.36403      1.99906     4.34577    0.01919     6.36403
      C   19    0.04813      1.99903     3.93778    0.01506     5.95187
      C   20   -0.70884      1.99939     4.70222    0.00723     6.70884
      C   21   -0.34095      1.99906     4.32305    0.01883     6.34095
      C   22   -0.36455      1.99907     4.34586    0.01962     6.36455
      C   23   -0.27970      1.99906     4.26791    0.01274     6.27970
      C   24   -0.22754      1.99905     4.21582    0.01267     6.22754
      H   25    0.24162      0.00000     0.75709    0.00129     0.75838
      H   26    0.24397      0.00000     0.75457    0.00146     0.75603
      H   27    0.24450      0.00000     0.75399    0.00151     0.75550
      H   28    0.24022      0.00000     0.75822    0.00156     0.75978
      H   29    0.24367      0.00000     0.75492    0.00141     0.75633
      H   30    0.41409      0.00000     0.58259    0.00332     0.58591
      H   31    0.24032      0.00000     0.75686    0.00281     0.75968
      H   32    0.22368      0.00000     0.77291    0.00341     0.77632
      H   33    0.21121      0.00000     0.78638    0.00241     0.78879
      H   34    0.23732      0.00000     0.76095    0.00173     0.76268
      H   35    0.21244      0.00000     0.78427    0.00329     0.78756
      H   36    0.22640      0.00000     0.77181    0.00179     0.77360
      H   37    0.21247      0.00000     0.78460    0.00293     0.78753
      H   38    0.22875      0.00000     0.76952    0.00173     0.77125
      H   39    0.21759      0.00000     0.77996    0.00245     0.78241
      H   40    0.23732      0.00000     0.75893    0.00375     0.76268
      H   41    0.25791      0.00000     0.73939    0.00270     0.74209
      H   42    0.26162      0.00000     0.73676    0.00163     0.73838
      H   43    0.44065      0.00000     0.55592    0.00343     0.55935
      H   44    0.22636      0.00000     0.77181    0.00184     0.77364
      H   45    0.22456      0.00000     0.77383    0.00162     0.77544
      H   46    0.25261      0.00000     0.74553    0.00186     0.74739
      H   47    0.24226      0.00000     0.75630    0.00144     0.75774
      H   48    0.24853      0.00000     0.74917    0.00230     0.75147
      H   49    0.22626      0.00000     0.77208    0.00166     0.77374
      H   50    0.23015      0.00000     0.76811    0.00174     0.76985
      H   51    0.24142      0.00000     0.75700    0.00157     0.75858
      H   52    0.24131      0.00000     0.75713    0.00156     0.75869
 =======================================================================
   * Total *   -0.00000     47.98140   129.59095    0.42765   178.00000

                                 Natural Population      
 --------------------------------------------------------
   Core                      47.98140 ( 99.9612% of  48)
   Valence                  129.59095 ( 99.6853% of 130)
   Natural Minimal Basis    177.57235 ( 99.7597% of 178)
   Natural Rydberg Basis      0.42765 (  0.2403% of 178)
 --------------------------------------------------------

    Atom  No          Natural Electron Configuration
 ----------------------------------------------------------------------------
      C    1      [core]2S( 1.10)2p( 3.60)
      C    2      [core]2S( 0.88)2p( 3.18)3p( 0.01)
      C    3      [core]2S( 0.95)2p( 3.26)3p( 0.01)
      C    4      [core]2S( 0.95)2p( 3.34)3p( 0.01)
      C    5      [core]2S( 0.84)2p( 2.98)3p( 0.01)
      N    6      [core]2S( 1.28)2p( 4.37)3p( 0.01)
      C    7      [core]2S( 1.03)2p( 3.25)3p( 0.01)
      C    8      [core]2S( 1.02)2p( 3.08)3p( 0.01)3d( 0.01)
      O    9      [core]2S( 1.62)2p( 4.97)3p( 0.01)
      C   10      [core]2S( 1.04)2p( 3.08)3p( 0.01)3d( 0.01)
      C   11      [core]2S( 1.04)2p( 3.08)3p( 0.01)3d( 0.01)
      O   12      [core]2S( 1.62)2p( 4.95)3p( 0.01)3d( 0.01)
      C   13      [core]2S( 1.04)2p( 3.06)3p( 0.01)3d( 0.01)
      C   14      [core]2S( 1.04)2p( 3.26)3p( 0.01)
      N   15      [core]2S( 1.28)2p( 4.16)3p( 0.01)
      C   16      [core]2S( 0.85)2p( 2.97)3p( 0.01)3d( 0.01)
      C   17      [core]2S( 0.94)2p( 3.39)3p( 0.02)
      C   18      [core]2S( 0.94)2p( 3.41)3p( 0.02)
      C   19      [core]2S( 0.89)2p( 3.04)3p( 0.01)
      C   20      [core]2S( 1.10)2p( 3.60)
      C   21      [core]2S( 0.94)2p( 3.38)3p( 0.02)
      C   22      [core]2S( 0.94)2p( 3.40)3p( 0.02)
      C   23      [core]2S( 0.95)2p( 3.32)3p( 0.01)
      C   24      [core]2S( 0.95)2p( 3.26)3p( 0.01)
      H   25            1S( 0.76)
      H   26            1S( 0.75)
      H   27            1S( 0.75)
      H   28            1S( 0.76)
      H   29            1S( 0.75)
      H   30            1S( 0.58)
      H   31            1S( 0.76)
      H   32            1S( 0.77)
      H   33            1S( 0.79)
      H   34            1S( 0.76)
      H   35            1S( 0.78)
      H   36            1S( 0.77)
      H   37            1S( 0.78)
      H   38            1S( 0.77)
      H   39            1S( 0.78)
      H   40            1S( 0.76)
      H   41            1S( 0.74)
      H   42            1S( 0.74)
      H   43            1S( 0.56)
      H   44            1S( 0.77)
      H   45            1S( 0.77)
      H   46            1S( 0.75)
      H   47            1S( 0.76)
      H   48            1S( 0.75)
      H   49            1S( 0.77)
      H   50            1S( 0.77)
      H   51            1S( 0.76)
      H   52            1S( 0.76)


 NBO analysis skipped by request.
 1\1\GINC-DRG2-W004\SP\RB3LYP TD-FC\6-31G(d,p)\C20H28N2O2\QDUEZ\19-Jul-
 2024\0\\# TD(NStates=10, Root=1) B3LYP/6-31G** SCRF=(Solvent=water) vo
 lume pop=NPA density=current Geom=AllCheck Guess=Read\\RRZROWKVNHGBPP-
 UHFFFAOYSA-N_conf_1\\0,1\C,0,8.4192893248,2.4981646402,-0.3176355878\C
 ,0,7.2601984024,1.5475356543,-0.1273984145\C,0,7.0850021744,0.82740528
 63,1.057389726\C,0,6.0117829376,-0.0491764198,1.2432591603\C,0,5.05434
 63505,-0.2273662543,0.2300932282\N,0,3.930098226,-1.0452037428,0.37625
 51566\C,0,3.8560973144,-2.0499448237,1.4283609269\C,0,2.4928431201,-2.
 7366837465,1.4657020022\O,0,1.4666337957,-1.8796860647,1.9619441733\C,
 0,0.6282113705,-1.2742249341,0.9823471916\C,0,-0.5698215398,-2.1703332
 762,0.6508423241\O,0,-1.4085373199,-1.5533447248,-0.3234814253\C,0,-2.
 4648219874,-0.7564382792,0.20968655\C,0,-3.7383694853,-1.5931043814,0.
 4216927647\N,0,-4.8754045222,-0.8304414569,0.9124950958\C,0,-5.5551802
 06,0.109807645,0.1387756764\C,0,-6.3734317472,1.0673293518,0.775390579
 \C,0,-7.1161566076,1.9801508081,0.0360823172\C,0,-7.0853368229,1.99284
 3524,-1.3679981247\C,0,-7.9063704456,2.9828604771,-2.1612702816\C,0,-6
 .268342326,1.0450886658,-1.9925110231\C,0,-5.513609036,0.1199276101,-1
 .2674349363\C,0,5.2281130289,0.4926526732,-0.9711016806\C,0,6.30489143
 71,1.3537000823,-1.1397668191\H,0,9.126824382,2.4320589881,0.513807557
 6\H,0,8.96867043,2.2857356067,-1.2419518409\H,0,8.082242922,3.54022243
 15,-0.3814991753\H,0,7.8080875467,0.9419756167,1.8617825849\H,0,5.9326
 145781,-0.5928106011,2.1777851801\H,0,3.576457439,-1.3793712085,-0.512
 5831872\H,0,4.0073014949,-1.5644456701,2.397818372\H,0,4.6378936937,-2
 .8230175865,1.3279064586\H,0,2.2330797006,-3.1334379546,0.4740795111\H
 ,0,2.5587150781,-3.5905797332,2.1489007897\H,0,1.1813874846,-1.0360801
 408,0.0665136235\H,0,0.2782726234,-0.3280962174,1.4097746787\H,0,-1.12
 00948825,-2.4050889975,1.5715348333\H,0,-0.2246209567,-3.1178720346,0.
 2224931404\H,0,-2.1692042187,-0.2801864265,1.1545550785\H,0,-2.6585289
 975,0.0406667981,-0.5150439869\H,0,-4.0013683825,-2.0878071634,-0.5187
 327596\H,0,-3.5367410401,-2.3900003078,1.1445331153\H,0,-4.8137525345,
 -0.5850178988,1.8918280414\H,0,-6.4206846433,1.0864050281,1.8617971396
 \H,0,-7.7327673028,2.7041941314,0.5643041471\H,0,-8.9809485855,2.77644
 23477,-2.0800982077\H,0,-7.646268552,2.9525176379,-3.2232658314\H,0,-7
 .7534739393,4.0093023728,-1.8088621117\H,0,-6.2107233819,1.025216313,-
 3.0785072141\H,0,-4.894708482,-0.5905102924,-1.8046296684\H,0,4.503169
 3029,0.3691206532,-1.7723610338\H,0,6.4070437867,1.8889459943,-2.08125
 76647\\Version=ES64L-G16RevA.03\State=1-A\HF=-1038.9666238\RMSD=4.306e
 -09\Dipole=1.3772955,-1.8634486,0.9145471\Quadrupole=-20.9852798,11.73
 26904,9.2525894,3.4852664,-10.6639553,-3.3649766\PG=C01 [X(C20H28N2O2)
 ]\\@


 THOSE WHO ASPIRE NOT TO GUESS AND DIVINE,
 BUT TO DISCOVER AND KNOW, WHO PROPOSE NOT TO DEVISE 
 MIMIC AND FABULOUS WORLDS OF THEIR OWN, BUT TO 
 EXAMINE AND DISSECT THE NATURE OF THIS VERY WORLD 
 ITSELF, MUST GO TO THE FACTS THEMSELVES FOR EVERYTHING.

                               -- FRANCIS BACON, 1620
 Job cpu time:       0 days  1 hours 56 minutes 33.9 seconds.
 Elapsed time:       0 days  0 hours 38 minutes 57.5 seconds.
 File lengths (MBytes):  RWF=   1985 Int=      0 D2E=      0 Chk=    122 Scr=      1
 Normal termination of Gaussian 16 at Fri Jul 19 13:59:18 2024.
