 Entering Gaussian System, Link 0=g16
 Initial command:
 /opt/sw/arch/manual/gaussian/G16_A03/g16/l1.exe "/scratch/1381394/Gau-244701.inp" -scrdir="/scratch/1381394/"
 Entering Link 1 = /opt/sw/arch/manual/gaussian/G16_A03/g16/l1.exe PID=    244705.
  
 Copyright (c) 1988,1990,1992,1993,1995,1998,2003,2009,2016,
            Gaussian, Inc.  All Rights Reserved.
  
 This is part of the Gaussian(R) 16 program.  It is based on
 the Gaussian(R) 09 system (copyright 2009, Gaussian, Inc.),
 the Gaussian(R) 03 system (copyright 2003, Gaussian, Inc.),
 the Gaussian(R) 98 system (copyright 1998, Gaussian, Inc.),
 the Gaussian(R) 94 system (copyright 1995, Gaussian, Inc.),
 the Gaussian 92(TM) system (copyright 1992, Gaussian, Inc.),
 the Gaussian 90(TM) system (copyright 1990, Gaussian, Inc.),
 the Gaussian 88(TM) system (copyright 1988, Gaussian, Inc.),
 the Gaussian 86(TM) system (copyright 1986, Carnegie Mellon
 University), and the Gaussian 82(TM) system (copyright 1983,
 Carnegie Mellon University). Gaussian is a federally registered
 trademark of Gaussian, Inc.
  
 This software contains proprietary and confidential information,
 including trade secrets, belonging to Gaussian, Inc.
  
 This software is provided under written license and may be
 used, copied, transmitted, or stored only in accord with that
 written license.
  
 The following legend is applicable only to US Government
 contracts under FAR:
  
                    RESTRICTED RIGHTS LEGEND
  
 Use, reproduction and disclosure by the US Government is
 subject to restrictions as set forth in subparagraphs (a)
 and (c) of the Commercial Computer Software - Restricted
 Rights clause in FAR 52.227-19.
  
 Gaussian, Inc.
 340 Quinnipiac St., Bldg. 40, Wallingford CT 06492
  
  
 ---------------------------------------------------------------
 Warning -- This program may not be used in any manner that
 competes with the business of Gaussian, Inc. or will provide
 assistance to any competitor of Gaussian, Inc.  The licensee
 of this program is prohibited from giving any competitor of
 Gaussian, Inc. access to this program.  By using this program,
 the user acknowledges that Gaussian, Inc. is engaged in the
 business of creating and licensing software in the field of
 computational chemistry and represents and warrants to the
 licensee that it is not a competitor of Gaussian, Inc. and that
 it will not use this program in any manner prohibited above.
 ---------------------------------------------------------------
  

 Cite this work as:
 Gaussian 16, Revision A.03,
 M. J. Frisch, G. W. Trucks, H. B. Schlegel, G. E. Scuseria, 
 M. A. Robb, J. R. Cheeseman, G. Scalmani, V. Barone, 
 G. A. Petersson, H. Nakatsuji, X. Li, M. Caricato, A. V. Marenich, 
 J. Bloino, B. G. Janesko, R. Gomperts, B. Mennucci, H. P. Hratchian, 
 J. V. Ortiz, A. F. Izmaylov, J. L. Sonnenberg, D. Williams-Young, 
 F. Ding, F. Lipparini, F. Egidi, J. Goings, B. Peng, A. Petrone, 
 T. Henderson, D. Ranasinghe, V. G. Zakrzewski, J. Gao, N. Rega, 
 G. Zheng, W. Liang, M. Hada, M. Ehara, K. Toyota, R. Fukuda, 
 J. Hasegawa, M. Ishida, T. Nakajima, Y. Honda, O. Kitao, H. Nakai, 
 T. Vreven, K. Throssell, J. A. Montgomery, Jr., J. E. Peralta, 
 F. Ogliaro, M. J. Bearpark, J. J. Heyd, E. N. Brothers, K. N. Kudin, 
 V. N. Staroverov, T. A. Keith, R. Kobayashi, J. Normand, 
 K. Raghavachari, A. P. Rendell, J. C. Burant, S. S. Iyengar, 
 J. Tomasi, M. Cossi, J. M. Millam, M. Klene, C. Adamo, R. Cammi, 
 J. W. Ochterski, R. L. Martin, K. Morokuma, O. Farkas, 
 J. B. Foresman, and D. J. Fox, Gaussian, Inc., Wallingford CT, 2016.
 
 ******************************************
 Gaussian 16:  ES64L-G16RevA.03 25-Dec-2016
                19-Jul-2024 
 ******************************************
 %nprocshared=8
 Will use up to    8 processors via shared memory.
 %mem=16GB
 %Chk=RRZROWKVNHGBPP-UHFFFAOYSA-N_conf_2_0.chk
 -------------------------------------------------------
 # opt=CalcFc B3LYP/6-31G** SCRF=(Solvent=water) scf=xqc
 -------------------------------------------------------
 1/10=4,18=20,19=15,26=3,38=1/1,3;
 2/9=110,12=2,17=6,18=5,40=1/2;
 3/5=1,6=6,7=101,11=2,25=1,30=1,70=2201,71=2,72=1,74=-5,140=1/1,2,3;
 4//1;
 5/5=2,8=3,13=1,38=5,53=1/2,8;
 8/6=4,10=90,11=11/1;
 11/6=1,8=1,9=11,15=111,16=1/1,2,10;
 10/6=1,13=1/2;
 6/7=2,8=2,9=2,10=2,28=1/1;
 7/10=1,18=20,25=1/1,2,3,16;
 1/10=4,18=20,19=15,26=3/3(2);
 2/9=110/2;
 99//99;
 2/9=110/2;
 3/5=1,6=6,7=101,11=2,25=1,30=1,70=2205,71=1,72=1,74=-5/1,2,3;
 4/5=5,16=3,69=1/1;
 5/5=2,8=3,13=1,38=5,53=1/2,8;
 7//1,2,3,16;
 1/18=20,19=15,26=3/3(-5);
 2/9=110/2;
 6/7=2,8=2,9=2,10=2,19=2,28=1/1;
 99/9=1/99;
 ----------------------------------
 RRZROWKVNHGBPP-UHFFFAOYSA-N_conf_2
 ----------------------------------
 Symbolic Z-matrix:
 Charge =  0 Multiplicity = 1
 C                    -8.8417    0.68817  -0.33246 
 C                    -7.45729   0.12224  -0.43411 
 C                    -6.37781   0.94315  -0.76724 
 C                    -5.07918   0.422    -0.83699 
 C                    -4.8173   -0.91891  -0.53986 
 N                    -3.55748  -1.50689  -0.65149 
 C                    -2.33349  -0.71078  -0.5942 
 C                    -2.04988  -0.16568   0.80951 
 O                    -0.76994   0.47458   0.81354 
 C                    -0.451     0.99877   2.10926 
 C                     0.93941   1.63821   2.08787 
 O                     2.00005   0.69066   2.22752 
 C                     2.17464  -0.22661   1.14281 
 C                     2.42661   0.40064  -0.24038 
 N                     3.5459    1.36494  -0.27346 
 C                     4.814     0.74807  -0.27532 
 C                     5.45209   0.46148   0.93352 
 C                     6.68083  -0.20365   0.95354 
 C                     7.29227  -0.5959   -0.24166 
 C                     8.59467  -1.33905  -0.22505 
 C                     6.64144  -0.33495  -1.45263 
 C                     5.41183   0.33049  -1.4682 
 C                    -5.91353  -1.73716  -0.23272 
 C                    -7.2138   -1.22456  -0.16064 
 H                    -9.59722  -0.08647  -0.50203 
 H                    -8.99765   1.1193    0.66127 
 H                    -8.99935   1.46626  -1.08681 
 H                    -6.5374    1.99594  -0.99037 
 H                    -4.28208   1.09583  -1.13431 
 H                    -3.48717  -2.3841   -0.14267 
 H                    -1.49821  -1.35841  -0.88967 
 H                    -2.33221   0.09641  -1.33564 
 H                    -2.81782   0.55674   1.10671 
 H                    -2.04653  -0.98808   1.53505 
 H                    -1.19536   1.76136   2.36354 
 H                    -0.48461   0.18979   2.84735 
 H                     1.02389   2.30182   2.95511 
 H                     1.09149   2.2524    1.19529 
 H                     3.02004  -0.86744   1.41501 
 H                     1.31008  -0.89726   1.09556 
 H                     1.53084   0.94411  -0.55864 
 H                     2.57709  -0.39272  -0.98348 
 H                     3.4646    1.92827  -1.11824 
 H                     4.98863   0.76569   1.86965 
 H                     7.15277  -0.41162   1.91063 
 H                     8.41079  -2.41721  -0.26424 
 H                     9.21536  -1.05195  -1.08063 
 H                     9.16624  -1.11257   0.68145 
 H                     7.08596  -0.65146  -2.39316 
 H                     4.92363   0.51431  -2.42056 
 H                    -5.76445  -2.79713  -0.04097 
 H                    -8.03268  -1.89107   0.10012 
 

 GradGradGradGradGradGradGradGradGradGradGradGradGradGradGradGradGradGrad
 Berny optimization.
 Initialization pass.
                           ----------------------------
                           !    Initial Parameters    !
                           ! (Angstroms and Degrees)  !
 --------------------------                            --------------------------
 ! Name  Definition              Value          Derivative Info.                !
 --------------------------------------------------------------------------------
 ! R1    R(1,2)                  1.4991         calculate D2E/DX2 analytically  !
 ! R2    R(1,25)                 1.0953         calculate D2E/DX2 analytically  !
 ! R3    R(1,26)                 1.0944         calculate D2E/DX2 analytically  !
 ! R4    R(1,27)                 1.0951         calculate D2E/DX2 analytically  !
 ! R5    R(2,3)                  1.3965         calculate D2E/DX2 analytically  !
 ! R6    R(2,24)                 1.3957         calculate D2E/DX2 analytically  !
 ! R7    R(3,4)                  1.401          calculate D2E/DX2 analytically  !
 ! R8    R(3,28)                 1.0879         calculate D2E/DX2 analytically  !
 ! R9    R(4,5)                  1.3982         calculate D2E/DX2 analytically  !
 ! R10   R(4,29)                 1.0853         calculate D2E/DX2 analytically  !
 ! R11   R(5,6)                  1.3947         calculate D2E/DX2 analytically  !
 ! R12   R(5,23)                 1.402          calculate D2E/DX2 analytically  !
 ! R13   R(6,7)                  1.4612         calculate D2E/DX2 analytically  !
 ! R14   R(6,30)                 1.0165         calculate D2E/DX2 analytically  !
 ! R15   R(7,8)                  1.5323         calculate D2E/DX2 analytically  !
 ! R16   R(7,31)                 1.0975         calculate D2E/DX2 analytically  !
 ! R17   R(7,32)                 1.096          calculate D2E/DX2 analytically  !
 ! R18   R(8,9)                  1.4312         calculate D2E/DX2 analytically  !
 ! R19   R(8,33)                 1.0954         calculate D2E/DX2 analytically  !
 ! R20   R(8,34)                 1.0967         calculate D2E/DX2 analytically  !
 ! R21   R(9,10)                 1.4337         calculate D2E/DX2 analytically  !
 ! R22   R(10,11)                1.5305         calculate D2E/DX2 analytically  !
 ! R23   R(10,35)                1.0956         calculate D2E/DX2 analytically  !
 ! R24   R(10,36)                1.0956         calculate D2E/DX2 analytically  !
 ! R25   R(11,12)                1.4291         calculate D2E/DX2 analytically  !
 ! R26   R(11,37)                1.0953         calculate D2E/DX2 analytically  !
 ! R27   R(11,38)                1.0941         calculate D2E/DX2 analytically  !
 ! R28   R(12,13)                1.4312         calculate D2E/DX2 analytically  !
 ! R29   R(13,14)                1.5395         calculate D2E/DX2 analytically  !
 ! R30   R(13,39)                1.0952         calculate D2E/DX2 analytically  !
 ! R31   R(13,40)                1.0952         calculate D2E/DX2 analytically  !
 ! R32   R(14,15)                1.4778         calculate D2E/DX2 analytically  !
 ! R33   R(14,41)                1.095          calculate D2E/DX2 analytically  !
 ! R34   R(14,42)                1.0974         calculate D2E/DX2 analytically  !
 ! R35   R(15,16)                1.4102         calculate D2E/DX2 analytically  !
 ! R36   R(15,43)                1.0186         calculate D2E/DX2 analytically  !
 ! R37   R(16,17)                1.3966         calculate D2E/DX2 analytically  !
 ! R38   R(16,22)                1.3981         calculate D2E/DX2 analytically  !
 ! R39   R(17,18)                1.3974         calculate D2E/DX2 analytically  !
 ! R40   R(17,44)                1.088          calculate D2E/DX2 analytically  !
 ! R41   R(18,19)                1.3987         calculate D2E/DX2 analytically  !
 ! R42   R(18,45)                1.0872         calculate D2E/DX2 analytically  !
 ! R43   R(19,20)                1.4996         calculate D2E/DX2 analytically  !
 ! R44   R(19,21)                1.3993         calculate D2E/DX2 analytically  !
 ! R45   R(20,46)                1.0944         calculate D2E/DX2 analytically  !
 ! R46   R(20,47)                1.0953         calculate D2E/DX2 analytically  !
 ! R47   R(20,48)                1.0953         calculate D2E/DX2 analytically  !
 ! R48   R(21,22)                1.3982         calculate D2E/DX2 analytically  !
 ! R49   R(21,49)                1.0874         calculate D2E/DX2 analytically  !
 ! R50   R(22,50)                1.0859         calculate D2E/DX2 analytically  !
 ! R51   R(23,24)                1.3995         calculate D2E/DX2 analytically  !
 ! R52   R(23,51)                1.0874         calculate D2E/DX2 analytically  !
 ! R53   R(24,52)                1.0876         calculate D2E/DX2 analytically  !
 ! A1    A(2,1,25)             111.0721         calculate D2E/DX2 analytically  !
 ! A2    A(2,1,26)             109.9919         calculate D2E/DX2 analytically  !
 ! A3    A(2,1,27)             110.7607         calculate D2E/DX2 analytically  !
 ! A4    A(25,1,26)            108.7177         calculate D2E/DX2 analytically  !
 ! A5    A(25,1,27)            107.2512         calculate D2E/DX2 analytically  !
 ! A6    A(26,1,27)            108.9684         calculate D2E/DX2 analytically  !
 ! A7    A(1,2,3)              120.5398         calculate D2E/DX2 analytically  !
 ! A8    A(1,2,24)             120.8055         calculate D2E/DX2 analytically  !
 ! A9    A(3,2,24)             118.6289         calculate D2E/DX2 analytically  !
 ! A10   A(2,3,4)              120.6448         calculate D2E/DX2 analytically  !
 ! A11   A(2,3,28)             120.2903         calculate D2E/DX2 analytically  !
 ! A12   A(4,3,28)             119.0592         calculate D2E/DX2 analytically  !
 ! A13   A(3,4,5)              121.317          calculate D2E/DX2 analytically  !
 ! A14   A(3,4,29)             117.6112         calculate D2E/DX2 analytically  !
 ! A15   A(5,4,29)             121.0714         calculate D2E/DX2 analytically  !
 ! A16   A(4,5,6)              123.8125         calculate D2E/DX2 analytically  !
 ! A17   A(4,5,23)             117.3765         calculate D2E/DX2 analytically  !
 ! A18   A(6,5,23)             118.5385         calculate D2E/DX2 analytically  !
 ! A19   A(5,6,7)              121.5862         calculate D2E/DX2 analytically  !
 ! A20   A(5,6,30)             112.7186         calculate D2E/DX2 analytically  !
 ! A21   A(7,6,30)             113.1153         calculate D2E/DX2 analytically  !
 ! A22   A(6,7,8)              112.6293         calculate D2E/DX2 analytically  !
 ! A23   A(6,7,31)             107.7859         calculate D2E/DX2 analytically  !
 ! A24   A(6,7,32)             112.0674         calculate D2E/DX2 analytically  !
 ! A25   A(8,7,31)             108.4024         calculate D2E/DX2 analytically  !
 ! A26   A(8,7,32)             110.9469         calculate D2E/DX2 analytically  !
 ! A27   A(31,7,32)            104.571          calculate D2E/DX2 analytically  !
 ! A28   A(7,8,9)              109.1027         calculate D2E/DX2 analytically  !
 ! A29   A(7,8,33)             110.695          calculate D2E/DX2 analytically  !
 ! A30   A(7,8,34)             109.8678         calculate D2E/DX2 analytically  !
 ! A31   A(9,8,33)             109.3399         calculate D2E/DX2 analytically  !
 ! A32   A(9,8,34)             109.3222         calculate D2E/DX2 analytically  !
 ! A33   A(33,8,34)            108.4928         calculate D2E/DX2 analytically  !
 ! A34   A(8,9,10)             111.4126         calculate D2E/DX2 analytically  !
 ! A35   A(9,10,11)            110.0122         calculate D2E/DX2 analytically  !
 ! A36   A(9,10,35)            108.2472         calculate D2E/DX2 analytically  !
 ! A37   A(9,10,36)            109.3941         calculate D2E/DX2 analytically  !
 ! A38   A(11,10,35)           109.2474         calculate D2E/DX2 analytically  !
 ! A39   A(11,10,36)           110.2294         calculate D2E/DX2 analytically  !
 ! A40   A(35,10,36)           109.6796         calculate D2E/DX2 analytically  !
 ! A41   A(10,11,12)           113.3183         calculate D2E/DX2 analytically  !
 ! A42   A(10,11,37)           108.1879         calculate D2E/DX2 analytically  !
 ! A43   A(10,11,38)           111.852          calculate D2E/DX2 analytically  !
 ! A44   A(12,11,37)           105.4918         calculate D2E/DX2 analytically  !
 ! A45   A(12,11,38)           110.4119         calculate D2E/DX2 analytically  !
 ! A46   A(37,11,38)           107.1651         calculate D2E/DX2 analytically  !
 ! A47   A(11,12,13)           116.1941         calculate D2E/DX2 analytically  !
 ! A48   A(12,13,14)           116.0889         calculate D2E/DX2 analytically  !
 ! A49   A(12,13,39)           106.3082         calculate D2E/DX2 analytically  !
 ! A50   A(12,13,40)           109.1989         calculate D2E/DX2 analytically  !
 ! A51   A(14,13,39)           109.5946         calculate D2E/DX2 analytically  !
 ! A52   A(14,13,40)           109.8726         calculate D2E/DX2 analytically  !
 ! A53   A(39,13,40)           105.1751         calculate D2E/DX2 analytically  !
 ! A54   A(13,14,15)           114.2013         calculate D2E/DX2 analytically  !
 ! A55   A(13,14,41)           109.2362         calculate D2E/DX2 analytically  !
 ! A56   A(13,14,42)           109.6504         calculate D2E/DX2 analytically  !
 ! A57   A(15,14,41)           106.8124         calculate D2E/DX2 analytically  !
 ! A58   A(15,14,42)           110.6541         calculate D2E/DX2 analytically  !
 ! A59   A(41,14,42)           105.9128         calculate D2E/DX2 analytically  !
 ! A60   A(14,15,16)           113.309          calculate D2E/DX2 analytically  !
 ! A61   A(14,15,43)           108.6015         calculate D2E/DX2 analytically  !
 ! A62   A(16,15,43)           108.2163         calculate D2E/DX2 analytically  !
 ! A63   A(15,16,17)           119.9648         calculate D2E/DX2 analytically  !
 ! A64   A(15,16,22)           121.0833         calculate D2E/DX2 analytically  !
 ! A65   A(17,16,22)           118.8057         calculate D2E/DX2 analytically  !
 ! A66   A(16,17,18)           120.7851         calculate D2E/DX2 analytically  !
 ! A67   A(16,17,44)           119.5215         calculate D2E/DX2 analytically  !
 ! A68   A(18,17,44)           119.6924         calculate D2E/DX2 analytically  !
 ! A69   A(17,18,19)           120.375          calculate D2E/DX2 analytically  !
 ! A70   A(17,18,45)           119.0374         calculate D2E/DX2 analytically  !
 ! A71   A(19,18,45)           120.5876         calculate D2E/DX2 analytically  !
 ! A72   A(18,19,20)           120.6098         calculate D2E/DX2 analytically  !
 ! A73   A(18,19,21)           118.9397         calculate D2E/DX2 analytically  !
 ! A74   A(20,19,21)           120.3939         calculate D2E/DX2 analytically  !
 ! A75   A(19,20,46)           109.9921         calculate D2E/DX2 analytically  !
 ! A76   A(19,20,47)           110.7086         calculate D2E/DX2 analytically  !
 ! A77   A(19,20,48)           111.0946         calculate D2E/DX2 analytically  !
 ! A78   A(46,20,47)           108.9929         calculate D2E/DX2 analytically  !
 ! A79   A(46,20,48)           108.7238         calculate D2E/DX2 analytically  !
 ! A80   A(47,20,48)           107.2513         calculate D2E/DX2 analytically  !
 ! A81   A(19,21,22)           120.4913         calculate D2E/DX2 analytically  !
 ! A82   A(19,21,49)           120.2723         calculate D2E/DX2 analytically  !
 ! A83   A(22,21,49)           119.236          calculate D2E/DX2 analytically  !
 ! A84   A(16,22,21)           120.5756         calculate D2E/DX2 analytically  !
 ! A85   A(16,22,50)           120.3646         calculate D2E/DX2 analytically  !
 ! A86   A(21,22,50)           119.059          calculate D2E/DX2 analytically  !
 ! A87   A(5,23,24)            121.5986         calculate D2E/DX2 analytically  !
 ! A88   A(5,23,51)            120.0219         calculate D2E/DX2 analytically  !
 ! A89   A(24,23,51)           118.3793         calculate D2E/DX2 analytically  !
 ! A90   A(2,24,23)            120.3605         calculate D2E/DX2 analytically  !
 ! A91   A(2,24,52)            120.4642         calculate D2E/DX2 analytically  !
 ! A92   A(23,24,52)           119.1718         calculate D2E/DX2 analytically  !
 ! D1    D(25,1,2,3)           155.1624         calculate D2E/DX2 analytically  !
 ! D2    D(25,1,2,24)          -26.7125         calculate D2E/DX2 analytically  !
 ! D3    D(26,1,2,3)           -84.4309         calculate D2E/DX2 analytically  !
 ! D4    D(26,1,2,24)           93.6941         calculate D2E/DX2 analytically  !
 ! D5    D(27,1,2,3)            36.0879         calculate D2E/DX2 analytically  !
 ! D6    D(27,1,2,24)         -145.7871         calculate D2E/DX2 analytically  !
 ! D7    D(1,2,3,4)            178.7312         calculate D2E/DX2 analytically  !
 ! D8    D(1,2,3,28)            -2.1412         calculate D2E/DX2 analytically  !
 ! D9    D(24,2,3,4)             0.5659         calculate D2E/DX2 analytically  !
 ! D10   D(24,2,3,28)          179.6936         calculate D2E/DX2 analytically  !
 ! D11   D(1,2,24,23)         -178.7322         calculate D2E/DX2 analytically  !
 ! D12   D(1,2,24,52)            1.9527         calculate D2E/DX2 analytically  !
 ! D13   D(3,2,24,23)           -0.572          calculate D2E/DX2 analytically  !
 ! D14   D(3,2,24,52)         -179.8871         calculate D2E/DX2 analytically  !
 ! D15   D(2,3,4,5)             -1.86           calculate D2E/DX2 analytically  !
 ! D16   D(2,3,4,29)           177.8967         calculate D2E/DX2 analytically  !
 ! D17   D(28,3,4,5)           179.0018         calculate D2E/DX2 analytically  !
 ! D18   D(28,3,4,29)           -1.2416         calculate D2E/DX2 analytically  !
 ! D19   D(3,4,5,6)            176.9303         calculate D2E/DX2 analytically  !
 ! D20   D(3,4,5,23)             3.0278         calculate D2E/DX2 analytically  !
 ! D21   D(29,4,5,6)            -2.8179         calculate D2E/DX2 analytically  !
 ! D22   D(29,4,5,23)         -176.7204         calculate D2E/DX2 analytically  !
 ! D23   D(4,5,6,7)             23.5647         calculate D2E/DX2 analytically  !
 ! D24   D(4,5,6,30)           162.7707         calculate D2E/DX2 analytically  !
 ! D25   D(23,5,6,7)          -162.599          calculate D2E/DX2 analytically  !
 ! D26   D(23,5,6,30)          -23.393          calculate D2E/DX2 analytically  !
 ! D27   D(4,5,23,24)           -3.0447         calculate D2E/DX2 analytically  !
 ! D28   D(4,5,23,51)          177.1173         calculate D2E/DX2 analytically  !
 ! D29   D(6,5,23,24)         -177.279          calculate D2E/DX2 analytically  !
 ! D30   D(6,5,23,51)            2.883          calculate D2E/DX2 analytically  !
 ! D31   D(5,6,7,8)             70.8725         calculate D2E/DX2 analytically  !
 ! D32   D(5,6,7,31)          -169.5953         calculate D2E/DX2 analytically  !
 ! D33   D(5,6,7,32)           -55.0671         calculate D2E/DX2 analytically  !
 ! D34   D(30,6,7,8)           -68.1884         calculate D2E/DX2 analytically  !
 ! D35   D(30,6,7,31)           51.3438         calculate D2E/DX2 analytically  !
 ! D36   D(30,6,7,32)          165.872          calculate D2E/DX2 analytically  !
 ! D37   D(6,7,8,9)            173.786          calculate D2E/DX2 analytically  !
 ! D38   D(6,7,8,33)           -65.8508         calculate D2E/DX2 analytically  !
 ! D39   D(6,7,8,34)            53.953          calculate D2E/DX2 analytically  !
 ! D40   D(31,7,8,9)            54.6119         calculate D2E/DX2 analytically  !
 ! D41   D(31,7,8,33)          174.975          calculate D2E/DX2 analytically  !
 ! D42   D(31,7,8,34)          -65.2211         calculate D2E/DX2 analytically  !
 ! D43   D(32,7,8,9)           -59.672          calculate D2E/DX2 analytically  !
 ! D44   D(32,7,8,33)           60.6911         calculate D2E/DX2 analytically  !
 ! D45   D(32,7,8,34)         -179.505          calculate D2E/DX2 analytically  !
 ! D46   D(7,8,9,10)          -179.7208         calculate D2E/DX2 analytically  !
 ! D47   D(33,8,9,10)           59.0871         calculate D2E/DX2 analytically  !
 ! D48   D(34,8,9,10)          -59.5514         calculate D2E/DX2 analytically  !
 ! D49   D(8,9,10,11)          178.3129         calculate D2E/DX2 analytically  !
 ! D50   D(8,9,10,35)          -62.3804         calculate D2E/DX2 analytically  !
 ! D51   D(8,9,10,36)           57.0909         calculate D2E/DX2 analytically  !
 ! D52   D(9,10,11,12)         -81.7063         calculate D2E/DX2 analytically  !
 ! D53   D(9,10,11,37)         161.6926         calculate D2E/DX2 analytically  !
 ! D54   D(9,10,11,38)          43.8884         calculate D2E/DX2 analytically  !
 ! D55   D(35,10,11,12)        159.5993         calculate D2E/DX2 analytically  !
 ! D56   D(35,10,11,37)         42.9983         calculate D2E/DX2 analytically  !
 ! D57   D(35,10,11,38)        -74.8059         calculate D2E/DX2 analytically  !
 ! D58   D(36,10,11,12)         39.0142         calculate D2E/DX2 analytically  !
 ! D59   D(36,10,11,37)        -77.5868         calculate D2E/DX2 analytically  !
 ! D60   D(36,10,11,38)        164.609          calculate D2E/DX2 analytically  !
 ! D61   D(10,11,12,13)         67.0676         calculate D2E/DX2 analytically  !
 ! D62   D(37,11,12,13)       -174.7561         calculate D2E/DX2 analytically  !
 ! D63   D(38,11,12,13)        -59.294          calculate D2E/DX2 analytically  !
 ! D64   D(11,12,13,14)         57.7026         calculate D2E/DX2 analytically  !
 ! D65   D(11,12,13,39)        179.8652         calculate D2E/DX2 analytically  !
 ! D66   D(11,12,13,40)        -67.1376         calculate D2E/DX2 analytically  !
 ! D67   D(12,13,14,15)         53.3387         calculate D2E/DX2 analytically  !
 ! D68   D(12,13,14,41)        -66.1789         calculate D2E/DX2 analytically  !
 ! D69   D(12,13,14,42)        178.1666         calculate D2E/DX2 analytically  !
 ! D70   D(39,13,14,15)        -67.0714         calculate D2E/DX2 analytically  !
 ! D71   D(39,13,14,41)        173.411          calculate D2E/DX2 analytically  !
 ! D72   D(39,13,14,42)         57.7565         calculate D2E/DX2 analytically  !
 ! D73   D(40,13,14,15)        177.8333         calculate D2E/DX2 analytically  !
 ! D74   D(40,13,14,41)         58.3157         calculate D2E/DX2 analytically  !
 ! D75   D(40,13,14,42)        -57.3389         calculate D2E/DX2 analytically  !
 ! D76   D(13,14,15,16)         76.7435         calculate D2E/DX2 analytically  !
 ! D77   D(13,14,15,43)       -162.9809         calculate D2E/DX2 analytically  !
 ! D78   D(41,14,15,16)       -162.3834         calculate D2E/DX2 analytically  !
 ! D79   D(41,14,15,43)        -42.1078         calculate D2E/DX2 analytically  !
 ! D80   D(42,14,15,16)        -47.5496         calculate D2E/DX2 analytically  !
 ! D81   D(42,14,15,43)         72.726          calculate D2E/DX2 analytically  !
 ! D82   D(14,15,16,17)        -89.6498         calculate D2E/DX2 analytically  !
 ! D83   D(14,15,16,22)         85.9021         calculate D2E/DX2 analytically  !
 ! D84   D(43,15,16,17)        149.856          calculate D2E/DX2 analytically  !
 ! D85   D(43,15,16,22)        -34.5921         calculate D2E/DX2 analytically  !
 ! D86   D(15,16,17,18)        177.088          calculate D2E/DX2 analytically  !
 ! D87   D(15,16,17,44)         -3.2847         calculate D2E/DX2 analytically  !
 ! D88   D(22,16,17,18)          1.4351         calculate D2E/DX2 analytically  !
 ! D89   D(22,16,17,44)       -178.9376         calculate D2E/DX2 analytically  !
 ! D90   D(15,16,22,21)       -177.0529         calculate D2E/DX2 analytically  !
 ! D91   D(15,16,22,50)          2.6108         calculate D2E/DX2 analytically  !
 ! D92   D(17,16,22,21)         -1.4505         calculate D2E/DX2 analytically  !
 ! D93   D(17,16,22,50)        178.2132         calculate D2E/DX2 analytically  !
 ! D94   D(16,17,18,19)         -0.0884         calculate D2E/DX2 analytically  !
 ! D95   D(16,17,18,45)        179.9527         calculate D2E/DX2 analytically  !
 ! D96   D(44,17,18,19)       -179.7151         calculate D2E/DX2 analytically  !
 ! D97   D(44,17,18,45)          0.326          calculate D2E/DX2 analytically  !
 ! D98   D(17,18,19,20)       -178.5216         calculate D2E/DX2 analytically  !
 ! D99   D(17,18,19,21)         -1.2462         calculate D2E/DX2 analytically  !
 ! D100  D(45,18,19,20)          1.4366         calculate D2E/DX2 analytically  !
 ! D101  D(45,18,19,21)        178.712          calculate D2E/DX2 analytically  !
 ! D102  D(18,19,20,46)         94.208          calculate D2E/DX2 analytically  !
 ! D103  D(18,19,20,47)       -145.2762         calculate D2E/DX2 analytically  !
 ! D104  D(18,19,20,48)        -26.221          calculate D2E/DX2 analytically  !
 ! D105  D(21,19,20,46)        -83.0277         calculate D2E/DX2 analytically  !
 ! D106  D(21,19,20,47)         37.4882         calculate D2E/DX2 analytically  !
 ! D107  D(21,19,20,48)        156.5433         calculate D2E/DX2 analytically  !
 ! D108  D(18,19,21,22)          1.2293         calculate D2E/DX2 analytically  !
 ! D109  D(18,19,21,49)       -178.5487         calculate D2E/DX2 analytically  !
 ! D110  D(20,19,21,22)        178.5107         calculate D2E/DX2 analytically  !
 ! D111  D(20,19,21,49)         -1.2673         calculate D2E/DX2 analytically  !
 ! D112  D(19,21,22,16)          0.1227         calculate D2E/DX2 analytically  !
 ! D113  D(19,21,22,50)       -179.5453         calculate D2E/DX2 analytically  !
 ! D114  D(49,21,22,16)        179.9031         calculate D2E/DX2 analytically  !
 ! D115  D(49,21,22,50)          0.235          calculate D2E/DX2 analytically  !
 ! D116  D(5,23,24,2)            1.8756         calculate D2E/DX2 analytically  !
 ! D117  D(5,23,24,52)        -178.8006         calculate D2E/DX2 analytically  !
 ! D118  D(51,23,24,2)        -178.2839         calculate D2E/DX2 analytically  !
 ! D119  D(51,23,24,52)          1.04           calculate D2E/DX2 analytically  !
 --------------------------------------------------------------------------------
 Trust Radius=3.00D-01 FncErr=1.00D-07 GrdErr=1.00D-06 EigMax=2.50D+02 EigMin=1.00D-04
 Number of steps in this run=    274 maximum allowed number of steps=    312.
 GradGradGradGradGradGradGradGradGradGradGradGradGradGradGradGradGradGrad

 Stoichiometry    C20H28N2O2
 Framework group  C1[X(C20H28N2O2)]
 Deg. of freedom   150
 Full point group                 C1      NOp   1
 Largest Abelian subgroup         C1      NOp   1
 Largest concise Abelian subgroup C1      NOp   1
                         Standard orientation:                         
 ---------------------------------------------------------------------
 Center     Atomic      Atomic             Coordinates (Angstroms)
 Number     Number       Type             X           Y           Z
 ---------------------------------------------------------------------
      1          6           0        8.888034    0.247340    0.760300
      2          6           0        7.512662   -0.203327    0.369869
      3          6           0        6.433224   -0.020409    1.236758
      4          6           0        5.142330   -0.416744    0.863377
      5          6           0        4.887300   -0.969113   -0.395485
      6          7           0        3.636957   -1.437506   -0.798694
      7          6           0        2.403565   -0.956802   -0.179902
      8          6           0        2.079205    0.491858   -0.559542
      9          8           0        0.792859    0.836592   -0.035444
     10          6           0        0.436103    2.184625   -0.368495
     11          6           0       -0.960018    2.505370    0.170527
     12          8           0       -2.013735    2.034937   -0.672498
     13          6           0       -2.151450    0.614289   -0.778578
     14          6           0       -2.375380   -0.144691    0.542002
     15          7           0       -3.503637    0.364187    1.349390
     16          6           0       -4.764698   -0.032468    0.858467
     17          6           0       -5.429732    0.761492   -0.078504
     18          6           0       -6.651490    0.355303   -0.621582
     19          6           0       -7.228678   -0.858603   -0.234912
     20          6           0       -8.523150   -1.315237   -0.838744
     21          6           0       -6.550577   -1.668980    0.682468
     22          6           0       -5.328074   -1.258983    1.223181
     23          6           0        5.984099   -1.171077   -1.245096
     24          6           0        7.276668   -0.777828   -0.880012
     25          1           0        9.655705   -0.324073    0.227581
     26          1           0        9.014523    1.308858    0.526020
     27          1           0        9.056255    0.096808    1.831920
     28          1           0        6.587198    0.420281    2.219464
     29          1           0        4.345830   -0.283569    1.588401
     30          1           0        3.563229   -1.541576   -1.807199
     31          1           0        1.582822   -1.597794   -0.526239
     32          1           0        2.412276   -1.084032    0.908683
     33          1           0        2.831788    1.176309   -0.153230
     34          1           0        2.066421    0.597175   -1.651100
     35          1           0        1.165768    2.857244    0.095677
     36          1           0        0.459816    2.308949   -1.456763
     37          1           0       -1.073168    3.594374    0.200186
     38          1           0       -1.096229    2.138637    1.192289
     39          1           0       -2.996568    0.436679   -1.452147
     40          1           0       -1.278932    0.205759   -1.299439
     41          1           0       -1.477734   -0.060125    1.163395
     42          1           0       -2.498847   -1.215461    0.335876
     43          1           0       -3.407204    0.012517    2.300509
     44          1           0       -4.993064    1.710091   -0.383715
     45          1           0       -7.144985    0.995891   -1.348300
     46          1           0       -8.326964   -1.974126   -1.690297
     47          1           0       -9.125265   -1.856154   -0.100790
     48          1           0       -9.119568   -0.463569   -1.183241
     49          1           0       -6.968075   -2.627855    0.980168
     50          1           0       -4.818194   -1.909476    1.927455
     51          1           0        5.841494   -1.641114   -2.215277
     52          1           0        8.095780   -0.935734   -1.577813
 ---------------------------------------------------------------------
 Rotational constants (GHZ):           0.7449440           0.0555936           0.0541898
 Standard basis: 6-31G(d,p) (6D, 7F)
 There are   500 symmetry adapted cartesian basis functions of A   symmetry.
 There are   500 symmetry adapted basis functions of A   symmetry.
   500 basis functions,   868 primitive gaussians,   500 cartesian basis functions
    89 alpha electrons       89 beta electrons
       nuclear repulsion energy      1876.9785186518 Hartrees.
 NAtoms=   52 NActive=   52 NUniq=   52 SFac= 1.00D+00 NAtFMM=   60 NAOKFM=F Big=F
 Integral buffers will be    131072 words long.
 Raffenetti 2 integral format.
 Two-electron integral symmetry is turned on.
 Force inversion solution in PCM.
 ------------------------------------------------------------------------------
 Polarizable Continuum Model (PCM)
 =================================
 Model                : PCM.
 Atomic radii         : UFF (Universal Force Field).
 Polarization charges : Total charges.
 Charge compensation  : None.
 Solution method      : Matrix inversion.
 Cavity type          : Scaled VdW (van der Waals Surface) (Alpha=1.100).
 Cavity algorithm     : GePol (No added spheres)
                        Default sphere list used, NSphG=   52.
                        Lebedev-Laikov grids with approx.  5.0 points / Ang**2.
                        Smoothing algorithm: York/Karplus (Gamma=1.0000).
                        Polarization charges: spherical gaussians, with
                                              point-specific exponents (IZeta= 3).
                        Self-potential: point-specific (ISelfS= 7).
                        Self-field    : sphere-specific E.n sum rule (ISelfD= 2).
 1st derivatives      : Analytical E(r).r(x)/FMM algorithm (CHGder, D1EAlg=3).
                        Cavity 1st derivative terms included.
 2nd derivatives      : Analytical E(r).r(xy)/FMM algorithm (CHGder, D2EAlg=3).
                        Cavity 2nd derivative terms included.
 Solvent              : Water, Eps=  78.355300 Eps(inf)=   1.777849
 ------------------------------------------------------------------------------
 One-electron integrals computed using PRISM.
 NBasis=   500 RedAO= T EigKep=  4.13D-04  NBF=   500
 NBsUse=   500 1.00D-06 EigRej= -1.00D+00 NBFU=   500
 ExpMin= 1.61D-01 ExpMax= 5.48D+03 ExpMxC= 8.25D+02 IAcc=3 IRadAn=         5 AccDes= 0.00D+00
 Harris functional with IExCor=  402 and IRadAn=       5 diagonalized for initial guess.
 HarFok:  IExCor=  402 AccDes= 0.00D+00 IRadAn=         5 IDoV= 1 UseB2=F ITyADJ=14
 ICtDFT=  3500011 ScaDFX=  1.000000  1.000000  1.000000  1.000000
 FoFCou: FMM=F IPFlag=           0 FMFlag=      100000 FMFlg1=           0
         NFxFlg=           0 DoJE=T BraDBF=F KetDBF=T FulRan=T
         wScrn=  0.000000 ICntrl=       500 IOpCl=  0 I1Cent=   200000004 NGrid=           0
         NMat0=    1 NMatS0=      1 NMatT0=    0 NMatD0=    1 NMtDS0=    0 NMtDT0=    0
 Petite list used in FoFCou.
 Requested convergence on RMS density matrix=1.00D-08 within  32 cycles.
 Requested convergence on MAX density matrix=1.00D-06.
 Requested convergence on             energy=1.00D-06.
 No special actions if energy rises.
 Inv3:  Mode=1 IEnd=    39313200.
 Iteration    1 A*A^-1 deviation from unit magnitude is 3.55D-15 for   1990.
 Iteration    1 A*A^-1 deviation from orthogonality  is 2.00D-15 for   2267    621.
 Iteration    1 A^-1*A deviation from unit magnitude is 3.33D-15 for    945.
 Iteration    1 A^-1*A deviation from orthogonality  is 7.25D-12 for   2916   2882.
 Error on total polarization charges =  0.01424
 SCF Done:  E(RB3LYP) =  -1038.95800358     A.U. after   12 cycles
            NFock= 12  Conv=0.49D-08     -V/T= 2.0095
 QCSCF skips out because SCF is already converged.
 DoSCS=F DFT=T ScalE2(SS,OS)=  1.000000  1.000000
 Range of M.O.s used for correlation:     1   500
 NBasis=   500 NAE=    89 NBE=    89 NFC=     0 NFV=     0
 NROrb=    500 NOA=    89 NOB=    89 NVA=   411 NVB=   411
 Symmetrizing basis deriv contribution to polar:
 IMax=3 JMax=2 DiffMx= 0.00D+00
 G2DrvN: will do    53 centers at a time, making    1 passes.
 Calling FoFCou, ICntrl=  3107 FMM=F I1Cent=   0 AccDes= 0.00D+00.
 NEqPCM:  Using equilibrium solvation (IEInf=0, Eps=  78.3553, EpsInf=   1.7778)
 G2PCM: DoFxE=T DoFxN=T DoGrad=T DoDP/DQ/DG/TGxP=FFFF NFrqRd=   0 IEInf=0 SqF1=F DoCFld=F IF1Alg=4.
 End of G2Drv F.D. properties file   721 does not exist.
 End of G2Drv F.D. properties file   722 does not exist.
 End of G2Drv F.D. properties file   788 does not exist.
          IDoAtm=11111111111111111111111111111111111111111111111111
          IDoAtm=11
 NEqPCM:  Using equilibrium solvation (IEInf=0, Eps=  78.3553, EpsInf=   1.7778)
          Differentiating once with respect to nuclear coordinates.
 CalDSu exits because no D1Ps are significant.
          There are   159 degrees of freedom in the 1st order CPHF.  IDoFFX=6 NUNeed=     0.
    153 vectors produced by pass  0 Test12= 3.66D-14 1.00D-09 XBig12= 1.32D-01 1.63D-01.
 AX will form   153 AO Fock derivatives at one time.
    153 vectors produced by pass  1 Test12= 3.66D-14 1.00D-09 XBig12= 2.37D-02 4.12D-02.
    153 vectors produced by pass  2 Test12= 3.66D-14 1.00D-09 XBig12= 1.59D-04 2.06D-03.
    153 vectors produced by pass  3 Test12= 3.66D-14 1.00D-09 XBig12= 4.15D-07 8.53D-05.
    153 vectors produced by pass  4 Test12= 3.66D-14 1.00D-09 XBig12= 4.63D-10 2.77D-06.
     88 vectors produced by pass  5 Test12= 3.66D-14 1.00D-09 XBig12= 3.96D-13 6.20D-08.
      8 vectors produced by pass  6 Test12= 3.66D-14 1.00D-09 XBig12= 3.64D-16 2.47D-09.
 InvSVY:  IOpt=1 It=  1 EMax= 4.16D-16
 Solved reduced A of dimension   861 with   159 vectors.
 End of Minotr F.D. properties file   721 does not exist.
 End of Minotr F.D. properties file   722 does not exist.
 End of Minotr F.D. properties file   788 does not exist.

 **********************************************************************

            Population analysis using the SCF density.

 **********************************************************************

 Orbital symmetries:
       Occupied  (A) (A) (A) (A) (A) (A) (A) (A) (A) (A) (A) (A)
                 (A) (A) (A) (A) (A) (A) (A) (A) (A) (A) (A) (A)
                 (A) (A) (A) (A) (A) (A) (A) (A) (A) (A) (A) (A)
                 (A) (A) (A) (A) (A) (A) (A) (A) (A) (A) (A) (A)
                 (A) (A) (A) (A) (A) (A) (A) (A) (A) (A) (A) (A)
                 (A) (A) (A) (A) (A) (A) (A) (A) (A) (A) (A) (A)
                 (A) (A) (A) (A) (A) (A) (A) (A) (A) (A) (A) (A)
                 (A) (A) (A) (A) (A)
       Virtual   (A) (A) (A) (A) (A) (A) (A) (A) (A) (A) (A) (A)
                 (A) (A) (A) (A) (A) (A) (A) (A) (A) (A) (A) (A)
                 (A) (A) (A) (A) (A) (A) (A) (A) (A) (A) (A) (A)
                 (A) (A) (A) (A) (A) (A) (A) (A) (A) (A) (A) (A)
                 (A) (A) (A) (A) (A) (A) (A) (A) (A) (A) (A) (A)
                 (A) (A) (A) (A) (A) (A) (A) (A) (A) (A) (A) (A)
                 (A) (A) (A) (A) (A) (A) (A) (A) (A) (A) (A) (A)
                 (A) (A) (A) (A) (A) (A) (A) (A) (A) (A) (A) (A)
                 (A) (A) (A) (A) (A) (A) (A) (A) (A) (A) (A) (A)
                 (A) (A) (A) (A) (A) (A) (A) (A) (A) (A) (A) (A)
                 (A) (A) (A) (A) (A) (A) (A) (A) (A) (A) (A) (A)
                 (A) (A) (A) (A) (A) (A) (A) (A) (A) (A) (A) (A)
                 (A) (A) (A) (A) (A) (A) (A) (A) (A) (A) (A) (A)
                 (A) (A) (A) (A) (A) (A) (A) (A) (A) (A) (A) (A)
                 (A) (A) (A) (A) (A) (A) (A) (A) (A) (A) (A) (A)
                 (A) (A) (A) (A) (A) (A) (A) (A) (A) (A) (A) (A)
                 (A) (A) (A) (A) (A) (A) (A) (A) (A) (A) (A) (A)
                 (A) (A) (A) (A) (A) (A) (A) (A) (A) (A) (A) (A)
                 (A) (A) (A) (A) (A) (A) (A) (A) (A) (A) (A) (A)
                 (A) (A) (A) (A) (A) (A) (A) (A) (A) (A) (A) (A)
                 (A) (A) (A) (A) (A) (A) (A) (A) (A) (A) (A) (A)
                 (A) (A) (A) (A) (A) (A) (A) (A) (A) (A) (A) (A)
                 (A) (A) (A) (A) (A) (A) (A) (A) (A) (A) (A) (A)
                 (A) (A) (A) (A) (A) (A) (A) (A) (A) (A) (A) (A)
                 (A) (A) (A) (A) (A) (A) (A) (A) (A) (A) (A) (A)
                 (A) (A) (A) (A) (A) (A) (A) (A) (A) (A) (A) (A)
                 (A) (A) (A) (A) (A) (A) (A) (A) (A) (A) (A) (A)
                 (A) (A) (A) (A) (A) (A) (A) (A) (A) (A) (A) (A)
                 (A) (A) (A) (A) (A) (A) (A) (A) (A) (A) (A) (A)
                 (A) (A) (A) (A) (A) (A) (A) (A) (A) (A) (A) (A)
                 (A) (A) (A) (A) (A) (A) (A) (A) (A) (A) (A) (A)
                 (A) (A) (A) (A) (A) (A) (A) (A) (A) (A) (A) (A)
                 (A) (A) (A) (A) (A) (A) (A) (A) (A) (A) (A) (A)
                 (A) (A) (A) (A) (A) (A) (A) (A) (A) (A) (A) (A)
                 (A) (A) (A)
 The electronic state is 1-A.
 Alpha  occ. eigenvalues --  -19.15182 -19.14582 -14.34330 -14.32366 -10.23088
 Alpha  occ. eigenvalues --  -10.23037 -10.22970 -10.22383 -10.22300 -10.21868
 Alpha  occ. eigenvalues --  -10.21133 -10.20787 -10.19126 -10.18467 -10.18411
 Alpha  occ. eigenvalues --  -10.18389 -10.18267 -10.18251 -10.18178 -10.18146
 Alpha  occ. eigenvalues --  -10.17967 -10.17955 -10.17750 -10.17471  -1.03307
 Alpha  occ. eigenvalues --   -1.01679  -0.93074  -0.91862  -0.84233  -0.84162
 Alpha  occ. eigenvalues --   -0.77518  -0.76401  -0.75387  -0.74070  -0.73871
 Alpha  occ. eigenvalues --   -0.72831  -0.70450  -0.67235  -0.66416  -0.63266
 Alpha  occ. eigenvalues --   -0.61908  -0.60668  -0.60153  -0.58213  -0.57136
 Alpha  occ. eigenvalues --   -0.56396  -0.52635  -0.51339  -0.50476  -0.50029
 Alpha  occ. eigenvalues --   -0.48452  -0.47697  -0.46314  -0.46067  -0.45559
 Alpha  occ. eigenvalues --   -0.45215  -0.44963  -0.44135  -0.43090  -0.42001
 Alpha  occ. eigenvalues --   -0.41826  -0.41729  -0.41622  -0.41446  -0.41219
 Alpha  occ. eigenvalues --   -0.41019  -0.40050  -0.39477  -0.38380  -0.37768
 Alpha  occ. eigenvalues --   -0.37190  -0.36171  -0.35720  -0.35296  -0.34709
 Alpha  occ. eigenvalues --   -0.34178  -0.34020  -0.33656  -0.33151  -0.32831
 Alpha  occ. eigenvalues --   -0.30309  -0.28670  -0.26550  -0.25384  -0.24944
 Alpha  occ. eigenvalues --   -0.24618  -0.24439  -0.21584  -0.19269
 Alpha virt. eigenvalues --   -0.00217  -0.00030   0.00556   0.02066   0.08001
 Alpha virt. eigenvalues --    0.08921   0.09474   0.10345   0.10482   0.11607
 Alpha virt. eigenvalues --    0.12026   0.12662   0.12950   0.13284   0.13431
 Alpha virt. eigenvalues --    0.13688   0.14443   0.14931   0.15100   0.15628
 Alpha virt. eigenvalues --    0.15995   0.16370   0.17312   0.17812   0.17895
 Alpha virt. eigenvalues --    0.18412   0.18557   0.18726   0.19154   0.19743
 Alpha virt. eigenvalues --    0.19952   0.20387   0.20622   0.20831   0.21260
 Alpha virt. eigenvalues --    0.21877   0.23055   0.23324   0.23834   0.23869
 Alpha virt. eigenvalues --    0.24572   0.24962   0.25147   0.26921   0.29087
 Alpha virt. eigenvalues --    0.29454   0.30263   0.32135   0.33378   0.34070
 Alpha virt. eigenvalues --    0.34346   0.35152   0.35278   0.37569   0.37810
 Alpha virt. eigenvalues --    0.46904   0.48621   0.49322   0.49744   0.50415
 Alpha virt. eigenvalues --    0.51079   0.51501   0.51792   0.52457   0.52705
 Alpha virt. eigenvalues --    0.52775   0.52997   0.53337   0.54285   0.55323
 Alpha virt. eigenvalues --    0.55899   0.56370   0.57056   0.57640   0.58350
 Alpha virt. eigenvalues --    0.58460   0.58949   0.59172   0.59670   0.60184
 Alpha virt. eigenvalues --    0.60403   0.60459   0.61152   0.61634   0.62156
 Alpha virt. eigenvalues --    0.62590   0.63193   0.63299   0.64606   0.64845
 Alpha virt. eigenvalues --    0.65424   0.65494   0.66736   0.67430   0.68267
 Alpha virt. eigenvalues --    0.69445   0.70440   0.71202   0.71654   0.72063
 Alpha virt. eigenvalues --    0.73030   0.73209   0.74901   0.75074   0.75778
 Alpha virt. eigenvalues --    0.76800   0.78244   0.78638   0.79658   0.80031
 Alpha virt. eigenvalues --    0.80914   0.81068   0.81628   0.82251   0.82523
 Alpha virt. eigenvalues --    0.83186   0.83862   0.84774   0.85212   0.85487
 Alpha virt. eigenvalues --    0.86028   0.86527   0.87440   0.87752   0.88314
 Alpha virt. eigenvalues --    0.88997   0.89383   0.89713   0.89990   0.90333
 Alpha virt. eigenvalues --    0.90949   0.91031   0.92396   0.93755   0.93895
 Alpha virt. eigenvalues --    0.94095   0.94438   0.95014   0.95459   0.96356
 Alpha virt. eigenvalues --    0.97036   0.98303   0.99770   1.00021   1.00210
 Alpha virt. eigenvalues --    1.01263   1.02231   1.02341   1.04465   1.06188
 Alpha virt. eigenvalues --    1.07787   1.08856   1.11441   1.12245   1.12916
 Alpha virt. eigenvalues --    1.14896   1.16232   1.16909   1.17922   1.18327
 Alpha virt. eigenvalues --    1.18549   1.19277   1.21179   1.22131   1.23046
 Alpha virt. eigenvalues --    1.23950   1.26084   1.27168   1.28225   1.30237
 Alpha virt. eigenvalues --    1.30421   1.30784   1.31908   1.33703   1.34938
 Alpha virt. eigenvalues --    1.36145   1.39315   1.39446   1.40289   1.40885
 Alpha virt. eigenvalues --    1.40993   1.42196   1.42305   1.43536   1.44296
 Alpha virt. eigenvalues --    1.44751   1.45713   1.46113   1.48677   1.49921
 Alpha virt. eigenvalues --    1.50995   1.53324   1.55137   1.59182   1.59860
 Alpha virt. eigenvalues --    1.62641   1.63311   1.65572   1.66607   1.71003
 Alpha virt. eigenvalues --    1.73234   1.73852   1.74253   1.74457   1.75367
 Alpha virt. eigenvalues --    1.76535   1.77367   1.78576   1.78911   1.80427
 Alpha virt. eigenvalues --    1.80702   1.82001   1.82950   1.84149   1.84523
 Alpha virt. eigenvalues --    1.85070   1.85450   1.85807   1.87377   1.88160
 Alpha virt. eigenvalues --    1.88841   1.89706   1.91079   1.92375   1.92638
 Alpha virt. eigenvalues --    1.93100   1.93950   1.94259   1.94820   1.95692
 Alpha virt. eigenvalues --    1.97074   1.97279   1.97565   1.97677   1.97968
 Alpha virt. eigenvalues --    1.98489   2.00103   2.00517   2.01386   2.02316
 Alpha virt. eigenvalues --    2.03293   2.03368   2.03728   2.04979   2.05193
 Alpha virt. eigenvalues --    2.05343   2.06217   2.06769   2.07230   2.08164
 Alpha virt. eigenvalues --    2.09750   2.09870   2.10248   2.11944   2.12679
 Alpha virt. eigenvalues --    2.13307   2.13813   2.14722   2.15892   2.17028
 Alpha virt. eigenvalues --    2.18186   2.19122   2.19894   2.21027   2.21209
 Alpha virt. eigenvalues --    2.21847   2.23523   2.24001   2.25263   2.26971
 Alpha virt. eigenvalues --    2.28589   2.29743   2.30114   2.30594   2.31729
 Alpha virt. eigenvalues --    2.32338   2.32857   2.33315   2.34187   2.34652
 Alpha virt. eigenvalues --    2.35941   2.38040   2.39826   2.40175   2.40604
 Alpha virt. eigenvalues --    2.41547   2.41802   2.41900   2.43062   2.43804
 Alpha virt. eigenvalues --    2.44108   2.44493   2.45442   2.46056   2.48079
 Alpha virt. eigenvalues --    2.48807   2.49985   2.50736   2.51325   2.53241
 Alpha virt. eigenvalues --    2.54169   2.55726   2.55833   2.56232   2.58540
 Alpha virt. eigenvalues --    2.59230   2.59528   2.59640   2.60109   2.61416
 Alpha virt. eigenvalues --    2.62625   2.63870   2.64212   2.65365   2.65565
 Alpha virt. eigenvalues --    2.66509   2.67888   2.69171   2.70162   2.70697
 Alpha virt. eigenvalues --    2.71310   2.71432   2.73132   2.73564   2.74115
 Alpha virt. eigenvalues --    2.74716   2.76835   2.77409   2.78767   2.79149
 Alpha virt. eigenvalues --    2.79539   2.80358   2.81760   2.82031   2.83336
 Alpha virt. eigenvalues --    2.85383   2.85999   2.86454   2.87894   2.88307
 Alpha virt. eigenvalues --    2.88977   2.89895   2.90176   2.91836   2.93621
 Alpha virt. eigenvalues --    2.94481   2.96809   2.98304   2.99287   3.01806
 Alpha virt. eigenvalues --    3.05885   3.06896   3.07168   3.07783   3.09173
 Alpha virt. eigenvalues --    3.19212   3.19365   3.20402   3.21049   3.25016
 Alpha virt. eigenvalues --    3.25377   3.26015   3.28247   3.29829   3.30803
 Alpha virt. eigenvalues --    3.32071   3.32276   3.33842   3.34980   3.37451
 Alpha virt. eigenvalues --    3.37957   3.39507   3.41444   3.43343   3.43814
 Alpha virt. eigenvalues --    3.43959   3.46372   3.47044   3.47908   3.49989
 Alpha virt. eigenvalues --    3.51166   3.52439   3.53515   3.54546   3.56105
 Alpha virt. eigenvalues --    3.83592   3.83779   3.92090   4.05962   4.13740
 Alpha virt. eigenvalues --    4.14166   4.16015   4.16703   4.16780   4.18080
 Alpha virt. eigenvalues --    4.21660   4.23040   4.37706   4.38245   4.39205
 Alpha virt. eigenvalues --    4.41025   4.44144   4.44541   4.46584   4.54022
 Alpha virt. eigenvalues --    4.55592   4.60418   4.65755   4.71489   4.84811
 Alpha virt. eigenvalues --    4.85013
          Condensed to atoms (all electrons):
 Mulliken charges:
               1
     1  C   -0.381672
     2  C    0.098359
     3  C   -0.143538
     4  C   -0.140831
     5  C    0.304026
     6  N   -0.590322
     7  C   -0.094755
     8  C    0.085571
     9  O   -0.520177
    10  C    0.058145
    11  C    0.032249
    12  O   -0.514248
    13  C    0.072141
    14  C   -0.087956
    15  N   -0.569405
    16  C    0.194027
    17  C   -0.097804
    18  C   -0.147086
    19  C    0.110599
    20  C   -0.382693
    21  C   -0.140883
    22  C   -0.117513
    23  C   -0.161793
    24  C   -0.135897
    25  H    0.112537
    26  H    0.124134
    27  H    0.114478
    28  H    0.090041
    29  H    0.091401
    30  H    0.272482
    31  H    0.121960
    32  H    0.128423
    33  H    0.098042
    34  H    0.096657
    35  H    0.100022
    36  H    0.104004
    37  H    0.114588
    38  H    0.109977
    39  H    0.102186
    40  H    0.103135
    41  H    0.116137
    42  H    0.093864
    43  H    0.260264
    44  H    0.092928
    45  H    0.092698
    46  H    0.129919
    47  H    0.118622
    48  H    0.116541
    49  H    0.092510
    50  H    0.094788
    51  H    0.089338
    52  H    0.089779
 Sum of Mulliken charges =  -0.00000
 Mulliken charges with hydrogens summed into heavy atoms:
               1
     1  C   -0.030523
     2  C    0.098359
     3  C   -0.053497
     4  C   -0.049430
     5  C    0.304026
     6  N   -0.317840
     7  C    0.155628
     8  C    0.280270
     9  O   -0.520177
    10  C    0.262172
    11  C    0.256814
    12  O   -0.514248
    13  C    0.277461
    14  C    0.122046
    15  N   -0.309141
    16  C    0.194027
    17  C   -0.004876
    18  C   -0.054388
    19  C    0.110599
    20  C   -0.017612
    21  C   -0.048373
    22  C   -0.022725
    23  C   -0.072455
    24  C   -0.046118
 APT charges:
               1
     1  C   -1.647405
     2  C    0.768348
     3  C   -0.481416
     4  C   -0.592774
     5  C   -0.825501
     6  N   -0.878054
     7  C   -0.350235
     8  C   -0.587781
     9  O   -0.417642
    10  C   -0.629013
    11  C   -0.739958
    12  O   -0.399996
    13  C   -0.444296
    14  C   -0.189554
    15  N   -0.914822
    16  C   -0.935396
    17  C   -0.537402
    18  C   -0.448707
    19  C    0.744202
    20  C   -1.648215
    21  C   -0.438237
    22  C   -0.499332
    23  C   -0.716273
    24  C   -0.261688
    25  H    1.047789
    26  H    0.362280
    27  H    0.551292
    28  H    0.564419
    29  H   -0.172816
    30  H    0.555032
    31  H    0.155211
    32  H    0.286278
    33  H    0.449511
    34  H    0.337980
    35  H    0.462047
    36  H    0.353173
    37  H    0.681566
    38  H    0.232353
    39  H    0.539186
    40  H    0.110223
    41  H    0.083150
    42  H    0.308399
    43  H    0.567124
    44  H    0.082277
    45  H    0.807734
    46  H    0.219877
    47  H    0.935239
    48  H    0.823250
    49  H    0.891403
    50  H    0.173880
    51  H    0.458765
    52  H    1.204522
 Sum of APT charges =  -0.00000
 APT charges with hydrogens summed into heavy atoms:
               1
     1  C    0.313955
     2  C    0.768348
     3  C    0.083004
     4  C   -0.765590
     5  C   -0.825501
     6  N   -0.323022
     7  C    0.091254
     8  C    0.199711
     9  O   -0.417642
    10  C    0.186207
    11  C    0.173962
    12  O   -0.399996
    13  C    0.205112
    14  C    0.201996
    15  N   -0.347698
    16  C   -0.935396
    17  C   -0.455125
    18  C    0.359028
    19  C    0.744202
    20  C    0.330152
    21  C    0.453167
    22  C   -0.325452
    23  C   -0.257508
    24  C    0.942834
 Electronic spatial extent (au):  <R**2>=          19114.4874
 Charge=             -0.0000 electrons
 Dipole moment (field-independent basis, Debye):
    X=              0.9361    Y=             -1.0502    Z=             -0.6928  Tot=              1.5681
 Quadrupole moment (field-independent basis, Debye-Ang):
   XX=           -146.1388   YY=           -143.4498   ZZ=           -134.5574
   XY=             15.9298   XZ=             -3.0162   YZ=              1.4985
 Traceless Quadrupole moment (field-independent basis, Debye-Ang):
   XX=             -4.7568   YY=             -2.0678   ZZ=              6.8246
   XY=             15.9298   XZ=             -3.0162   YZ=              1.4985
 Octapole moment (field-independent basis, Debye-Ang**2):
  XXX=            -54.3070  YYY=             26.9678  ZZZ=             -0.6099  XYY=            -23.1779
  XXY=            -25.1726  XXZ=            -48.0766  XZZ=             18.0812  YZZ=             -8.9715
  YYZ=              0.7430  XYZ=             32.1092
 Hexadecapole moment (field-independent basis, Debye-Ang**3):
 XXXX=         -23055.4979 YYYY=          -1338.7199 ZZZZ=           -722.5693 XXXY=            443.7821
 XXXZ=            181.1417 YYYX=             96.3143 YYYZ=              2.4442 ZZZX=            -43.8874
 ZZZY=             14.2295 XXYY=          -4307.3738 XXZZ=          -4003.7104 YYZZ=           -349.7236
 XXYZ=             21.3373 YYXZ=            -43.9397 ZZXY=            -10.0334
 N-N= 1.876978518652D+03 E-N=-6.167512994998D+03  KE= 1.029147207534D+03
  Exact polarizability:   0.000   0.000   0.000   0.000   0.000   0.000
 Approx polarizability: 404.346  43.286 289.902  37.236   7.954 317.515
 D2PCM: PCM CHGder 2nd derivatives, FixD1E=F FixD2E=F DoIter=F DoCFld=F I1PDM=0
 Calling FoFJK, ICntrl=    100147 FMM=F ISym2X=0 I1Cent= 0 IOpClX= 0 NMat=1 NMatS=1 NMatT=0.
 ***** Axes restored to original set *****
 -------------------------------------------------------------------
 Center     Atomic                   Forces (Hartrees/Bohr)
 Number     Number              X              Y              Z
 -------------------------------------------------------------------
      1        6          -0.003777592   -0.000181465   -0.003274738
      2        6          -0.004407703    0.003889401    0.000771784
      3        6           0.007971726   -0.008827801   -0.001440255
      4        6          -0.001594730    0.014331580   -0.000875566
      5        6          -0.002679711   -0.006146582   -0.004679606
      6        7           0.006498215    0.003835083   -0.001325087
      7        6           0.005973725   -0.006570804    0.002248222
      8        6           0.009104987    0.005572179   -0.003293702
      9        8          -0.003581233   -0.001601456    0.001427751
     10        6           0.003075947    0.003967836   -0.014202952
     11        6           0.000687040   -0.008404209    0.003942818
     12        8           0.004332570    0.001727489   -0.002723732
     13        6           0.001172955   -0.003925603   -0.001568470
     14        6          -0.007285687    0.008202528    0.002518700
     15        7          -0.009765082    0.008692692    0.000615611
     16        6           0.005687981   -0.008186267    0.000757826
     17        6           0.004389330   -0.000937743    0.006525502
     18        6          -0.006336085    0.003579088   -0.002185461
     19        6           0.000844414   -0.002440572    0.000959798
     20        6           0.005393121    0.002627207    0.000368107
     21        6          -0.005374256    0.005884426    0.000930150
     22        6           0.009409151   -0.003343135   -0.003227604
     23        6          -0.012979745   -0.003979528    0.006023062
     24        6           0.013401112   -0.003543380   -0.002730870
     25        1          -0.000584995    0.000959792    0.002342720
     26        1          -0.004377847    0.002099816    0.000174790
     27        1          -0.001091047    0.001795242    0.002536354
     28        1          -0.000279977   -0.001017489   -0.000103233
     29        1           0.001779309   -0.001237821    0.001321770
     30        1           0.000848648    0.003053614   -0.002635393
     31        1          -0.001467703   -0.000568511    0.001565166
     32        1          -0.005063319   -0.000294516    0.002024711
     33        1          -0.003549915    0.000265682    0.001444554
     34        1          -0.002276919   -0.002424964    0.001259793
     35        1          -0.001997562    0.001766738    0.004508541
     36        1           0.000478086    0.000704970    0.004320024
     37        1           0.000731064   -0.001334048    0.000567396
     38        1          -0.004112175    0.000854664   -0.002066955
     39        1           0.002089766    0.004316678    0.002821606
     40        1          -0.002152280    0.001081948   -0.005862401
     41        1          -0.000026351   -0.000746058    0.001043640
     42        1          -0.000870961   -0.006254397    0.001825834
     43        1          -0.003330384   -0.001950560    0.001038012
     44        1          -0.000874190    0.000654857   -0.002313421
     45        1           0.001422872   -0.000152363   -0.001138147
     46        1           0.003592235   -0.001864585   -0.000377942
     47        1           0.000043070   -0.003351321   -0.000312015
     48        1          -0.000595425   -0.002565616   -0.000106428
     49        1           0.001111017    0.000124268    0.000780506
     50        1          -0.001947302    0.001134799   -0.000093638
     51        1           0.002321703   -0.000032463    0.000546585
     52        1           0.000020133    0.000760681   -0.000673717
 -------------------------------------------------------------------
 Cartesian Forces:  Max     0.014331580 RMS     0.004139059
 FormGI is forming the generalized inverse of G from B-inverse, IUseBI=4.

 GradGradGradGradGradGradGradGradGradGradGradGradGradGradGradGradGradGrad
 Berny optimization.
 Internal  Forces:  Max     0.018939926 RMS     0.002881071
 Search for a local minimum.
 Step number   1 out of a maximum of  274
 All quantities printed in internal units (Hartrees-Bohrs-Radians)
 Mixed Optimization -- RFO/linear search
 Second derivative matrix not updated -- analytic derivatives used.
 ITU=  0
     Eigenvalues ---   -0.00006   0.00000   0.00124   0.00217   0.00257
     Eigenvalues ---    0.00361   0.00431   0.00478   0.00526   0.00579
     Eigenvalues ---    0.00598   0.00724   0.00922   0.01103   0.01563
     Eigenvalues ---    0.01658   0.01663   0.01729   0.01758   0.01918
     Eigenvalues ---    0.01992   0.02089   0.02200   0.02307   0.02394
     Eigenvalues ---    0.02511   0.02538   0.02669   0.02700   0.02706
     Eigenvalues ---    0.02755   0.02766   0.02813   0.04246   0.04441
     Eigenvalues ---    0.04659   0.04693   0.04731   0.04790   0.04951
     Eigenvalues ---    0.05014   0.05435   0.05825   0.05850   0.05881
     Eigenvalues ---    0.05884   0.05918   0.06265   0.06954   0.08129
     Eigenvalues ---    0.08423   0.09757   0.09815   0.10221   0.10338
     Eigenvalues ---    0.10919   0.11016   0.11393   0.11430   0.11687
     Eigenvalues ---    0.11756   0.11781   0.11956   0.12057   0.12363
     Eigenvalues ---    0.12550   0.12647   0.12809   0.12872   0.12985
     Eigenvalues ---    0.13338   0.13989   0.14498   0.14562   0.14660
     Eigenvalues ---    0.14835   0.14925   0.16892   0.18112   0.18158
     Eigenvalues ---    0.19188   0.19290   0.19525   0.19615   0.19685
     Eigenvalues ---    0.19777   0.20759   0.21462   0.21661   0.22261
     Eigenvalues ---    0.22803   0.23452   0.24204   0.24427   0.25316
     Eigenvalues ---    0.25615   0.26321   0.27270   0.27531   0.28704
     Eigenvalues ---    0.30279   0.30651   0.31798   0.32211   0.32307
     Eigenvalues ---    0.32644   0.32740   0.32913   0.32947   0.33042
     Eigenvalues ---    0.33199   0.33295   0.33489   0.33592   0.33600
     Eigenvalues ---    0.33657   0.33676   0.33695   0.33852   0.34534
     Eigenvalues ---    0.34548   0.34727   0.35126   0.35360   0.35443
     Eigenvalues ---    0.35519   0.35668   0.35768   0.35842   0.35899
     Eigenvalues ---    0.35910   0.36076   0.36305   0.36708   0.39050
     Eigenvalues ---    0.39178   0.39797   0.41045   0.41318   0.43826
     Eigenvalues ---    0.44871   0.45577   0.46029   0.46923   0.47182
     Eigenvalues ---    0.47434   0.47817   0.50908   0.51351   0.51709
 RFO step:  Lambda=-1.08905305D-02 EMin=-5.65518707D-05
 Linear search not attempted -- first point.
 Iteration  1 RMS(Cart)=  0.19964059 RMS(Int)=  0.00492083
 Iteration  2 RMS(Cart)=  0.01983006 RMS(Int)=  0.00015334
 Iteration  3 RMS(Cart)=  0.00013687 RMS(Int)=  0.00014909
 Iteration  4 RMS(Cart)=  0.00000004 RMS(Int)=  0.00014909
 Variable       Old X    -DE/DX   Delta X   Delta X   Delta X     New X
                                 (Linear)    (Quad)   (Total)
    R1        2.83282   0.01096   0.00000   0.02179   0.02179   2.85461
    R2        2.06976  -0.00064   0.00000  -0.00177  -0.00177   2.06800
    R3        2.06811   0.00161   0.00000   0.00584   0.00584   2.07395
    R4        2.06951  -0.00031   0.00000  -0.00074  -0.00074   2.06877
    R5        2.63896   0.00347   0.00000   0.00658   0.00664   2.64560
    R6        2.63747   0.00584   0.00000   0.01242   0.01248   2.64995
    R7        2.64757  -0.00314   0.00000  -0.01055  -0.01054   2.63703
    R8        2.05592  -0.00092   0.00000  -0.00042  -0.00042   2.05550
    R9        2.64216   0.00632   0.00000   0.01677   0.01671   2.65887
   R10        2.05086   0.00018   0.00000  -0.00108  -0.00108   2.04978
   R11        2.63570   0.00518   0.00000   0.00606   0.00606   2.64176
   R12        2.64939   0.00568   0.00000   0.01266   0.01259   2.66199
   R13        2.76135  -0.00387   0.00000  -0.01276  -0.01276   2.74859
   R14        1.92098  -0.00389   0.00000  -0.00813  -0.00813   1.91285
   R15        2.89563  -0.00113   0.00000  -0.00103  -0.00103   2.89461
   R16        2.07392  -0.00120   0.00000  -0.00529  -0.00529   2.06863
   R17        2.07120  -0.00159   0.00000  -0.00357  -0.00357   2.06763
   R18        2.70449  -0.00416   0.00000  -0.02128  -0.02128   2.68321
   R19        2.07004   0.00306   0.00000   0.00989   0.00989   2.07994
   R20        2.07247   0.00264   0.00000   0.00923   0.00923   2.08170
   R21        2.70923  -0.00246   0.00000  -0.01846  -0.01846   2.69077
   R22        2.89232  -0.00438   0.00000  -0.01549  -0.01549   2.87683
   R23        2.07034   0.00363   0.00000   0.01177   0.01177   2.08211
   R24        2.07039   0.00237   0.00000   0.00978   0.00978   2.08017
   R25        2.70060  -0.00082   0.00000  -0.01154  -0.01154   2.68906
   R26        2.06976  -0.00030   0.00000  -0.00095  -0.00095   2.06881
   R27        2.06754   0.00160   0.00000   0.00679   0.00679   2.07433
   R28        2.70466  -0.00309   0.00000  -0.00857  -0.00857   2.69609
   R29        2.90927  -0.00796   0.00000  -0.02065  -0.02065   2.88862
   R30        2.06963  -0.00021   0.00000  -0.00241  -0.00241   2.06722
   R31        2.06964   0.00129   0.00000   0.00465   0.00465   2.07429
   R32        2.79257   0.00137   0.00000  -0.00449  -0.00449   2.78809
   R33        2.06927  -0.00065   0.00000  -0.00306  -0.00306   2.06621
   R34        2.07378   0.00317   0.00000   0.01182   0.01182   2.08560
   R35        2.66486   0.01894   0.00000   0.03024   0.03024   2.69510
   R36        1.92492  -0.00167   0.00000  -0.00458  -0.00458   1.92035
   R37        2.63924   0.00351   0.00000   0.01046   0.01053   2.64977
   R38        2.64207   0.00502   0.00000   0.00838   0.00845   2.65052
   R39        2.64063   0.00025   0.00000  -0.00479  -0.00479   2.63584
   R40        2.05596  -0.00143   0.00000  -0.00490  -0.00490   2.05106
   R41        2.64307   0.00234   0.00000   0.00605   0.00597   2.64904
   R42        2.05452  -0.00035   0.00000   0.00029   0.00029   2.05481
   R43        2.83383   0.00987   0.00000   0.02077   0.02077   2.85459
   R44        2.64435   0.00221   0.00000   0.00454   0.00446   2.64881
   R45        2.06816   0.00125   0.00000   0.00494   0.00494   2.07310
   R46        2.06984  -0.00061   0.00000  -0.00176  -0.00176   2.06808
   R47        2.06986  -0.00093   0.00000  -0.00267  -0.00267   2.06719
   R48        2.64223  -0.00105   0.00000  -0.00534  -0.00534   2.63688
   R49        2.05483  -0.00026   0.00000   0.00018   0.00018   2.05501
   R50        2.05200   0.00115   0.00000   0.00291   0.00291   2.05492
   R51        2.64472  -0.00490   0.00000  -0.01488  -0.01489   2.62983
   R52        2.05496   0.00045   0.00000   0.00045   0.00045   2.05541
   R53        2.05521  -0.00064   0.00000   0.00009   0.00009   2.05530
    A1        1.93857   0.00081   0.00000   0.00456   0.00447   1.94305
    A2        1.91972   0.00522   0.00000   0.02865   0.02859   1.94831
    A3        1.93314   0.00194   0.00000   0.01112   0.01102   1.94416
    A4        1.89748  -0.00368   0.00000  -0.02519  -0.02523   1.87226
    A5        1.87189  -0.00027   0.00000   0.00996   0.00984   1.88173
    A6        1.90186  -0.00439   0.00000  -0.03116  -0.03123   1.87062
    A7        2.10382   0.00331   0.00000   0.01564   0.01561   2.11943
    A8        2.10845   0.00307   0.00000   0.01201   0.01198   2.12044
    A9        2.07046  -0.00638   0.00000  -0.02748  -0.02744   2.04302
   A10        2.10565   0.00547   0.00000   0.02438   0.02435   2.13000
   A11        2.09946  -0.00311   0.00000  -0.01577  -0.01578   2.08368
   A12        2.07798  -0.00235   0.00000  -0.00845  -0.00847   2.06951
   A13        2.11738  -0.00257   0.00000  -0.01271  -0.01284   2.10454
   A14        2.05270   0.00355   0.00000   0.02272   0.02279   2.07549
   A15        2.11309  -0.00099   0.00000  -0.01002  -0.00996   2.10314
   A16        2.16094  -0.00357   0.00000  -0.01401  -0.01409   2.14685
   A17        2.04861   0.00025   0.00000   0.00452   0.00416   2.05277
   A18        2.06889   0.00344   0.00000   0.01249   0.01245   2.08133
   A19        2.12208   0.00247   0.00000   0.01752   0.01733   2.13941
   A20        1.96731   0.00009   0.00000   0.00447   0.00427   1.97159
   A21        1.97423  -0.00192   0.00000  -0.00077  -0.00100   1.97323
   A22        1.96575   0.00599   0.00000   0.02640   0.02628   1.99203
   A23        1.88122  -0.00110   0.00000   0.00206   0.00184   1.88306
   A24        1.95595  -0.00479   0.00000  -0.03727  -0.03721   1.91874
   A25        1.89198  -0.00129   0.00000   0.00301   0.00283   1.89481
   A26        1.93639  -0.00162   0.00000  -0.02066  -0.02059   1.91579
   A27        1.82511   0.00264   0.00000   0.02866   0.02878   1.85389
   A28        1.90420  -0.00449   0.00000  -0.02128  -0.02122   1.88298
   A29        1.93199   0.00057   0.00000  -0.00133  -0.00127   1.93072
   A30        1.91756  -0.00026   0.00000  -0.00151  -0.00144   1.91612
   A31        1.90834   0.00228   0.00000   0.01735   0.01728   1.92562
   A32        1.90803   0.00307   0.00000   0.02264   0.02259   1.93063
   A33        1.89356  -0.00107   0.00000  -0.01521  -0.01536   1.87820
   A34        1.94452   0.00477   0.00000   0.02688   0.02688   1.97140
   A35        1.92007  -0.00062   0.00000  -0.00076  -0.00076   1.91932
   A36        1.88927   0.00185   0.00000   0.02649   0.02646   1.91573
   A37        1.90929   0.00221   0.00000   0.01740   0.01741   1.92670
   A38        1.90673  -0.00004   0.00000  -0.00396  -0.00412   1.90261
   A39        1.92387  -0.00200   0.00000  -0.00973  -0.00983   1.91404
   A40        1.91427  -0.00134   0.00000  -0.02899  -0.02929   1.88498
   A41        1.97778   0.00798   0.00000   0.02860   0.02869   2.00647
   A42        1.88824  -0.00098   0.00000  -0.00145  -0.00160   1.88664
   A43        1.95219  -0.00625   0.00000  -0.04100  -0.04109   1.91110
   A44        1.84118  -0.00364   0.00000  -0.00984  -0.00987   1.83131
   A45        1.92705   0.00071   0.00000   0.01679   0.01710   1.94415
   A46        1.87038   0.00203   0.00000   0.00743   0.00718   1.87756
   A47        2.02797   0.00546   0.00000   0.01695   0.01695   2.04492
   A48        2.02613  -0.00117   0.00000  -0.00564  -0.00574   2.02039
   A49        1.85543  -0.00333   0.00000  -0.03115  -0.03121   1.82422
   A50        1.90588   0.00538   0.00000   0.03197   0.03191   1.93779
   A51        1.91279   0.00205   0.00000   0.00768   0.00757   1.92035
   A52        1.91764  -0.00555   0.00000  -0.03672  -0.03662   1.88101
   A53        1.83565   0.00319   0.00000   0.03923   0.03947   1.87512
   A54        1.99319  -0.00303   0.00000  -0.00046  -0.00042   1.99276
   A55        1.90653   0.00125   0.00000   0.00458   0.00459   1.91112
   A56        1.91376  -0.00447   0.00000  -0.04966  -0.04956   1.86420
   A57        1.86423   0.00095   0.00000   0.00289   0.00277   1.86700
   A58        1.93128   0.00499   0.00000   0.03148   0.03123   1.96250
   A59        1.84853   0.00072   0.00000   0.01384   0.01350   1.86202
   A60        1.97762   0.00875   0.00000   0.04687   0.04652   2.02414
   A61        1.89545  -0.00426   0.00000  -0.01072  -0.01145   1.88401
   A62        1.88873   0.00018   0.00000   0.01369   0.01338   1.90211
   A63        2.09378  -0.00098   0.00000  -0.00291  -0.00372   2.09006
   A64        2.11330   0.00480   0.00000   0.01575   0.01494   2.12825
   A65        2.07355  -0.00367   0.00000  -0.00820  -0.00869   2.06486
   A66        2.10810   0.00030   0.00000  -0.00257  -0.00243   2.10567
   A67        2.08604  -0.00231   0.00000  -0.01326  -0.01334   2.07271
   A68        2.08903   0.00201   0.00000   0.01579   0.01572   2.10474
   A69        2.10094   0.00397   0.00000   0.01692   0.01688   2.11782
   A70        2.07759  -0.00025   0.00000   0.00322   0.00319   2.08078
   A71        2.10465  -0.00372   0.00000  -0.02013  -0.02016   2.08449
   A72        2.10504   0.00270   0.00000   0.01013   0.01011   2.11515
   A73        2.07589  -0.00510   0.00000  -0.02077  -0.02093   2.05496
   A74        2.10127   0.00242   0.00000   0.01154   0.01151   2.11279
   A75        1.91972   0.00415   0.00000   0.02197   0.02194   1.94166
   A76        1.93223   0.00211   0.00000   0.01231   0.01220   1.94443
   A77        1.93897   0.00073   0.00000   0.00461   0.00451   1.94348
   A78        1.90228  -0.00405   0.00000  -0.03007  -0.03011   1.87217
   A79        1.89759  -0.00319   0.00000  -0.02319  -0.02320   1.87439
   A80        1.87189  -0.00006   0.00000   0.01262   0.01246   1.88435
   A81        2.10297   0.00316   0.00000   0.01329   0.01327   2.11624
   A82        2.09915  -0.00282   0.00000  -0.01382  -0.01381   2.08534
   A83        2.08106  -0.00034   0.00000   0.00051   0.00051   2.08157
   A84        2.10444   0.00136   0.00000   0.00209   0.00219   2.10663
   A85        2.10076  -0.00267   0.00000  -0.01499  -0.01509   2.08567
   A86        2.07797   0.00131   0.00000   0.01298   0.01287   2.09084
   A87        2.12230  -0.00184   0.00000  -0.00969  -0.00984   2.11246
   A88        2.09478  -0.00134   0.00000  -0.01244  -0.01237   2.08241
   A89        2.06611   0.00317   0.00000   0.02214   0.02220   2.08831
   A90        2.10069   0.00512   0.00000   0.02282   0.02279   2.12347
   A91        2.10250  -0.00319   0.00000  -0.01706  -0.01706   2.08544
   A92        2.07994  -0.00192   0.00000  -0.00568  -0.00568   2.07426
    D1        2.70810   0.00067   0.00000   0.00578   0.00578   2.71387
    D2       -0.46622   0.00067   0.00000   0.01139   0.01147  -0.45475
    D3       -1.47360   0.00003   0.00000  -0.00390  -0.00395  -1.47755
    D4        1.63527   0.00003   0.00000   0.00171   0.00174   1.63701
    D5        0.62985  -0.00078   0.00000  -0.01690  -0.01696   0.61289
    D6       -2.54446  -0.00078   0.00000  -0.01129  -0.01127  -2.55574
    D7        3.11945  -0.00038   0.00000  -0.00545  -0.00547   3.11398
    D8       -0.03737   0.00017   0.00000   0.00675   0.00669  -0.03068
    D9        0.00988  -0.00055   0.00000  -0.01165  -0.01161  -0.00173
   D10        3.13624   0.00000   0.00000   0.00055   0.00055   3.13679
   D11       -3.11947   0.00027   0.00000   0.00384   0.00385  -3.11561
   D12        0.03408  -0.00001   0.00000  -0.00415  -0.00413   0.02995
   D13       -0.00998   0.00045   0.00000   0.01012   0.01006   0.00008
   D14       -3.13962   0.00016   0.00000   0.00213   0.00208  -3.13754
   D15       -0.03246   0.00097   0.00000   0.02643   0.02643  -0.00603
   D16        3.10488   0.00090   0.00000   0.02372   0.02367   3.12855
   D17        3.12417   0.00043   0.00000   0.01444   0.01443   3.13860
   D18       -0.02167   0.00036   0.00000   0.01173   0.01167  -0.01000
   D19        3.08802   0.00020   0.00000  -0.00373  -0.00389   3.08412
   D20        0.05284  -0.00126   0.00000  -0.03795  -0.03789   0.01495
   D21       -0.04918   0.00026   0.00000  -0.00101  -0.00117  -0.05035
   D22       -3.08435  -0.00120   0.00000  -0.03522  -0.03517  -3.11952
   D23        0.41128  -0.00033   0.00000  -0.01291  -0.01292   0.39836
   D24        2.84089  -0.00031   0.00000   0.01580   0.01589   2.85678
   D25       -2.83789   0.00096   0.00000   0.02120   0.02110  -2.81678
   D26       -0.40828   0.00098   0.00000   0.04991   0.04992  -0.35837
   D27       -0.05314   0.00114   0.00000   0.03644   0.03650  -0.01664
   D28        3.09128   0.00087   0.00000   0.02920   0.02935   3.12063
   D29       -3.09410   0.00019   0.00000   0.00573   0.00547  -3.08863
   D30        0.05032  -0.00008   0.00000  -0.00150  -0.00167   0.04865
   D31        1.23696  -0.00052   0.00000  -0.00931  -0.00935   1.22761
   D32       -2.96000   0.00077   0.00000   0.01177   0.01184  -2.94815
   D33       -0.96110   0.00073   0.00000   0.02749   0.02748  -0.93362
   D34       -1.19011  -0.00129   0.00000  -0.04007  -0.04013  -1.23024
   D35        0.89612   0.00000   0.00000  -0.01900  -0.01893   0.87718
   D36        2.89501  -0.00004   0.00000  -0.00327  -0.00329   2.89172
   D37        3.03314   0.00189   0.00000   0.03908   0.03913   3.07227
   D38       -1.14931   0.00219   0.00000   0.04608   0.04614  -1.10318
   D39        0.94166   0.00105   0.00000   0.02537   0.02543   0.96708
   D40        0.95316   0.00044   0.00000   0.01830   0.01823   0.97139
   D41        3.05389   0.00074   0.00000   0.02530   0.02524   3.07914
   D42       -1.13832  -0.00040   0.00000   0.00460   0.00453  -1.13379
   D43       -1.04147  -0.00112   0.00000  -0.00664  -0.00664  -1.04811
   D44        1.05926  -0.00081   0.00000   0.00036   0.00037   1.05963
   D45       -3.13295  -0.00196   0.00000  -0.02035  -0.02034   3.12989
   D46       -3.13672   0.00006   0.00000  -0.00418  -0.00416  -3.14088
   D47        1.03126   0.00074   0.00000  -0.00007   0.00011   1.03137
   D48       -1.03937  -0.00113   0.00000  -0.00526  -0.00545  -1.04481
   D49        3.11215  -0.00055   0.00000   0.00484   0.00480   3.11694
   D50       -1.08874   0.00015   0.00000   0.01555   0.01555  -1.07319
   D51        0.99642   0.00090   0.00000   0.00625   0.00629   1.00272
   D52       -1.42604  -0.00061   0.00000   0.01838   0.01851  -1.40754
   D53        2.82207  -0.00013   0.00000   0.01480   0.01487   2.83694
   D54        0.76600   0.00164   0.00000   0.03051   0.03033   0.79632
   D55        2.78553  -0.00248   0.00000  -0.01109  -0.01089   2.77464
   D56        0.75046  -0.00199   0.00000  -0.01467  -0.01453   0.73593
   D57       -1.30561  -0.00022   0.00000   0.00104   0.00093  -1.30468
   D58        0.68093   0.00046   0.00000   0.03329   0.03334   0.71426
   D59       -1.35415   0.00094   0.00000   0.02971   0.02970  -1.32445
   D60        2.87297   0.00271   0.00000   0.04542   0.04516   2.91812
   D61        1.17055  -0.00023   0.00000   0.00594   0.00612   1.17667
   D62       -3.05007   0.00060   0.00000   0.01349   0.01350  -3.03657
   D63       -1.03488   0.00134   0.00000   0.02497   0.02477  -1.01010
   D64        1.00710  -0.00103   0.00000  -0.00561  -0.00585   1.00125
   D65        3.13924  -0.00167   0.00000  -0.02314  -0.02292   3.11632
   D66       -1.17177   0.00285   0.00000   0.02148   0.02150  -1.15027
   D67        0.93094  -0.00228   0.00000  -0.03741  -0.03753   0.89341
   D68       -1.15504  -0.00240   0.00000  -0.04406  -0.04409  -1.19913
   D69        3.10959  -0.00147   0.00000  -0.03550  -0.03549   3.07411
   D70       -1.17062   0.00132   0.00000   0.00155   0.00144  -1.16918
   D71        3.02659   0.00120   0.00000  -0.00510  -0.00512   3.02147
   D72        1.00804   0.00212   0.00000   0.00346   0.00348   1.01152
   D73        3.10378  -0.00056   0.00000  -0.02933  -0.02933   3.07445
   D74        1.01780  -0.00068   0.00000  -0.03599  -0.03588   0.98192
   D75       -1.00075   0.00024   0.00000  -0.02743  -0.02728  -1.02804
   D76        1.33943  -0.00333   0.00000  -0.06463  -0.06468   1.27475
   D77       -2.84455  -0.00046   0.00000  -0.02473  -0.02488  -2.86943
   D78       -2.83412  -0.00296   0.00000  -0.05711  -0.05719  -2.89132
   D79       -0.73492  -0.00009   0.00000  -0.01721  -0.01739  -0.75231
[...]
   295    C   20  pz     Ryd( 3p)     0.00027
   296    C   20  dxy    Ryd( 3d)     0.00061
   297    C   20  dxz    Ryd( 3d)     0.00044
   298    C   20  dyz    Ryd( 3d)     0.00041
   299    C   20  dx2y2  Ryd( 3d)     0.00059
   300    C   20  dz2    Ryd( 3d)     0.00077

   301    C   21  S      Cor( 1S)     1.99904
   302    C   21  S      Val( 2S)     0.95258
   303    C   21  S      Ryd( 3S)     0.00058
   304    C   21  S      Ryd( 4S)     0.00004
   305    C   21  px     Val( 2p)     1.10869
   306    C   21  px     Ryd( 3p)     0.00396
   307    C   21  py     Val( 2p)     1.15254
   308    C   21  py     Ryd( 3p)     0.00487
   309    C   21  pz     Val( 2p)     1.00828
   310    C   21  pz     Ryd( 3p)     0.00061
   311    C   21  dxy    Ryd( 3d)     0.00074
   312    C   21  dxz    Ryd( 3d)     0.00048
   313    C   21  dyz    Ryd( 3d)     0.00040
   314    C   21  dx2y2  Ryd( 3d)     0.00063
   315    C   21  dz2    Ryd( 3d)     0.00037

   316    C   22  S      Cor( 1S)     1.99903
   317    C   22  S      Val( 2S)     0.95782
   318    C   22  S      Ryd( 3S)     0.00073
   319    C   22  S      Ryd( 4S)     0.00005
   320    C   22  px     Val( 2p)     1.08889
   321    C   22  px     Ryd( 3p)     0.00398
   322    C   22  py     Val( 2p)     1.17488
   323    C   22  py     Ryd( 3p)     0.00463
   324    C   22  pz     Val( 2p)     1.04189
   325    C   22  pz     Ryd( 3p)     0.00088
   326    C   22  dxy    Ryd( 3d)     0.00070
   327    C   22  dxz    Ryd( 3d)     0.00047
   328    C   22  dyz    Ryd( 3d)     0.00034
   329    C   22  dx2y2  Ryd( 3d)     0.00061
   330    C   22  dz2    Ryd( 3d)     0.00037

   331    C   23  S      Cor( 1S)     1.99908
   332    C   23  S      Val( 2S)     0.94414
   333    C   23  S      Ryd( 3S)     0.00072
   334    C   23  S      Ryd( 4S)     0.00004
   335    C   23  px     Val( 2p)     1.04922
   336    C   23  px     Ryd( 3p)     0.00503
   337    C   23  py     Val( 2p)     1.15296
   338    C   23  py     Ryd( 3p)     0.00676
   339    C   23  pz     Val( 2p)     1.18214
   340    C   23  pz     Ryd( 3p)     0.00472
   341    C   23  dxy    Ryd( 3d)     0.00065
   342    C   23  dxz    Ryd( 3d)     0.00055
   343    C   23  dyz    Ryd( 3d)     0.00047
   344    C   23  dx2y2  Ryd( 3d)     0.00042
   345    C   23  dz2    Ryd( 3d)     0.00054

   346    C   24  S      Cor( 1S)     1.99907
   347    C   24  S      Val( 2S)     0.93999
   348    C   24  S      Ryd( 3S)     0.00068
   349    C   24  S      Ryd( 4S)     0.00004
   350    C   24  px     Val( 2p)     1.16024
   351    C   24  px     Ryd( 3p)     0.00444
   352    C   24  py     Val( 2p)     1.15085
   353    C   24  py     Ryd( 3p)     0.00630
   354    C   24  pz     Val( 2p)     1.09228
   355    C   24  pz     Ryd( 3p)     0.00527
   356    C   24  dxy    Ryd( 3d)     0.00052
   357    C   24  dxz    Ryd( 3d)     0.00060
   358    C   24  dyz    Ryd( 3d)     0.00043
   359    C   24  dx2y2  Ryd( 3d)     0.00046
   360    C   24  dz2    Ryd( 3d)     0.00051

   361    H   25  S      Val( 1S)     0.74760
   362    H   25  S      Ryd( 2S)     0.00172
   363    H   25  px     Ryd( 2p)     0.00022
   364    H   25  py     Ryd( 2p)     0.00016
   365    H   25  pz     Ryd( 2p)     0.00016

   366    H   26  S      Val( 1S)     0.74494
   367    H   26  S      Ryd( 2S)     0.00141
   368    H   26  px     Ryd( 2p)     0.00013
   369    H   26  py     Ryd( 2p)     0.00029
   370    H   26  pz     Ryd( 2p)     0.00012

   371    H   27  S      Val( 1S)     0.75589
   372    H   27  S      Ryd( 2S)     0.00088
   373    H   27  px     Ryd( 2p)     0.00008
   374    H   27  py     Ryd( 2p)     0.00016
   375    H   27  pz     Ryd( 2p)     0.00026

   376    H   28  S      Val( 1S)     0.77093
   377    H   28  S      Ryd( 2S)     0.00101
   378    H   28  px     Ryd( 2p)     0.00006
   379    H   28  py     Ryd( 2p)     0.00024
   380    H   28  pz     Ryd( 2p)     0.00035

   381    H   29  S      Val( 1S)     0.76704
   382    H   29  S      Ryd( 2S)     0.00106
   383    H   29  px     Ryd( 2p)     0.00030
   384    H   29  py     Ryd( 2p)     0.00024
   385    H   29  pz     Ryd( 2p)     0.00014

   386    H   30  S      Val( 1S)     0.55537
   387    H   30  S      Ryd( 2S)     0.00225
   388    H   30  px     Ryd( 2p)     0.00017
   389    H   30  py     Ryd( 2p)     0.00052
   390    H   30  pz     Ryd( 2p)     0.00050

   391    H   31  S      Val( 1S)     0.73268
   392    H   31  S      Ryd( 2S)     0.00177
   393    H   31  px     Ryd( 2p)     0.00020
   394    H   31  py     Ryd( 2p)     0.00008
   395    H   31  pz     Ryd( 2p)     0.00025

   396    H   32  S      Val( 1S)     0.73958
   397    H   32  S      Ryd( 2S)     0.00220
   398    H   32  px     Ryd( 2p)     0.00007
   399    H   32  py     Ryd( 2p)     0.00031
   400    H   32  pz     Ryd( 2p)     0.00016

   401    H   33  S      Val( 1S)     0.78111
   402    H   33  S      Ryd( 2S)     0.00383
   403    H   33  px     Ryd( 2p)     0.00018
   404    H   33  py     Ryd( 2p)     0.00010
   405    H   33  pz     Ryd( 2p)     0.00031

   406    H   34  S      Val( 1S)     0.78342
   407    H   34  S      Ryd( 2S)     0.00235
   408    H   34  px     Ryd( 2p)     0.00006
   409    H   34  py     Ryd( 2p)     0.00035
   410    H   34  pz     Ryd( 2p)     0.00018

   411    H   35  S      Val( 1S)     0.77929
   412    H   35  S      Ryd( 2S)     0.00220
   413    H   35  px     Ryd( 2p)     0.00022
   414    H   35  py     Ryd( 2p)     0.00008
   415    H   35  pz     Ryd( 2p)     0.00029

   416    H   36  S      Val( 1S)     0.78246
   417    H   36  S      Ryd( 2S)     0.00284
   418    H   36  px     Ryd( 2p)     0.00010
   419    H   36  py     Ryd( 2p)     0.00032
   420    H   36  pz     Ryd( 2p)     0.00017

   421    H   37  S      Val( 1S)     0.75713
   422    H   37  S      Ryd( 2S)     0.00091
   423    H   37  px     Ryd( 2p)     0.00011
   424    H   37  py     Ryd( 2p)     0.00020
   425    H   37  pz     Ryd( 2p)     0.00026

   426    H   38  S      Val( 1S)     0.77892
   427    H   38  S      Ryd( 2S)     0.00300
   428    H   38  px     Ryd( 2p)     0.00012
   429    H   38  py     Ryd( 2p)     0.00038
   430    H   38  pz     Ryd( 2p)     0.00010

   431    H   39  S      Val( 1S)     0.77032
   432    H   39  S      Ryd( 2S)     0.00148
   433    H   39  px     Ryd( 2p)     0.00030
   434    H   39  py     Ryd( 2p)     0.00013
   435    H   39  pz     Ryd( 2p)     0.00015

   436    H   40  S      Val( 1S)     0.77399
   437    H   40  S      Ryd( 2S)     0.00236
   438    H   40  px     Ryd( 2p)     0.00034
   439    H   40  py     Ryd( 2p)     0.00012
   440    H   40  pz     Ryd( 2p)     0.00015

   441    H   41  S      Val( 1S)     0.75282
   442    H   41  S      Ryd( 2S)     0.00190
   443    H   41  px     Ryd( 2p)     0.00033
   444    H   41  py     Ryd( 2p)     0.00014
   445    H   41  pz     Ryd( 2p)     0.00010

   446    H   42  S      Val( 1S)     0.77420
   447    H   42  S      Ryd( 2S)     0.00257
   448    H   42  px     Ryd( 2p)     0.00009
   449    H   42  py     Ryd( 2p)     0.00017
   450    H   42  pz     Ryd( 2p)     0.00030

   451    H   43  S      Val( 1S)     0.58817
   452    H   43  S      Ryd( 2S)     0.00179
   453    H   43  px     Ryd( 2p)     0.00024
   454    H   43  py     Ryd( 2p)     0.00063
   455    H   43  pz     Ryd( 2p)     0.00046

   456    H   44  S      Val( 1S)     0.74602
   457    H   44  S      Ryd( 2S)     0.00243
   458    H   44  px     Ryd( 2p)     0.00021
   459    H   44  py     Ryd( 2p)     0.00027
   460    H   44  pz     Ryd( 2p)     0.00013

   461    H   45  S      Val( 1S)     0.75741
   462    H   45  S      Ryd( 2S)     0.00096
   463    H   45  px     Ryd( 2p)     0.00011
   464    H   45  py     Ryd( 2p)     0.00037
   465    H   45  pz     Ryd( 2p)     0.00012

   466    H   46  S      Val( 1S)     0.75149
   467    H   46  S      Ryd( 2S)     0.00094
   468    H   46  px     Ryd( 2p)     0.00011
   469    H   46  py     Ryd( 2p)     0.00010
   470    H   46  pz     Ryd( 2p)     0.00034

   471    H   47  S      Val( 1S)     0.75506
   472    H   47  S      Ryd( 2S)     0.00081
   473    H   47  px     Ryd( 2p)     0.00016
   474    H   47  py     Ryd( 2p)     0.00023
   475    H   47  pz     Ryd( 2p)     0.00011

   476    H   48  S      Val( 1S)     0.75427
   477    H   48  S      Ryd( 2S)     0.00085
   478    H   48  px     Ryd( 2p)     0.00012
   479    H   48  py     Ryd( 2p)     0.00025
   480    H   48  pz     Ryd( 2p)     0.00014

   481    H   49  S      Val( 1S)     0.75663
   482    H   49  S      Ryd( 2S)     0.00097
   483    H   49  px     Ryd( 2p)     0.00019
   484    H   49  py     Ryd( 2p)     0.00029
   485    H   49  pz     Ryd( 2p)     0.00012

   486    H   50  S      Val( 1S)     0.75664
   487    H   50  S      Ryd( 2S)     0.00098
   488    H   50  px     Ryd( 2p)     0.00010
   489    H   50  py     Ryd( 2p)     0.00036
   490    H   50  pz     Ryd( 2p)     0.00013

   491    H   51  S      Val( 1S)     0.77079
   492    H   51  S      Ryd( 2S)     0.00118
   493    H   51  px     Ryd( 2p)     0.00006
   494    H   51  py     Ryd( 2p)     0.00026
   495    H   51  pz     Ryd( 2p)     0.00036

   496    H   52  S      Val( 1S)     0.77275
   497    H   52  S      Ryd( 2S)     0.00096
   498    H   52  px     Ryd( 2p)     0.00032
   499    H   52  py     Ryd( 2p)     0.00022
   500    H   52  pz     Ryd( 2p)     0.00013

 WARNING:  1 low occupancy (<1.9990e) core orbital  found on  C    5
           1 low occupancy (<1.9990e) core orbital  found on  C   16


 Summary of Natural Population Analysis:                  
                                                          
                                       Natural Population 
                Natural  -----------------------------------------------
    Atom  No    Charge         Core      Valence    Rydberg      Total
 -----------------------------------------------------------------------
      C    1   -0.70947      1.99939     4.70286    0.00723     6.70947
      C    2    0.05158      1.99903     3.93431    0.01507     5.94842
      C    3   -0.33749      1.99907     4.31960    0.01882     6.33749
      C    4   -0.36083      1.99907     4.34219    0.01958     6.36083
      C    5    0.16685      1.99898     3.81462    0.01956     5.83315
      N    6   -0.44623      1.99940     5.43595    0.01088     7.44623
      C    7   -0.30348      1.99931     4.28603    0.01813     6.30348
      C    8   -0.11137      1.99927     4.09634    0.01576     6.11137
      O    9   -0.60111      1.99977     6.58872    0.01261     8.60111
      C   10   -0.14157      1.99927     4.12707    0.01523     6.14157
      C   11   -0.13484      1.99924     4.11503    0.02057     6.13484
      O   12   -0.60110      1.99980     6.58917    0.01213     8.60110
      C   13   -0.12821      1.99924     4.10903    0.01994     6.12821
      C   14   -0.29778      1.99931     4.28485    0.01362     6.29778
      N   15   -0.68725      1.99946     5.67257    0.01522     7.68725
      C   16    0.14686      1.99897     3.83518    0.01899     5.85314
      C   17   -0.27211      1.99904     4.25915    0.01392     6.27211
      C   18   -0.23323      1.99904     4.22162    0.01256     6.23323
      C   19   -0.05742      1.99903     4.04441    0.01399     6.05742
      C   20   -0.70144      1.99940     4.69514    0.00691     6.70144
      C   21   -0.23381      1.99904     4.22209    0.01267     6.23381
      C   22   -0.27527      1.99903     4.26349    0.01275     6.27527
      C   23   -0.34742      1.99908     4.32845    0.01989     6.34742
      C   24   -0.36166      1.99907     4.34336    0.01924     6.36166
      H   25    0.25014      0.00000     0.74760    0.00225     0.74986
      H   26    0.25310      0.00000     0.74494    0.00196     0.74690
      H   27    0.24273      0.00000     0.75589    0.00138     0.75727
      H   28    0.22741      0.00000     0.77093    0.00166     0.77259
      H   29    0.23123      0.00000     0.76704    0.00174     0.76877
      H   30    0.44120      0.00000     0.55537    0.00343     0.55880
      H   31    0.26503      0.00000     0.73268    0.00230     0.73497
      H   32    0.25767      0.00000     0.73958    0.00274     0.74233
      H   33    0.21446      0.00000     0.78111    0.00443     0.78554
      H   34    0.21363      0.00000     0.78342    0.00294     0.78637
      H   35    0.21792      0.00000     0.77929    0.00279     0.78208
      H   36    0.21411      0.00000     0.78246    0.00342     0.78589
      H   37    0.24139      0.00000     0.75713    0.00148     0.75861
      H   38    0.21747      0.00000     0.77892    0.00360     0.78253
      H   39    0.22762      0.00000     0.77032    0.00206     0.77238
      H   40    0.22303      0.00000     0.77399    0.00298     0.77697
      H   41    0.24472      0.00000     0.75282    0.00246     0.75528
      H   42    0.22267      0.00000     0.77420    0.00313     0.77733
      H   43    0.40872      0.00000     0.58817    0.00311     0.59128
      H   44    0.25094      0.00000     0.74602    0.00304     0.74906
      H   45    0.24103      0.00000     0.75741    0.00156     0.75897
      H   46    0.24703      0.00000     0.75149    0.00148     0.75297
      H   47    0.24362      0.00000     0.75506    0.00132     0.75638
      H   48    0.24437      0.00000     0.75427    0.00136     0.75563
      H   49    0.24180      0.00000     0.75663    0.00157     0.75820
      H   50    0.24179      0.00000     0.75664    0.00157     0.75821
      H   51    0.22737      0.00000     0.77079    0.00185     0.77263
      H   52    0.22563      0.00000     0.77275    0.00163     0.77437
 =======================================================================
   * Total *    0.00000     47.98130   129.58816    0.43054   178.00000

                                 Natural Population      
 --------------------------------------------------------
   Core                      47.98130 ( 99.9610% of  48)
   Valence                  129.58816 ( 99.6832% of 130)
   Natural Minimal Basis    177.56946 ( 99.7581% of 178)
   Natural Rydberg Basis      0.43054 (  0.2419% of 178)
 --------------------------------------------------------

    Atom  No          Natural Electron Configuration
 ----------------------------------------------------------------------------
      C    1      [core]2S( 1.10)2p( 3.60)
      C    2      [core]2S( 0.89)2p( 3.04)3p( 0.01)
      C    3      [core]2S( 0.94)2p( 3.38)3p( 0.02)
      C    4      [core]2S( 0.94)2p( 3.40)3p( 0.02)
      C    5      [core]2S( 0.85)2p( 2.97)3p( 0.01)3d( 0.01)
      N    6      [core]2S( 1.28)2p( 4.16)3p( 0.01)
      C    7      [core]2S( 1.03)2p( 3.25)3p( 0.01)
      C    8      [core]2S( 1.04)2p( 3.06)3p( 0.01)3d( 0.01)
      O    9      [core]2S( 1.62)2p( 4.97)3p( 0.01)
      C   10      [core]2S( 1.04)2p( 3.09)3p( 0.01)3d( 0.01)
      C   11      [core]2S( 1.03)2p( 3.09)3p( 0.01)3d( 0.01)
      O   12      [core]2S( 1.62)2p( 4.97)3p( 0.01)
      C   13      [core]2S( 1.02)2p( 3.08)3p( 0.01)3d( 0.01)
      C   14      [core]2S( 1.03)2p( 3.25)3p( 0.01)
      N   15      [core]2S( 1.31)2p( 4.36)3p( 0.01)
      C   16      [core]2S( 0.84)2p( 2.99)3p( 0.01)
      C   17      [core]2S( 0.96)2p( 3.30)3p( 0.01)
      C   18      [core]2S( 0.95)2p( 3.27)3p( 0.01)
      C   19      [core]2S( 0.88)2p( 3.16)3p( 0.01)
      C   20      [core]2S( 1.10)2p( 3.60)
      C   21      [core]2S( 0.95)2p( 3.27)3p( 0.01)
      C   22      [core]2S( 0.96)2p( 3.31)3p( 0.01)
      C   23      [core]2S( 0.94)2p( 3.38)3p( 0.02)
      C   24      [core]2S( 0.94)2p( 3.40)3p( 0.02)
      H   25            1S( 0.75)
      H   26            1S( 0.74)
      H   27            1S( 0.76)
      H   28            1S( 0.77)
      H   29            1S( 0.77)
      H   30            1S( 0.56)
      H   31            1S( 0.73)
      H   32            1S( 0.74)
      H   33            1S( 0.78)
      H   34            1S( 0.78)
      H   35            1S( 0.78)
      H   36            1S( 0.78)
      H   37            1S( 0.76)
      H   38            1S( 0.78)
      H   39            1S( 0.77)
      H   40            1S( 0.77)
      H   41            1S( 0.75)
      H   42            1S( 0.77)
      H   43            1S( 0.59)
      H   44            1S( 0.75)
      H   45            1S( 0.76)
      H   46            1S( 0.75)
      H   47            1S( 0.76)
      H   48            1S( 0.75)
      H   49            1S( 0.76)
      H   50            1S( 0.76)
      H   51            1S( 0.77)
      H   52            1S( 0.77)


 NBO analysis skipped by request.
 1\1\GINC-DRG2-W004\SP\RB3LYP TD-FC\6-31G(d,p)\C20H28N2O2\QDUEZ\19-Jul-
 2024\0\\# TD(NStates=10, Root=1) B3LYP/6-31G** SCRF=(Solvent=water) vo
 lume pop=NPA density=current Geom=AllCheck Guess=Read\\RRZROWKVNHGBPP-
 UHFFFAOYSA-N_conf_2\\0,1\C,0,-8.6741501828,1.3995020097,-0.5988703719\
 C,0,-7.4004313468,0.5913993611,-0.5086019374\C,0,-6.1574384289,1.13380
 77408,-0.8493308027\C,0,-4.9737313694,0.3976225782,-0.7568664306\C,0,-
 4.996434008,-0.9378471276,-0.3158271873\N,0,-3.8581543262,-1.742176328
 6,-0.266531206\C,0,-2.5070106382,-1.2090329314,-0.2409779827\C,0,-2.13
 23348246,-0.5138446076,1.0721906434\O,0,-0.8044541211,-0.0284243734,0.
 9430106889\C,0,-0.34285653,0.6548031562,2.102522606\C,0,1.0756938897,1
 .1593025915,1.8822509898\O,0,2.0923673988,0.1698877013,2.0037872273\C,
 0,2.1575936944,-0.8313289519,0.9899995238\C,0,2.2821566444,-0.32294290
 83,-0.4478051139\N,0,3.2742643153,0.7450845322,-0.6686204473\C,0,4.654
 4227142,0.4628223481,-0.5102819256\C,0,5.2004972542,0.1951763745,0.758
 1230781\C,0,6.5666855886,-0.0360614883,0.9061765768\C,0,7.4469749367,0
 .0150983276,-0.1848824377\C,0,8.9234787054,-0.2559272802,-0.0129460729
 \C,0,6.9010558574,0.3137574654,-1.4395121972\C,0,5.5313780725,0.521863
 1729,-1.6052974481\C,0,-6.2473757478,-1.4907605464,0.0318713879\C,0,-7
 .4136505731,-0.7414340445,-0.0655484336\H,0,-9.4311848157,0.8944959925
 ,-1.2100634881\H,0,-9.1219886281,1.5628874789,0.3891223464\H,0,-8.4894
 814885,2.3818473973,-1.0429404568\H,0,-6.1028597678,2.1637138706,-1.19
 48049719\H,0,-4.0374285946,0.8704512643,-1.0327846461\H,0,-3.977473540
 6,-2.5863576815,0.2775443746\H,0,-1.8139682129,-2.0378763126,-0.414249
 2512\H,0,-2.3692999322,-0.509099383,-1.0713226731\H,0,-2.8269574169,0.
 3146167105,1.2796741378\H,0,-2.2076038805,-1.2263841802,1.9090509009\H
 ,0,-0.9958463874,1.5169078389,2.3160218776\H,0,-0.3697915483,-0.009617
 4169,2.9803817342\H,0,1.2993213305,1.8900045422,2.6662850307\H,0,1.137
 5160616,1.6771847963,0.9167186392\H,0,3.0308989987,-1.4327399793,1.255
 9369958\H,0,1.2769781264,-1.4851154881,1.026026002\H,0,1.3182465093,0.
 0818109891,-0.7677105908\H,0,2.4770633486,-1.2120943404,-1.0723086399\
 H,0,3.113772972,1.1331697966,-1.5928389527\H,0,4.5513465555,0.21276083
 15,1.6266048294\H,0,6.9616966955,-0.2388197227,1.8991670286\H,0,9.1424
 352668,-1.3304017561,-0.0593720684\H,0,9.5130061045,0.2284250275,-0.79
 70014397\H,0,9.2863018736,0.1032859115,0.9552515286\H,0,7.5543318428,0
 .3747742567,-2.3068110373\H,0,5.1351538341,0.7369885678,-2.5951791231\
 H,0,-6.2942334888,-2.5213461056,0.3762531603\H,0,-8.3584987921,-1.2038
 19677,0.2117681724\\Version=ES64L-G16RevA.03\State=1-A\HF=-1038.965715
 6\RMSD=6.712e-09\Dipole=0.6991639,-1.0029316,0.0870105\Quadrupole=-19.
 0932127,11.1593733,7.9338394,0.2972699,-10.5878126,-2.3049215\PG=C01 [
 X(C20H28N2O2)]\\@


 I DON'T EXACTLY UNDERSTAND WHAT YOU ARE SAYING,
 BUT YOU ARE ABSOLUTELY RIGHT.
     M.S.GORDON, IN A NDSU FACULTY MEETING
 Job cpu time:       0 days  2 hours  7 minutes 36.0 seconds.
 Elapsed time:       0 days  0 hours 42 minutes 39.3 seconds.
 File lengths (MBytes):  RWF=   1985 Int=      0 D2E=      0 Chk=    122 Scr=      1
 Normal termination of Gaussian 16 at Fri Jul 19 13:54:18 2024.
