 Entering Gaussian System, Link 0=g16
 Initial command:
 /opt/sw/arch/manual/gaussian/G16_A03/g16/l1.exe "/scratch/1381395/Gau-244707.inp" -scrdir="/scratch/1381395/"
 Entering Link 1 = /opt/sw/arch/manual/gaussian/G16_A03/g16/l1.exe PID=    244709.
  
 Copyright (c) 1988,1990,1992,1993,1995,1998,2003,2009,2016,
            Gaussian, Inc.  All Rights Reserved.
  
 This is part of the Gaussian(R) 16 program.  It is based on
 the Gaussian(R) 09 system (copyright 2009, Gaussian, Inc.),
 the Gaussian(R) 03 system (copyright 2003, Gaussian, Inc.),
 the Gaussian(R) 98 system (copyright 1998, Gaussian, Inc.),
 the Gaussian(R) 94 system (copyright 1995, Gaussian, Inc.),
 the Gaussian 92(TM) system (copyright 1992, Gaussian, Inc.),
 the Gaussian 90(TM) system (copyright 1990, Gaussian, Inc.),
 the Gaussian 88(TM) system (copyright 1988, Gaussian, Inc.),
 the Gaussian 86(TM) system (copyright 1986, Carnegie Mellon
 University), and the Gaussian 82(TM) system (copyright 1983,
 Carnegie Mellon University). Gaussian is a federally registered
 trademark of Gaussian, Inc.
  
 This software contains proprietary and confidential information,
 including trade secrets, belonging to Gaussian, Inc.
  
 This software is provided under written license and may be
 used, copied, transmitted, or stored only in accord with that
 written license.
  
 The following legend is applicable only to US Government
 contracts under FAR:
  
                    RESTRICTED RIGHTS LEGEND
  
 Use, reproduction and disclosure by the US Government is
 subject to restrictions as set forth in subparagraphs (a)
 and (c) of the Commercial Computer Software - Restricted
 Rights clause in FAR 52.227-19.
  
 Gaussian, Inc.
 340 Quinnipiac St., Bldg. 40, Wallingford CT 06492
  
  
 ---------------------------------------------------------------
 Warning -- This program may not be used in any manner that
 competes with the business of Gaussian, Inc. or will provide
 assistance to any competitor of Gaussian, Inc.  The licensee
 of this program is prohibited from giving any competitor of
 Gaussian, Inc. access to this program.  By using this program,
 the user acknowledges that Gaussian, Inc. is engaged in the
 business of creating and licensing software in the field of
 computational chemistry and represents and warrants to the
 licensee that it is not a competitor of Gaussian, Inc. and that
 it will not use this program in any manner prohibited above.
 ---------------------------------------------------------------
  

 Cite this work as:
 Gaussian 16, Revision A.03,
 M. J. Frisch, G. W. Trucks, H. B. Schlegel, G. E. Scuseria, 
 M. A. Robb, J. R. Cheeseman, G. Scalmani, V. Barone, 
 G. A. Petersson, H. Nakatsuji, X. Li, M. Caricato, A. V. Marenich, 
 J. Bloino, B. G. Janesko, R. Gomperts, B. Mennucci, H. P. Hratchian, 
 J. V. Ortiz, A. F. Izmaylov, J. L. Sonnenberg, D. Williams-Young, 
 F. Ding, F. Lipparini, F. Egidi, J. Goings, B. Peng, A. Petrone, 
 T. Henderson, D. Ranasinghe, V. G. Zakrzewski, J. Gao, N. Rega, 
 G. Zheng, W. Liang, M. Hada, M. Ehara, K. Toyota, R. Fukuda, 
 J. Hasegawa, M. Ishida, T. Nakajima, Y. Honda, O. Kitao, H. Nakai, 
 T. Vreven, K. Throssell, J. A. Montgomery, Jr., J. E. Peralta, 
 F. Ogliaro, M. J. Bearpark, J. J. Heyd, E. N. Brothers, K. N. Kudin, 
 V. N. Staroverov, T. A. Keith, R. Kobayashi, J. Normand, 
 K. Raghavachari, A. P. Rendell, J. C. Burant, S. S. Iyengar, 
 J. Tomasi, M. Cossi, J. M. Millam, M. Klene, C. Adamo, R. Cammi, 
 J. W. Ochterski, R. L. Martin, K. Morokuma, O. Farkas, 
 J. B. Foresman, and D. J. Fox, Gaussian, Inc., Wallingford CT, 2016.
 
 ******************************************
 Gaussian 16:  ES64L-G16RevA.03 25-Dec-2016
                19-Jul-2024 
 ******************************************
 %nprocshared=8
 Will use up to    8 processors via shared memory.
 %mem=16GB
 %Chk=RRZROWKVNHGBPP-UHFFFAOYSA-N_conf_3_0.chk
 -------------------------------------------------------
 # opt=CalcFc B3LYP/6-31G** SCRF=(Solvent=water) scf=xqc
 -------------------------------------------------------
 1/10=4,18=20,19=15,26=3,38=1/1,3;
 2/9=110,12=2,17=6,18=5,40=1/2;
 3/5=1,6=6,7=101,11=2,25=1,30=1,70=2201,71=2,72=1,74=-5,140=1/1,2,3;
 4//1;
 5/5=2,8=3,13=1,38=5,53=1/2,8;
 8/6=4,10=90,11=11/1;
 11/6=1,8=1,9=11,15=111,16=1/1,2,10;
 10/6=1,13=1/2;
 6/7=2,8=2,9=2,10=2,28=1/1;
 7/10=1,18=20,25=1/1,2,3,16;
 1/10=4,18=20,19=15,26=3/3(2);
 2/9=110/2;
 99//99;
 2/9=110/2;
 3/5=1,6=6,7=101,11=2,25=1,30=1,70=2205,71=1,72=1,74=-5/1,2,3;
 4/5=5,16=3,69=1/1;
 5/5=2,8=3,13=1,38=5,53=1/2,8;
 7//1,2,3,16;
 1/18=20,19=15,26=3/3(-5);
 2/9=110/2;
 6/7=2,8=2,9=2,10=2,19=2,28=1/1;
 99/9=1/99;
 ----------------------------------
 RRZROWKVNHGBPP-UHFFFAOYSA-N_conf_3
 ----------------------------------
 Symbolic Z-matrix:
 Charge =  0 Multiplicity = 1
 C                     9.93693  -0.96019   0.59517 
 C                     8.46829  -0.67523   0.49945 
 C                     7.5252   -1.6166    0.91842 
 C                     6.15422  -1.35237   0.79986 
 C                     5.68948  -0.13914   0.27962 
 N                     4.3366    0.14763   0.08537 
 C                     3.32404  -0.55127   0.8807 
 C                     1.95563   0.14206   0.76846 
 O                     1.42332  -0.02227  -0.54819 
 C                     0.30901   0.82269  -0.82953 
 C                    -0.94085   0.47147  -0.02014 
 O                    -2.06003   1.25258  -0.44117 
 C                    -2.82904   0.59808  -1.46204 
 C                    -3.95868   1.53027  -1.92128 
 N                    -4.85553   1.87931  -0.8147 
 C                    -5.77198   0.94827  -0.31303 
 C                    -6.26457   1.1336    0.98634 
 C                    -7.23049   0.28156   1.53296 
 C                    -7.76309  -0.76041   0.77272 
 C                    -8.77503  -1.69231   1.36662 
 C                    -7.30538  -0.93663  -0.53472 
 C                    -6.33698  -0.07928  -1.07399 
 C                     6.64541   0.77343  -0.18505 
 C                     8.01679   0.51834  -0.0689 
 H                     10.47745  -0.07517   0.94705 
 H                     10.13896  -1.76977   1.3056 
 H                     10.3269  -1.25292  -0.3856 
 H                     7.8451   -2.57148   1.32982 
 H                     5.4594   -2.12474   1.11323 
 H                     4.15262   1.13948  -0.03905 
 H                     3.23522  -1.58509   0.52691 
 H                     3.6155   -0.55608   1.93821 
 H                     1.26797  -0.32463   1.48087 
 H                     2.05096   1.20632   1.00895 
 H                     0.09433   0.71741  -1.89822 
 H                     0.58482   1.87448  -0.68262 
 H                    -0.76889   0.71027   1.03455 
 H                    -1.15655  -0.60317  -0.06249 
 H                    -2.18449   0.3655   -2.31686 
 H                    -3.23662  -0.33629  -1.06089 
 H                    -3.51232   2.46897  -2.27252 
 H                    -4.49961   1.10742  -2.77309 
 H                    -4.31466   2.29992  -0.05781 
 H                    -5.8905    1.9528    1.59564 
 H                    -7.567     0.44742   2.55267 
 H                    -9.37363  -2.17683   0.58733 
 H                    -8.27169  -2.46703   1.95376 
 H                    -9.46799  -1.14746   2.01626 
 H                    -7.70736  -1.73532  -1.1538 
 H                    -6.04488  -0.2378   -2.10606 
 H                     6.32749   1.70447  -0.64748 
 H                     8.72618   1.25569  -0.43652 
 

 GradGradGradGradGradGradGradGradGradGradGradGradGradGradGradGradGradGrad
 Berny optimization.
 Initialization pass.
                           ----------------------------
                           !    Initial Parameters    !
                           ! (Angstroms and Degrees)  !
 --------------------------                            --------------------------
 ! Name  Definition              Value          Derivative Info.                !
 --------------------------------------------------------------------------------
 ! R1    R(1,2)                  1.4991         calculate D2E/DX2 analytically  !
 ! R2    R(1,25)                 1.0951         calculate D2E/DX2 analytically  !
 ! R3    R(1,26)                 1.0959         calculate D2E/DX2 analytically  !
 ! R4    R(1,27)                 1.0953         calculate D2E/DX2 analytically  !
 ! R5    R(2,3)                  1.3968         calculate D2E/DX2 analytically  !
 ! R6    R(2,24)                 1.397          calculate D2E/DX2 analytically  !
 ! R7    R(3,4)                  1.4012         calculate D2E/DX2 analytically  !
 ! R8    R(3,28)                 1.0878         calculate D2E/DX2 analytically  !
 ! R9    R(4,5)                  1.3995         calculate D2E/DX2 analytically  !
 ! R10   R(4,29)                 1.0851         calculate D2E/DX2 analytically  !
 ! R11   R(5,6)                  1.3965         calculate D2E/DX2 analytically  !
 ! R12   R(5,23)                 1.4009         calculate D2E/DX2 analytically  !
 ! R13   R(6,7)                  1.465          calculate D2E/DX2 analytically  !
 ! R14   R(6,30)                 1.0164         calculate D2E/DX2 analytically  !
 ! R15   R(7,8)                  1.5381         calculate D2E/DX2 analytically  !
 ! R16   R(7,31)                 1.0963         calculate D2E/DX2 analytically  !
 ! R17   R(7,32)                 1.097          calculate D2E/DX2 analytically  !
 ! R18   R(8,9)                  1.4297         calculate D2E/DX2 analytically  !
 ! R19   R(8,33)                 1.0946         calculate D2E/DX2 analytically  !
 ! R20   R(8,34)                 1.0953         calculate D2E/DX2 analytically  !
 ! R21   R(9,10)                 1.4265         calculate D2E/DX2 analytically  !
 ! R22   R(10,11)                1.5299         calculate D2E/DX2 analytically  !
 ! R23   R(10,35)                1.0951         calculate D2E/DX2 analytically  !
 ! R24   R(10,36)                1.0972         calculate D2E/DX2 analytically  !
 ! R25   R(11,12)                1.4283         calculate D2E/DX2 analytically  !
 ! R26   R(11,37)                1.095          calculate D2E/DX2 analytically  !
 ! R27   R(11,38)                1.0969         calculate D2E/DX2 analytically  !
 ! R28   R(12,13)                1.4359         calculate D2E/DX2 analytically  !
 ! R29   R(13,14)                1.5349         calculate D2E/DX2 analytically  !
 ! R30   R(13,39)                1.0956         calculate D2E/DX2 analytically  !
 ! R31   R(13,40)                1.0955         calculate D2E/DX2 analytically  !
 ! R32   R(14,15)                1.4665         calculate D2E/DX2 analytically  !
 ! R33   R(14,41)                1.0972         calculate D2E/DX2 analytically  !
 ! R34   R(14,42)                1.0941         calculate D2E/DX2 analytically  !
 ! R35   R(15,16)                1.3994         calculate D2E/DX2 analytically  !
 ! R36   R(15,43)                1.0209         calculate D2E/DX2 analytically  !
 ! R37   R(16,17)                1.4019         calculate D2E/DX2 analytically  !
 ! R38   R(16,22)                1.3979         calculate D2E/DX2 analytically  !
 ! R39   R(17,18)                1.3992         calculate D2E/DX2 analytically  !
 ! R40   R(17,44)                1.0873         calculate D2E/DX2 analytically  !
 ! R41   R(18,19)                1.3955         calculate D2E/DX2 analytically  !
 ! R42   R(18,45)                1.0865         calculate D2E/DX2 analytically  !
 ! R43   R(19,20)                1.4984         calculate D2E/DX2 analytically  !
 ! R44   R(19,21)                1.3964         calculate D2E/DX2 analytically  !
 ! R45   R(20,46)                1.0956         calculate D2E/DX2 analytically  !
 ! R46   R(20,47)                1.0947         calculate D2E/DX2 analytically  !
 ! R47   R(20,48)                1.095          calculate D2E/DX2 analytically  !
 ! R48   R(21,22)                1.4013         calculate D2E/DX2 analytically  !
 ! R49   R(21,49)                1.0876         calculate D2E/DX2 analytically  !
 ! R50   R(22,50)                1.0843         calculate D2E/DX2 analytically  !
 ! R51   R(23,24)                1.3997         calculate D2E/DX2 analytically  !
 ! R52   R(23,51)                1.0871         calculate D2E/DX2 analytically  !
 ! R53   R(24,52)                1.0872         calculate D2E/DX2 analytically  !
 ! A1    A(2,1,25)             110.5145         calculate D2E/DX2 analytically  !
 ! A2    A(2,1,26)             111.2497         calculate D2E/DX2 analytically  !
 ! A3    A(2,1,27)             110.025          calculate D2E/DX2 analytically  !
 ! A4    A(25,1,26)            107.3219         calculate D2E/DX2 analytically  !
 ! A5    A(25,1,27)            109.1463         calculate D2E/DX2 analytically  !
 ! A6    A(26,1,27)            108.5067         calculate D2E/DX2 analytically  !
 ! A7    A(1,2,3)              120.9433         calculate D2E/DX2 analytically  !
 ! A8    A(1,2,24)             120.3336         calculate D2E/DX2 analytically  !
 ! A9    A(3,2,24)             118.6612         calculate D2E/DX2 analytically  !
 ! A10   A(2,3,4)              120.5392         calculate D2E/DX2 analytically  !
 ! A11   A(2,3,28)             120.4279         calculate D2E/DX2 analytically  !
 ! A12   A(4,3,28)             119.0282         calculate D2E/DX2 analytically  !
 ! A13   A(3,4,5)              121.321          calculate D2E/DX2 analytically  !
 ! A14   A(3,4,29)             117.8931         calculate D2E/DX2 analytically  !
 ! A15   A(5,4,29)             120.7816         calculate D2E/DX2 analytically  !
 ! A16   A(4,5,6)              123.465          calculate D2E/DX2 analytically  !
 ! A17   A(4,5,23)             117.4792         calculate D2E/DX2 analytically  !
 ! A18   A(6,5,23)             118.7601         calculate D2E/DX2 analytically  !
 ! A19   A(5,6,7)              119.7412         calculate D2E/DX2 analytically  !
 ! A20   A(5,6,30)             113.1267         calculate D2E/DX2 analytically  !
 ! A21   A(7,6,30)             114.0086         calculate D2E/DX2 analytically  !
 ! A22   A(6,7,8)              111.1149         calculate D2E/DX2 analytically  !
 ! A23   A(6,7,31)             109.31           calculate D2E/DX2 analytically  !
 ! A24   A(6,7,32)             109.9873         calculate D2E/DX2 analytically  !
 ! A25   A(8,7,31)             109.2354         calculate D2E/DX2 analytically  !
 ! A26   A(8,7,32)             107.9815         calculate D2E/DX2 analytically  !
 ! A27   A(31,7,32)            109.1775         calculate D2E/DX2 analytically  !
 ! A28   A(7,8,9)              110.2818         calculate D2E/DX2 analytically  !
 ! A29   A(7,8,33)             108.6162         calculate D2E/DX2 analytically  !
 ! A30   A(7,8,34)             110.1537         calculate D2E/DX2 analytically  !
 ! A31   A(9,8,33)             108.4493         calculate D2E/DX2 analytically  !
 ! A32   A(9,8,34)             110.2629         calculate D2E/DX2 analytically  !
 ! A33   A(33,8,34)            109.0298         calculate D2E/DX2 analytically  !
 ! A34   A(8,9,10)             113.8538         calculate D2E/DX2 analytically  !
 ! A35   A(9,10,11)            113.4441         calculate D2E/DX2 analytically  !
 ! A36   A(9,10,35)            106.7774         calculate D2E/DX2 analytically  !
 ! A37   A(9,10,36)            110.1845         calculate D2E/DX2 analytically  !
 ! A38   A(11,10,35)           109.5158         calculate D2E/DX2 analytically  !
 ! A39   A(11,10,36)           110.7682         calculate D2E/DX2 analytically  !
 ! A40   A(35,10,36)           105.7884         calculate D2E/DX2 analytically  !
 ! A41   A(10,11,12)           111.0178         calculate D2E/DX2 analytically  !
 ! A42   A(10,11,37)           109.3428         calculate D2E/DX2 analytically  !
 ! A43   A(10,11,38)           111.4163         calculate D2E/DX2 analytically  !
 ! A44   A(12,11,37)           106.7217         calculate D2E/DX2 analytically  !
 ! A45   A(12,11,38)           111.7354         calculate D2E/DX2 analytically  !
 ! A46   A(37,11,38)           106.3634         calculate D2E/DX2 analytically  !
 ! A47   A(11,12,13)           112.3302         calculate D2E/DX2 analytically  !
 ! A48   A(12,13,14)           109.2708         calculate D2E/DX2 analytically  !
 ! A49   A(12,13,39)           109.6582         calculate D2E/DX2 analytically  !
 ! A50   A(12,13,40)           109.128          calculate D2E/DX2 analytically  !
 ! A51   A(14,13,39)           109.1752         calculate D2E/DX2 analytically  !
 ! A52   A(14,13,40)           110.7167         calculate D2E/DX2 analytically  !
 ! A53   A(39,13,40)           108.8772         calculate D2E/DX2 analytically  !
 ! A54   A(13,14,15)           111.6454         calculate D2E/DX2 analytically  !
 ! A55   A(13,14,41)           108.4199         calculate D2E/DX2 analytically  !
 ! A56   A(13,14,42)           111.229          calculate D2E/DX2 analytically  !
 ! A57   A(15,14,41)           106.6618         calculate D2E/DX2 analytically  !
 ! A58   A(15,14,42)           112.1545         calculate D2E/DX2 analytically  !
 ! A59   A(41,14,42)           106.4138         calculate D2E/DX2 analytically  !
 ! A60   A(14,15,16)           120.8397         calculate D2E/DX2 analytically  !
 ! A61   A(14,15,43)           109.4798         calculate D2E/DX2 analytically  !
 ! A62   A(16,15,43)           110.8093         calculate D2E/DX2 analytically  !
 ! A63   A(15,16,17)           118.3211         calculate D2E/DX2 analytically  !
 ! A64   A(15,16,22)           123.9574         calculate D2E/DX2 analytically  !
 ! A65   A(17,16,22)           117.3681         calculate D2E/DX2 analytically  !
 ! A66   A(16,17,18)           121.6111         calculate D2E/DX2 analytically  !
 ! A67   A(16,17,44)           119.8747         calculate D2E/DX2 analytically  !
 ! A68   A(18,17,44)           118.5133         calculate D2E/DX2 analytically  !
 ! A69   A(17,18,19)           120.3537         calculate D2E/DX2 analytically  !
 ! A70   A(17,18,45)           119.1758         calculate D2E/DX2 analytically  !
 ! A71   A(19,18,45)           120.4679         calculate D2E/DX2 analytically  !
 ! A72   A(18,19,20)           120.4122         calculate D2E/DX2 analytically  !
 ! A73   A(18,19,21)           118.6336         calculate D2E/DX2 analytically  !
 ! A74   A(20,19,21)           120.9294         calculate D2E/DX2 analytically  !
 ! A75   A(19,20,46)           111.2297         calculate D2E/DX2 analytically  !
 ! A76   A(19,20,47)           110.012          calculate D2E/DX2 analytically  !
 ! A77   A(19,20,48)           110.6755         calculate D2E/DX2 analytically  !
 ! A78   A(46,20,47)           108.6478         calculate D2E/DX2 analytically  !
 ! A79   A(46,20,48)           107.2337         calculate D2E/DX2 analytically  !
 ! A80   A(47,20,48)           108.96           calculate D2E/DX2 analytically  !
 ! A81   A(19,21,22)           120.6391         calculate D2E/DX2 analytically  !
 ! A82   A(19,21,49)           120.2985         calculate D2E/DX2 analytically  !
 ! A83   A(22,21,49)           119.0572         calculate D2E/DX2 analytically  !
 ! A84   A(16,22,21)           121.3018         calculate D2E/DX2 analytically  !
 ! A85   A(16,22,50)           121.1138         calculate D2E/DX2 analytically  !
 ! A86   A(21,22,50)           117.5835         calculate D2E/DX2 analytically  !
 ! A87   A(5,23,24)            121.4874         calculate D2E/DX2 analytically  !
 ! A88   A(5,23,51)            119.9638         calculate D2E/DX2 analytically  !
 ! A89   A(24,23,51)           118.5488         calculate D2E/DX2 analytically  !
 ! A90   A(2,24,23)            120.4062         calculate D2E/DX2 analytically  !
 ! A91   A(2,24,52)            120.4067         calculate D2E/DX2 analytically  !
 ! A92   A(23,24,52)           119.1837         calculate D2E/DX2 analytically  !
 ! D1    D(25,1,2,3)          -138.468          calculate D2E/DX2 analytically  !
 ! D2    D(25,1,2,24)           44.4326         calculate D2E/DX2 analytically  !
 ! D3    D(26,1,2,3)           -19.3509         calculate D2E/DX2 analytically  !
 ! D4    D(26,1,2,24)          163.5498         calculate D2E/DX2 analytically  !
 ! D5    D(27,1,2,3)           100.9284         calculate D2E/DX2 analytically  !
 ! D6    D(27,1,2,24)          -76.1709         calculate D2E/DX2 analytically  !
 ! D7    D(1,2,3,4)           -178.6919         calculate D2E/DX2 analytically  !
 ! D8    D(1,2,3,28)             0.509          calculate D2E/DX2 analytically  !
 ! D9    D(24,2,3,4)            -1.545          calculate D2E/DX2 analytically  !
 ! D10   D(24,2,3,28)          177.6559         calculate D2E/DX2 analytically  !
 ! D11   D(1,2,24,23)          178.6297         calculate D2E/DX2 analytically  !
 ! D12   D(1,2,24,52)           -0.6882         calculate D2E/DX2 analytically  !
 ! D13   D(3,2,24,23)            1.4648         calculate D2E/DX2 analytically  !
 ! D14   D(3,2,24,52)         -177.853          calculate D2E/DX2 analytically  !
 ! D15   D(2,3,4,5)             -0.9066         calculate D2E/DX2 analytically  !
 ! D16   D(2,3,4,29)           178.3396         calculate D2E/DX2 analytically  !
 ! D17   D(28,3,4,5)           179.8814         calculate D2E/DX2 analytically  !
 ! D18   D(28,3,4,29)           -0.8723         calculate D2E/DX2 analytically  !
 ! D19   D(3,4,5,6)            177.0072         calculate D2E/DX2 analytically  !
 ! D20   D(3,4,5,23)             3.3412         calculate D2E/DX2 analytically  !
 ! D21   D(29,4,5,6)            -2.2174         calculate D2E/DX2 analytically  !
 ! D22   D(29,4,5,23)         -175.8834         calculate D2E/DX2 analytically  !
 ! D23   D(4,5,6,7)             24.4439         calculate D2E/DX2 analytically  !
 ! D24   D(4,5,6,30)           163.3437         calculate D2E/DX2 analytically  !
 ! D25   D(23,5,6,7)          -161.9665         calculate D2E/DX2 analytically  !
 ! D26   D(23,5,6,30)          -23.0667         calculate D2E/DX2 analytically  !
 ! D27   D(4,5,23,24)           -3.4263         calculate D2E/DX2 analytically  !
 ! D28   D(4,5,23,51)          176.6176         calculate D2E/DX2 analytically  !
 ! D29   D(6,5,23,24)         -177.4            calculate D2E/DX2 analytically  !
 ! D30   D(6,5,23,51)            2.6439         calculate D2E/DX2 analytically  !
 ! D31   D(5,6,7,8)            165.9835         calculate D2E/DX2 analytically  !
 ! D32   D(5,6,7,31)           -73.3844         calculate D2E/DX2 analytically  !
 ! D33   D(5,6,7,32)            46.4721         calculate D2E/DX2 analytically  !
 ! D34   D(30,6,7,8)            27.4213         calculate D2E/DX2 analytically  !
 ! D35   D(30,6,7,31)          148.0534         calculate D2E/DX2 analytically  !
 ! D36   D(30,6,7,32)          -92.0901         calculate D2E/DX2 analytically  !
 ! D37   D(6,7,8,9)             69.0644         calculate D2E/DX2 analytically  !
 ! D38   D(6,7,8,33)          -172.218          calculate D2E/DX2 analytically  !
 ! D39   D(6,7,8,34)           -52.8688         calculate D2E/DX2 analytically  !
 ! D40   D(31,7,8,9)           -51.6117         calculate D2E/DX2 analytically  !
 ! D41   D(31,7,8,33)           67.1059         calculate D2E/DX2 analytically  !
 ! D42   D(31,7,8,34)         -173.5449         calculate D2E/DX2 analytically  !
 ! D43   D(32,7,8,9)          -170.2341         calculate D2E/DX2 analytically  !
 ! D44   D(32,7,8,33)          -51.5165         calculate D2E/DX2 analytically  !
 ! D45   D(32,7,8,34)           67.8327         calculate D2E/DX2 analytically  !
 ! D46   D(7,8,9,10)          -167.09           calculate D2E/DX2 analytically  !
 ! D47   D(33,8,9,10)           74.0904         calculate D2E/DX2 analytically  !
 ! D48   D(34,8,9,10)          -45.2214         calculate D2E/DX2 analytically  !
 ! D49   D(8,9,10,11)          -67.7621         calculate D2E/DX2 analytically  !
 ! D50   D(8,9,10,35)          171.5038         calculate D2E/DX2 analytically  !
 ! D51   D(8,9,10,36)           57.072          calculate D2E/DX2 analytically  !
 ! D52   D(9,10,11,12)        -173.8696         calculate D2E/DX2 analytically  !
 ! D53   D(9,10,11,37)          68.6436         calculate D2E/DX2 analytically  !
 ! D54   D(9,10,11,38)         -48.6411         calculate D2E/DX2 analytically  !
 ! D55   D(35,10,11,12)        -54.6931         calculate D2E/DX2 analytically  !
 ! D56   D(35,10,11,37)       -172.1798         calculate D2E/DX2 analytically  !
 ! D57   D(35,10,11,38)         70.5355         calculate D2E/DX2 analytically  !
 ! D58   D(36,10,11,12)         61.6113         calculate D2E/DX2 analytically  !
 ! D59   D(36,10,11,37)        -55.8755         calculate D2E/DX2 analytically  !
 ! D60   D(36,10,11,38)       -173.1602         calculate D2E/DX2 analytically  !
 ! D61   D(10,11,12,13)         91.9753         calculate D2E/DX2 analytically  !
 ! D62   D(37,11,12,13)       -148.9518         calculate D2E/DX2 analytically  !
 ! D63   D(38,11,12,13)        -33.0739         calculate D2E/DX2 analytically  !
 ! D64   D(11,12,13,14)       -176.5913         calculate D2E/DX2 analytically  !
 ! D65   D(11,12,13,39)        -56.962          calculate D2E/DX2 analytically  !
 ! D66   D(11,12,13,40)         62.217          calculate D2E/DX2 analytically  !
 ! D67   D(12,13,14,15)        -59.9657         calculate D2E/DX2 analytically  !
 ! D68   D(12,13,14,41)         57.2471         calculate D2E/DX2 analytically  !
 ! D69   D(12,13,14,42)        173.9193         calculate D2E/DX2 analytically  !
 ! D70   D(39,13,14,15)       -179.8925         calculate D2E/DX2 analytically  !
 ! D71   D(39,13,14,41)        -62.6797         calculate D2E/DX2 analytically  !
 ! D72   D(39,13,14,42)         53.9925         calculate D2E/DX2 analytically  !
 ! D73   D(40,13,14,15)         60.2565         calculate D2E/DX2 analytically  !
 ! D74   D(40,13,14,41)        177.4694         calculate D2E/DX2 analytically  !
 ! D75   D(40,13,14,42)        -65.8585         calculate D2E/DX2 analytically  !
 ! D76   D(13,14,15,16)        -74.1143         calculate D2E/DX2 analytically  !
 ! D77   D(13,14,15,43)         56.4331         calculate D2E/DX2 analytically  !
 ! D78   D(41,14,15,16)        167.6162         calculate D2E/DX2 analytically  !
 ! D79   D(41,14,15,43)        -61.8364         calculate D2E/DX2 analytically  !
 ! D80   D(42,14,15,16)         51.4913         calculate D2E/DX2 analytically  !
 ! D81   D(42,14,15,43)       -177.9612         calculate D2E/DX2 analytically  !
 ! D82   D(14,15,16,17)        158.35           calculate D2E/DX2 analytically  !
 ! D83   D(14,15,16,22)        -28.6668         calculate D2E/DX2 analytically  !
 ! D84   D(43,15,16,17)         28.3785         calculate D2E/DX2 analytically  !
 ! D85   D(43,15,16,22)       -158.6384         calculate D2E/DX2 analytically  !
 ! D86   D(15,16,17,18)        176.915          calculate D2E/DX2 analytically  !
 ! D87   D(15,16,17,44)         -3.4216         calculate D2E/DX2 analytically  !
 ! D88   D(22,16,17,18)          3.4666         calculate D2E/DX2 analytically  !
 ! D89   D(22,16,17,44)       -176.87           calculate D2E/DX2 analytically  !
 ! D90   D(15,16,22,21)       -176.4518         calculate D2E/DX2 analytically  !
 ! D91   D(15,16,22,50)          3.1983         calculate D2E/DX2 analytically  !
 ! D92   D(17,16,22,21)         -3.4069         calculate D2E/DX2 analytically  !
 ! D93   D(17,16,22,50)        176.2432         calculate D2E/DX2 analytically  !
 ! D94   D(16,17,18,19)         -2.0397         calculate D2E/DX2 analytically  !
 ! D95   D(16,17,18,45)        178.5405         calculate D2E/DX2 analytically  !
 ! D96   D(44,17,18,19)        178.2924         calculate D2E/DX2 analytically  !
 ! D97   D(44,17,18,45)         -1.1274         calculate D2E/DX2 analytically  !
 ! D98   D(17,18,19,20)        178.6317         calculate D2E/DX2 analytically  !
 ! D99   D(17,18,19,21)          0.4255         calculate D2E/DX2 analytically  !
 ! D100  D(45,18,19,20)         -1.9561         calculate D2E/DX2 analytically  !
 ! D101  D(45,18,19,21)        179.8378         calculate D2E/DX2 analytically  !
 ! D102  D(18,19,20,46)        157.5453         calculate D2E/DX2 analytically  !
 ! D103  D(18,19,20,47)        -82.02           calculate D2E/DX2 analytically  !
 ! D104  D(18,19,20,48)         38.4464         calculate D2E/DX2 analytically  !
 ! D105  D(21,19,20,46)        -24.2902         calculate D2E/DX2 analytically  !
 ! D106  D(21,19,20,47)         96.1444         calculate D2E/DX2 analytically  !
 ! D107  D(21,19,20,48)       -143.3892         calculate D2E/DX2 analytically  !
 ! D108  D(18,19,21,22)         -0.3791         calculate D2E/DX2 analytically  !
 ! D109  D(18,19,21,49)       -179.5349         calculate D2E/DX2 analytically  !
 ! D110  D(20,19,21,22)       -178.5755         calculate D2E/DX2 analytically  !
 ! D111  D(20,19,21,49)          2.2686         calculate D2E/DX2 analytically  !
 ! D112  D(19,21,22,16)          1.9419         calculate D2E/DX2 analytically  !
 ! D113  D(19,21,22,50)       -177.7201         calculate D2E/DX2 analytically  !
 ! D114  D(49,21,22,16)       -178.8919         calculate D2E/DX2 analytically  !
 ! D115  D(49,21,22,50)          1.4461         calculate D2E/DX2 analytically  !
 ! D116  D(5,23,24,2)            1.0686         calculate D2E/DX2 analytically  !
 ! D117  D(5,23,24,52)        -179.6052         calculate D2E/DX2 analytically  !
 ! D118  D(51,23,24,2)        -178.9746         calculate D2E/DX2 analytically  !
 ! D119  D(51,23,24,52)          0.3515         calculate D2E/DX2 analytically  !
 --------------------------------------------------------------------------------
 Trust Radius=3.00D-01 FncErr=1.00D-07 GrdErr=1.00D-06 EigMax=2.50D+02 EigMin=1.00D-04
 Number of steps in this run=    274 maximum allowed number of steps=    312.
 GradGradGradGradGradGradGradGradGradGradGradGradGradGradGradGradGradGrad

 Stoichiometry    C20H28N2O2
 Framework group  C1[X(C20H28N2O2)]
 Deg. of freedom   150
 Full point group                 C1      NOp   1
 Largest Abelian subgroup         C1      NOp   1
 Largest concise Abelian subgroup C1      NOp   1
                         Standard orientation:                         
 ---------------------------------------------------------------------
 Center     Atomic      Atomic             Coordinates (Angstroms)
 Number     Number       Type             X           Y           Z
 ---------------------------------------------------------------------
      1          6           0       -9.998463    0.689282   -0.195660
      2          6           0       -8.518006    0.478435   -0.090435
      3          6           0       -7.622423    1.503120   -0.405198
      4          6           0       -6.239782    1.288351   -0.330070
      5          6           0       -5.716037    0.056243    0.077560
      6          7           0       -4.348790   -0.226226    0.110905
      7          6           0       -3.383425    0.868364    0.238311
      8          6           0       -1.986870    0.335999    0.601733
      9          8           0       -1.429946   -0.386370   -0.499148
     10          6           0       -0.277299   -1.155481   -0.160513
     11          6           0        0.938252   -0.301577    0.205361
     12          8           0        2.096634   -1.114850    0.396928
     13          6           0        2.863930   -1.263835   -0.807643
     14          6           0        4.039532   -2.215129   -0.545018
     15          7           0        4.922476   -1.705738    0.509322
     16          6           0        5.789863   -0.635369    0.263664
     17          6           0        6.257999    0.105885    1.357614
     18          6           0        7.176793    1.148939    1.197517
     19          6           0        7.686667    1.451889   -0.065644
     20          6           0        8.647205    2.588085   -0.243382
     21          6           0        7.253915    0.700038   -1.159903
     22          6           0        6.332675   -0.342255   -0.990766
     23          6           0       -6.624469   -0.977615    0.339083
     24          6           0       -8.007092   -0.771305    0.268185
     25          1           0      -10.512542    0.233957    0.657355
     26          1           0      -10.248681    1.756209   -0.195831
     27          1           0      -10.375876    0.243525   -1.122237
     28          1           0       -7.988859    2.476204   -0.724911
     29          1           0       -5.583135    2.105474   -0.610522
     30          1           0       -4.123572   -1.043609    0.671488
     31          1           0       -3.326298    1.413680   -0.711009
     32          1           0       -3.700104    1.557224    1.031083
     33          1           0       -1.335080    1.187167    0.822817
     34          1           0       -2.046617   -0.307239    1.486182
     35          1           0       -0.041332   -1.772646   -1.033839
     36          1           0       -0.515573   -1.859284    0.646829
     37          1           0        0.750462    0.208179    1.156075
     38          1           0        1.113093    0.485698   -0.538146
     39          1           0        2.231515   -1.682947   -1.597995
     40          1           0        3.225256   -0.280221   -1.127057
     41          1           0        3.638434   -3.170778   -0.184978
     42          1           0        4.583912   -2.436369   -1.467885
     43          1           0        4.380344   -1.545502    1.359466
     44          1           0        5.901482   -0.122630    2.359083
     45          1           0        7.494963    1.713108    2.069891
     46          1           0        9.245068    2.463557   -1.153011
     47          1           0        8.100290    3.533939   -0.310750
     48          1           0        9.345008    2.639804    0.598933
     49          1           0        7.639348    0.907974   -2.155379
     50          1           0        6.059453   -0.918087   -1.867908
     51          1           0       -6.259715   -1.966610    0.604763
     52          1           0       -8.678357   -1.598647    0.484898
 ---------------------------------------------------------------------
 Rotational constants (GHZ):           0.8353594           0.0437343           0.0425502
 Standard basis: 6-31G(d,p) (6D, 7F)
 There are   500 symmetry adapted cartesian basis functions of A   symmetry.
 There are   500 symmetry adapted basis functions of A   symmetry.
   500 basis functions,   868 primitive gaussians,   500 cartesian basis functions
    89 alpha electrons       89 beta electrons
       nuclear repulsion energy      1799.4223646166 Hartrees.
 NAtoms=   52 NActive=   52 NUniq=   52 SFac= 1.00D+00 NAtFMM=   60 NAOKFM=F Big=F
 Integral buffers will be    131072 words long.
 Raffenetti 2 integral format.
 Two-electron integral symmetry is turned on.
 Force inversion solution in PCM.
 ------------------------------------------------------------------------------
 Polarizable Continuum Model (PCM)
 =================================
 Model                : PCM.
 Atomic radii         : UFF (Universal Force Field).
 Polarization charges : Total charges.
 Charge compensation  : None.
 Solution method      : Matrix inversion.
 Cavity type          : Scaled VdW (van der Waals Surface) (Alpha=1.100).
 Cavity algorithm     : GePol (No added spheres)
                        Default sphere list used, NSphG=   52.
                        Lebedev-Laikov grids with approx.  5.0 points / Ang**2.
                        Smoothing algorithm: York/Karplus (Gamma=1.0000).
                        Polarization charges: spherical gaussians, with
                                              point-specific exponents (IZeta= 3).
                        Self-potential: point-specific (ISelfS= 7).
                        Self-field    : sphere-specific E.n sum rule (ISelfD= 2).
 1st derivatives      : Analytical E(r).r(x)/FMM algorithm (CHGder, D1EAlg=3).
                        Cavity 1st derivative terms included.
 2nd derivatives      : Analytical E(r).r(xy)/FMM algorithm (CHGder, D2EAlg=3).
                        Cavity 2nd derivative terms included.
 Solvent              : Water, Eps=  78.355300 Eps(inf)=   1.777849
 ------------------------------------------------------------------------------
 One-electron integrals computed using PRISM.
 NBasis=   500 RedAO= T EigKep=  4.18D-04  NBF=   500
 NBsUse=   500 1.00D-06 EigRej= -1.00D+00 NBFU=   500
 ExpMin= 1.61D-01 ExpMax= 5.48D+03 ExpMxC= 8.25D+02 IAcc=3 IRadAn=         5 AccDes= 0.00D+00
 Harris functional with IExCor=  402 and IRadAn=       5 diagonalized for initial guess.
 HarFok:  IExCor=  402 AccDes= 0.00D+00 IRadAn=         5 IDoV= 1 UseB2=F ITyADJ=14
 ICtDFT=  3500011 ScaDFX=  1.000000  1.000000  1.000000  1.000000
 FoFCou: FMM=F IPFlag=           0 FMFlag=      100000 FMFlg1=           0
         NFxFlg=           0 DoJE=T BraDBF=F KetDBF=T FulRan=T
         wScrn=  0.000000 ICntrl=       500 IOpCl=  0 I1Cent=   200000004 NGrid=           0
         NMat0=    1 NMatS0=      1 NMatT0=    0 NMatD0=    1 NMtDS0=    0 NMtDT0=    0
 Petite list used in FoFCou.
 Requested convergence on RMS density matrix=1.00D-08 within  32 cycles.
 Requested convergence on MAX density matrix=1.00D-06.
 Requested convergence on             energy=1.00D-06.
 No special actions if energy rises.
 Inv3:  Mode=1 IEnd=    40384683.
 Iteration    1 A*A^-1 deviation from unit magnitude is 3.33D-15 for   1017.
 Iteration    1 A*A^-1 deviation from orthogonality  is 1.78D-15 for   2983    867.
 Iteration    1 A^-1*A deviation from unit magnitude is 3.33D-15 for    947.
 Iteration    1 A^-1*A deviation from orthogonality  is 8.22D-15 for   2412   2394.
 Error on total polarization charges =  0.01494
 SCF Done:  E(RB3LYP) =  -1038.96401887     A.U. after   12 cycles
            NFock= 12  Conv=0.57D-08     -V/T= 2.0096
 QCSCF skips out because SCF is already converged.
 DoSCS=F DFT=T ScalE2(SS,OS)=  1.000000  1.000000
 Range of M.O.s used for correlation:     1   500
 NBasis=   500 NAE=    89 NBE=    89 NFC=     0 NFV=     0
 NROrb=    500 NOA=    89 NOB=    89 NVA=   411 NVB=   411
 Symmetrizing basis deriv contribution to polar:
 IMax=3 JMax=2 DiffMx= 0.00D+00
 G2DrvN: will do    53 centers at a time, making    1 passes.
 Calling FoFCou, ICntrl=  3107 FMM=F I1Cent=   0 AccDes= 0.00D+00.
 NEqPCM:  Using equilibrium solvation (IEInf=0, Eps=  78.3553, EpsInf=   1.7778)
 G2PCM: DoFxE=T DoFxN=T DoGrad=T DoDP/DQ/DG/TGxP=FFFF NFrqRd=   0 IEInf=0 SqF1=F DoCFld=F IF1Alg=4.
 End of G2Drv F.D. properties file   721 does not exist.
 End of G2Drv F.D. properties file   722 does not exist.
 End of G2Drv F.D. properties file   788 does not exist.
          IDoAtm=11111111111111111111111111111111111111111111111111
          IDoAtm=11
 NEqPCM:  Using equilibrium solvation (IEInf=0, Eps=  78.3553, EpsInf=   1.7778)
          Differentiating once with respect to nuclear coordinates.
 CalDSu exits because no D1Ps are significant.
          There are   159 degrees of freedom in the 1st order CPHF.  IDoFFX=6 NUNeed=     0.
    153 vectors produced by pass  0 Test12= 3.66D-14 1.00D-09 XBig12= 1.52D-01 2.10D-01.
 AX will form   153 AO Fock derivatives at one time.
    153 vectors produced by pass  1 Test12= 3.66D-14 1.00D-09 XBig12= 2.13D-02 5.19D-02.
    153 vectors produced by pass  2 Test12= 3.66D-14 1.00D-09 XBig12= 1.52D-04 2.63D-03.
    153 vectors produced by pass  3 Test12= 3.66D-14 1.00D-09 XBig12= 4.50D-07 9.60D-05.
    153 vectors produced by pass  4 Test12= 3.66D-14 1.00D-09 XBig12= 4.42D-10 2.45D-06.
     87 vectors produced by pass  5 Test12= 3.66D-14 1.00D-09 XBig12= 3.23D-13 7.04D-08.
     11 vectors produced by pass  6 Test12= 3.66D-14 1.00D-09 XBig12= 2.98D-16 2.78D-09.
 InvSVY:  IOpt=1 It=  1 EMax= 4.44D-16
 Solved reduced A of dimension   863 with   159 vectors.
 End of Minotr F.D. properties file   721 does not exist.
 End of Minotr F.D. properties file   722 does not exist.
 End of Minotr F.D. properties file   788 does not exist.

 **********************************************************************

            Population analysis using the SCF density.

 **********************************************************************

 Orbital symmetries:
       Occupied  (A) (A) (A) (A) (A) (A) (A) (A) (A) (A) (A) (A)
                 (A) (A) (A) (A) (A) (A) (A) (A) (A) (A) (A) (A)
                 (A) (A) (A) (A) (A) (A) (A) (A) (A) (A) (A) (A)
                 (A) (A) (A) (A) (A) (A) (A) (A) (A) (A) (A) (A)
                 (A) (A) (A) (A) (A) (A) (A) (A) (A) (A) (A) (A)
                 (A) (A) (A) (A) (A) (A) (A) (A) (A) (A) (A) (A)
                 (A) (A) (A) (A) (A) (A) (A) (A) (A) (A) (A) (A)
                 (A) (A) (A) (A) (A)
       Virtual   (A) (A) (A) (A) (A) (A) (A) (A) (A) (A) (A) (A)
                 (A) (A) (A) (A) (A) (A) (A) (A) (A) (A) (A) (A)
                 (A) (A) (A) (A) (A) (A) (A) (A) (A) (A) (A) (A)
                 (A) (A) (A) (A) (A) (A) (A) (A) (A) (A) (A) (A)
                 (A) (A) (A) (A) (A) (A) (A) (A) (A) (A) (A) (A)
                 (A) (A) (A) (A) (A) (A) (A) (A) (A) (A) (A) (A)
                 (A) (A) (A) (A) (A) (A) (A) (A) (A) (A) (A) (A)
                 (A) (A) (A) (A) (A) (A) (A) (A) (A) (A) (A) (A)
                 (A) (A) (A) (A) (A) (A) (A) (A) (A) (A) (A) (A)
                 (A) (A) (A) (A) (A) (A) (A) (A) (A) (A) (A) (A)
                 (A) (A) (A) (A) (A) (A) (A) (A) (A) (A) (A) (A)
                 (A) (A) (A) (A) (A) (A) (A) (A) (A) (A) (A) (A)
                 (A) (A) (A) (A) (A) (A) (A) (A) (A) (A) (A) (A)
                 (A) (A) (A) (A) (A) (A) (A) (A) (A) (A) (A) (A)
                 (A) (A) (A) (A) (A) (A) (A) (A) (A) (A) (A) (A)
                 (A) (A) (A) (A) (A) (A) (A) (A) (A) (A) (A) (A)
                 (A) (A) (A) (A) (A) (A) (A) (A) (A) (A) (A) (A)
                 (A) (A) (A) (A) (A) (A) (A) (A) (A) (A) (A) (A)
                 (A) (A) (A) (A) (A) (A) (A) (A) (A) (A) (A) (A)
                 (A) (A) (A) (A) (A) (A) (A) (A) (A) (A) (A) (A)
                 (A) (A) (A) (A) (A) (A) (A) (A) (A) (A) (A) (A)
                 (A) (A) (A) (A) (A) (A) (A) (A) (A) (A) (A) (A)
                 (A) (A) (A) (A) (A) (A) (A) (A) (A) (A) (A) (A)
                 (A) (A) (A) (A) (A) (A) (A) (A) (A) (A) (A) (A)
                 (A) (A) (A) (A) (A) (A) (A) (A) (A) (A) (A) (A)
                 (A) (A) (A) (A) (A) (A) (A) (A) (A) (A) (A) (A)
                 (A) (A) (A) (A) (A) (A) (A) (A) (A) (A) (A) (A)
                 (A) (A) (A) (A) (A) (A) (A) (A) (A) (A) (A) (A)
                 (A) (A) (A) (A) (A) (A) (A) (A) (A) (A) (A) (A)
                 (A) (A) (A) (A) (A) (A) (A) (A) (A) (A) (A) (A)
                 (A) (A) (A) (A) (A) (A) (A) (A) (A) (A) (A) (A)
                 (A) (A) (A) (A) (A) (A) (A) (A) (A) (A) (A) (A)
                 (A) (A) (A) (A) (A) (A) (A) (A) (A) (A) (A) (A)
                 (A) (A) (A) (A) (A) (A) (A) (A) (A) (A) (A) (A)
                 (A) (A) (A)
 The electronic state is 1-A.
 Alpha  occ. eigenvalues --  -19.15619 -19.15361 -14.33846 -14.33822 -10.23808
 Alpha  occ. eigenvalues --  -10.23206 -10.23194 -10.23146 -10.22107 -10.22092
 Alpha  occ. eigenvalues --  -10.21982 -10.21870 -10.18264 -10.18227 -10.18218
 Alpha  occ. eigenvalues --  -10.18196 -10.18170 -10.18123 -10.17967 -10.17948
 Alpha  occ. eigenvalues --  -10.17933 -10.17846 -10.17482 -10.17469  -1.03659
 Alpha  occ. eigenvalues --   -1.02756  -0.92720  -0.92683  -0.84143  -0.84063
 Alpha  occ. eigenvalues --   -0.77838  -0.76923  -0.75002  -0.73928  -0.73752
 Alpha  occ. eigenvalues --   -0.73108  -0.70610  -0.67087  -0.66488  -0.64060
 Alpha  occ. eigenvalues --   -0.62189  -0.60574  -0.59961  -0.58986  -0.57214
 Alpha  occ. eigenvalues --   -0.56918  -0.52545  -0.52114  -0.50485  -0.49640
 Alpha  occ. eigenvalues --   -0.48713  -0.48271  -0.47713  -0.45876  -0.45745
 Alpha  occ. eigenvalues --   -0.44823  -0.44625  -0.43990  -0.43138  -0.42680
 Alpha  occ. eigenvalues --   -0.42302  -0.41594  -0.41546  -0.41497  -0.41185
 Alpha  occ. eigenvalues --   -0.41047  -0.40540  -0.39766  -0.38009  -0.37177
 Alpha  occ. eigenvalues --   -0.37121  -0.36932  -0.36297  -0.35625  -0.35170
 Alpha  occ. eigenvalues --   -0.34179  -0.34144  -0.33495  -0.33047  -0.32982
 Alpha  occ. eigenvalues --   -0.31348  -0.28519  -0.28466  -0.27792  -0.24758
 Alpha  occ. eigenvalues --   -0.24469  -0.24449  -0.19351  -0.19190
 Alpha virt. eigenvalues --   -0.00020   0.00093   0.01960   0.02098   0.07588
 Alpha virt. eigenvalues --    0.09179   0.10257   0.10292   0.10595   0.10832
 Alpha virt. eigenvalues --    0.11345   0.11751   0.12460   0.13239   0.13481
 Alpha virt. eigenvalues --    0.13934   0.14296   0.14805   0.14832   0.15281
 Alpha virt. eigenvalues --    0.15658   0.16047   0.16826   0.17080   0.17454
 Alpha virt. eigenvalues --    0.18068   0.18258   0.18416   0.19049   0.19102
 Alpha virt. eigenvalues --    0.19777   0.20573   0.21002   0.21098   0.21500
 Alpha virt. eigenvalues --    0.21913   0.22965   0.23519   0.23957   0.24515
 Alpha virt. eigenvalues --    0.24786   0.25127   0.25825   0.26364   0.28649
 Alpha virt. eigenvalues --    0.29396   0.29595   0.33547   0.33840   0.34186
 Alpha virt. eigenvalues --    0.34666   0.34707   0.35508   0.37304   0.38275
 Alpha virt. eigenvalues --    0.46835   0.47011   0.49884   0.50815   0.51119
 Alpha virt. eigenvalues --    0.51460   0.51690   0.52158   0.52465   0.52679
 Alpha virt. eigenvalues --    0.53075   0.53154   0.54183   0.54409   0.55308
 Alpha virt. eigenvalues --    0.55779   0.56160   0.56768   0.57375   0.57638
 Alpha virt. eigenvalues --    0.58377   0.58691   0.59201   0.59484   0.60011
 Alpha virt. eigenvalues --    0.60249   0.60286   0.60504   0.62107   0.62499
 Alpha virt. eigenvalues --    0.62895   0.62993   0.63433   0.63910   0.64891
 Alpha virt. eigenvalues --    0.65305   0.66008   0.66513   0.66744   0.68210
 Alpha virt. eigenvalues --    0.68762   0.70056   0.71064   0.71757   0.72151
 Alpha virt. eigenvalues --    0.72586   0.73617   0.74685   0.75367   0.75824
 Alpha virt. eigenvalues --    0.76563   0.78212   0.78750   0.79210   0.80380
 Alpha virt. eigenvalues --    0.80750   0.81809   0.82444   0.82601   0.83142
 Alpha virt. eigenvalues --    0.83711   0.84089   0.84479   0.84825   0.85449
 Alpha virt. eigenvalues --    0.85706   0.85956   0.86510   0.87598   0.87865
 Alpha virt. eigenvalues --    0.87936   0.88632   0.88927   0.89163   0.89781
 Alpha virt. eigenvalues --    0.90175   0.90801   0.92002   0.92749   0.93708
 Alpha virt. eigenvalues --    0.93960   0.94438   0.95002   0.95205   0.96264
 Alpha virt. eigenvalues --    0.96980   0.97561   0.98065   1.00273   1.00489
 Alpha virt. eigenvalues --    1.00871   1.02045   1.02601   1.03381   1.06419
 Alpha virt. eigenvalues --    1.08151   1.08671   1.09821   1.11521   1.13541
 Alpha virt. eigenvalues --    1.14188   1.15225   1.16162   1.16725   1.17599
 Alpha virt. eigenvalues --    1.17823   1.18195   1.18654   1.20214   1.22360
 Alpha virt. eigenvalues --    1.26446   1.27045   1.27355   1.27564   1.27935
 Alpha virt. eigenvalues --    1.30566   1.31219   1.32271   1.34646   1.35745
 Alpha virt. eigenvalues --    1.38297   1.39187   1.39752   1.39845   1.40992
 Alpha virt. eigenvalues --    1.41555   1.41668   1.42481   1.43072   1.43181
 Alpha virt. eigenvalues --    1.43866   1.45411   1.46481   1.47021   1.50901
 Alpha virt. eigenvalues --    1.51164   1.52834   1.55247   1.57232   1.59855
 Alpha virt. eigenvalues --    1.60635   1.63614   1.65733   1.71436   1.71934
 Alpha virt. eigenvalues --    1.73827   1.74166   1.74533   1.74864   1.75440
 Alpha virt. eigenvalues --    1.76149   1.76834   1.77111   1.77559   1.78736
 Alpha virt. eigenvalues --    1.79494   1.80933   1.82615   1.82877   1.83662
 Alpha virt. eigenvalues --    1.84755   1.85119   1.85674   1.85787   1.86915
 Alpha virt. eigenvalues --    1.87263   1.87848   1.91953   1.92385   1.92893
 Alpha virt. eigenvalues --    1.93101   1.93425   1.93512   1.94075   1.95402
 Alpha virt. eigenvalues --    1.95799   1.96721   1.97035   1.97335   1.98163
 Alpha virt. eigenvalues --    1.98991   1.99691   2.00064   2.00869   2.01951
 Alpha virt. eigenvalues --    2.02568   2.03245   2.03832   2.03886   2.04923
 Alpha virt. eigenvalues --    2.05111   2.05835   2.06213   2.06751   2.08078
 Alpha virt. eigenvalues --    2.08330   2.09489   2.10074   2.10815   2.12162
 Alpha virt. eigenvalues --    2.12817   2.13723   2.14778   2.15240   2.15701
 Alpha virt. eigenvalues --    2.17264   2.18040   2.19326   2.19545   2.21545
 Alpha virt. eigenvalues --    2.21731   2.23156   2.25166   2.25281   2.26662
 Alpha virt. eigenvalues --    2.27791   2.29017   2.30456   2.30838   2.31023
 Alpha virt. eigenvalues --    2.32525   2.32654   2.33348   2.34658   2.34854
 Alpha virt. eigenvalues --    2.37861   2.38350   2.38728   2.39621   2.40474
 Alpha virt. eigenvalues --    2.41491   2.41918   2.41968   2.42298   2.43400
 Alpha virt. eigenvalues --    2.43668   2.45083   2.46805   2.48192   2.49680
 Alpha virt. eigenvalues --    2.50419   2.50718   2.51776   2.52269   2.52486
 Alpha virt. eigenvalues --    2.53554   2.56065   2.57038   2.58103   2.58588
 Alpha virt. eigenvalues --    2.59598   2.59717   2.60219   2.60996   2.61491
 Alpha virt. eigenvalues --    2.62533   2.63055   2.63810   2.64637   2.65751
 Alpha virt. eigenvalues --    2.66647   2.67539   2.68348   2.69792   2.70060
 Alpha virt. eigenvalues --    2.70147   2.71572   2.71869   2.72873   2.73946
 Alpha virt. eigenvalues --    2.74526   2.74902   2.76479   2.78493   2.79279
 Alpha virt. eigenvalues --    2.79728   2.80785   2.81755   2.82831   2.83261
 Alpha virt. eigenvalues --    2.85074   2.86130   2.86480   2.88377   2.89231
 Alpha virt. eigenvalues --    2.89710   2.89737   2.91281   2.92309   2.92626
 Alpha virt. eigenvalues --    2.94766   2.97453   2.98850   2.99600   3.01444
 Alpha virt. eigenvalues --    3.05192   3.06787   3.06937   3.07955   3.09518
 Alpha virt. eigenvalues --    3.19377   3.19388   3.20391   3.20766   3.24105
 Alpha virt. eigenvalues --    3.25761   3.25832   3.26425   3.28190   3.29733
 Alpha virt. eigenvalues --    3.30094   3.31764   3.32272   3.36363   3.37520
 Alpha virt. eigenvalues --    3.37836   3.39545   3.41038   3.43343   3.43625
 Alpha virt. eigenvalues --    3.43930   3.45092   3.47149   3.48160   3.50036
 Alpha virt. eigenvalues --    3.51212   3.51813   3.53711   3.54894   3.55645
 Alpha virt. eigenvalues --    3.83559   3.83597   3.89002   4.08153   4.13811
 Alpha virt. eigenvalues --    4.13940   4.14144   4.15611   4.16360   4.16836
 Alpha virt. eigenvalues --    4.19829   4.20078   4.36765   4.37995   4.38531
 Alpha virt. eigenvalues --    4.40263   4.43153   4.44201   4.44406   4.53748
 Alpha virt. eigenvalues --    4.54482   4.61610   4.63300   4.67076   4.84643
 Alpha virt. eigenvalues --    4.84782
          Condensed to atoms (all electrons):
 Mulliken charges:
               1
     1  C   -0.382014
     2  C    0.098189
     3  C   -0.146924
     4  C   -0.145212
     5  C    0.307387
     6  N   -0.603287
     7  C   -0.042350
     8  C    0.033842
     9  O   -0.514062
    10  C    0.045140
    11  C    0.038864
    12  O   -0.523042
    13  C    0.066091
    14  C   -0.095350
    15  N   -0.580101
    16  C    0.291756
    17  C   -0.159763
    18  C   -0.133618
    19  C    0.099294
    20  C   -0.381909
    21  C   -0.145107
    22  C   -0.140447
    23  C   -0.159335
    24  C   -0.134462
    25  H    0.115788
    26  H    0.111586
    27  H    0.123426
    28  H    0.089622
    29  H    0.091427
    30  H    0.267149
    31  H    0.124915
    32  H    0.111368
    33  H    0.112062
    34  H    0.105806
    35  H    0.112124
    36  H    0.102402
    37  H    0.112590
    38  H    0.107918
    39  H    0.100017
    40  H    0.105807
    41  H    0.122135
    42  H    0.132596
    43  H    0.268701
    44  H    0.089213
    45  H    0.089623
    46  H    0.112405
    47  H    0.124205
    48  H    0.114999
    49  H    0.089958
    50  H    0.090276
    51  H    0.089303
    52  H    0.088998
 Sum of Mulliken charges =  -0.00000
 Mulliken charges with hydrogens summed into heavy atoms:
               1
     1  C   -0.031214
     2  C    0.098189
     3  C   -0.057301
     4  C   -0.053785
     5  C    0.307387
     6  N   -0.336138
     7  C    0.193933
     8  C    0.251710
     9  O   -0.514062
    10  C    0.259666
    11  C    0.259373
    12  O   -0.523042
    13  C    0.271915
    14  C    0.159380
    15  N   -0.311400
    16  C    0.291756
    17  C   -0.070550
    18  C   -0.043995
    19  C    0.099294
    20  C   -0.030302
    21  C   -0.055149
    22  C   -0.050170
    23  C   -0.070031
    24  C   -0.045463
 APT charges:
               1
     1  C   -1.767517
     2  C    1.062192
     3  C   -0.466049
     4  C   -0.590339
     5  C   -0.971031
     6  N   -0.760400
     7  C   -0.615971
     8  C   -0.427522
     9  O   -0.417599
    10  C   -0.630797
    11  C   -0.325713
    12  O   -0.454053
    13  C   -0.317052
    14  C   -0.993183
    15  N   -0.184559
    16  C   -0.714775
    17  C   -0.743121
    18  C   -0.315627
    19  C    0.572868
    20  C   -1.592847
    21  C   -0.416242
    22  C   -0.595558
    23  C   -0.782157
    24  C   -0.237025
    25  H    0.807981
    26  H    0.665334
    27  H    0.651882
    28  H    0.865026
    29  H   -0.081769
    30  H    0.284017
    31  H    0.332212
    32  H    0.500278
    33  H    0.187216
    34  H    0.329903
    35  H    0.410928
    36  H    0.374150
    37  H    0.287850
    38  H    0.246460
    39  H    0.214983
    40  H    0.269448
    41  H    0.364785
    42  H    0.734039
    43  H    0.010400
    44  H    0.196349
    45  H    0.820090
    46  H    0.926036
    47  H   -0.068276
    48  H    1.027904
    49  H    0.842102
    50  H    0.232122
    51  H    0.146701
    52  H    1.105924
 Sum of APT charges =  -0.00000
 APT charges with hydrogens summed into heavy atoms:
               1
     1  C    0.357681
     2  C    1.062192
     3  C    0.398977
     4  C   -0.672108
     5  C   -0.971031
     6  N   -0.476382
     7  C    0.216519
     8  C    0.089596
     9  O   -0.417599
    10  C    0.154281
    11  C    0.208597
    12  O   -0.454053
    13  C    0.167379
    14  C    0.105642
    15  N   -0.174159
    16  C   -0.714775
    17  C   -0.546772
    18  C    0.504463
    19  C    0.572868
    20  C    0.292817
    21  C    0.425860
    22  C   -0.363436
    23  C   -0.635456
    24  C    0.868900
 Electronic spatial extent (au):  <R**2>=          23917.3346
 Charge=             -0.0000 electrons
 Dipole moment (field-independent basis, Debye):
    X=             -0.0072    Y=              0.3120    Z=              1.0462  Tot=              1.0917
 Quadrupole moment (field-independent basis, Debye-Ang):
   XX=           -168.0710   YY=           -137.0738   ZZ=           -140.0099
   XY=              5.4731   XZ=            -11.7031   YZ=              0.6674
 Traceless Quadrupole moment (field-independent basis, Debye-Ang):
   XX=            -19.6861   YY=             11.3111   ZZ=              8.3750
   XY=              5.4731   XZ=            -11.7031   YZ=              0.6674
 Octapole moment (field-independent basis, Debye-Ang**2):
  XXX=            -95.8572  YYY=            -10.3222  ZZZ=              4.4673  XYY=            -23.6293
  XXY=             52.0610  XXZ=            -12.2815  XZZ=             50.3722  YZZ=             -6.7798
  YYZ=             -5.8490  XYZ=             33.9056
 Hexadecapole moment (field-independent basis, Debye-Ang**3):
 XXXX=         -31494.4385 YYYY=          -1417.1066 ZZZZ=           -541.9516 XXXY=            605.6978
 XXXZ=           -214.4632 YYYX=            -11.0852 YYYZ=              1.9279 ZZZX=              6.9220
 ZZZY=              5.0565 XXYY=          -5226.4399 XXZZ=          -5188.9557 YYZZ=           -326.7372
 XXYZ=            -32.1268 YYXZ=            -15.4541 ZZXY=              3.9875
 N-N= 1.799422364617D+03 E-N=-6.011815712299D+03  KE= 1.029101455573D+03
  Exact polarizability:   0.000   0.000   0.000   0.000   0.000   0.000
 Approx polarizability: 380.339  50.804 348.903 -10.708 -17.384 291.699
 D2PCM: PCM CHGder 2nd derivatives, FixD1E=F FixD2E=F DoIter=F DoCFld=F I1PDM=0
 Calling FoFJK, ICntrl=    100147 FMM=F ISym2X=0 I1Cent= 0 IOpClX= 0 NMat=1 NMatS=1 NMatT=0.
 ***** Axes restored to original set *****
 -------------------------------------------------------------------
 Center     Atomic                   Forces (Hartrees/Bohr)
 Number     Number              X              Y              Z
 -------------------------------------------------------------------
      1        6           0.003081300   -0.000950717    0.004070746
      2        6           0.003814353   -0.005288432    0.001478510
      3        6          -0.008175487    0.007175356   -0.003277210
      4        6           0.001423008   -0.010401840    0.006754191
      5        6          -0.004099005    0.001043021   -0.009725261
      6        7          -0.002100429   -0.001857451    0.002120233
      7        6          -0.004268686    0.011997096   -0.007644985
      8        6           0.001986935   -0.011161208   -0.004229852
      9        8           0.001760831    0.001664777   -0.001731135
     10        6           0.003125823   -0.002180575   -0.005847312
     11        6          -0.000358662    0.005692097    0.008064837
     12        8          -0.003332455   -0.003245865   -0.003589570
     13        6           0.002374509    0.003611840   -0.005360810
     14        6           0.007997015    0.004541786    0.011559326
     15        7           0.004010850    0.001304027   -0.002269312
     16        6          -0.004799518    0.006653561    0.000053607
     17        6          -0.004819146   -0.004394289    0.013825167
     18        6           0.009227300    0.009237086   -0.007823060
     19        6          -0.002992508   -0.005800370   -0.000905624
     20        6          -0.005314859   -0.000778982   -0.000774482
     21        6           0.005481286    0.009962300   -0.000011849
     22        6          -0.003002218   -0.010975955   -0.006562586
     23        6           0.015143411    0.007810714   -0.001257249
     24        6          -0.015324073    0.001142279   -0.000416227
     25        1           0.002734090   -0.000610131   -0.002605805
     26        1           0.000612601   -0.000126491   -0.002205100
     27        1           0.004538672    0.000265273    0.000707079
     28        1           0.000390268    0.001242707    0.000111280
     29        1          -0.001689933    0.001470656    0.000793828
     30        1           0.000082950   -0.003589321    0.001346124
     31        1          -0.000859704   -0.000189062    0.002379445
     32        1          -0.002138899   -0.003519943    0.003094593
     33        1           0.001858493    0.001238188    0.005684333
     34        1           0.000127342    0.003232353    0.001924589
     35        1           0.001437901   -0.003254082   -0.000136674
     36        1          -0.001454879    0.002149204    0.003832675
     37        1          -0.001885096    0.001116852    0.000622566
     38        1           0.000420732   -0.000861655   -0.003659695
     39        1           0.000151643   -0.002822696   -0.002373071
     40        1          -0.001430389   -0.002288878   -0.000677102
     41        1           0.000096607   -0.001377560   -0.000600282
     42        1          -0.000517456   -0.001454287    0.003556075
     43        1          -0.003373114   -0.000567320   -0.005035031
     44        1           0.001908434    0.000446334   -0.000928088
     45        1          -0.000838170   -0.000109577   -0.000103072
     46        1           0.001277293   -0.001684934    0.001365370
     47        1          -0.003328378   -0.002509744    0.002197041
     48        1           0.000531077   -0.002378515    0.002349174
     49        1          -0.000273908    0.000589574    0.000654681
     50        1           0.002488110    0.000619471   -0.000237863
     51        1          -0.001958542    0.000448811    0.000701771
     52        1           0.000252681   -0.000275481    0.000741062
 -------------------------------------------------------------------
 Cartesian Forces:  Max     0.015324073 RMS     0.004455795
 FormGI is forming the generalized inverse of G from B-inverse, IUseBI=4.

 GradGradGradGradGradGradGradGradGradGradGradGradGradGradGradGradGradGrad
 Berny optimization.
 Internal  Forces:  Max     0.011223419 RMS     0.002806176
 Search for a local minimum.
 Step number   1 out of a maximum of  274
 All quantities printed in internal units (Hartrees-Bohrs-Radians)
 Mixed Optimization -- RFO/linear search
 Second derivative matrix not updated -- analytic derivatives used.
 ITU=  0
     Eigenvalues ---   -0.00005   0.00004   0.00005   0.00193   0.00216
     Eigenvalues ---    0.00278   0.00296   0.00364   0.00398   0.00435
     Eigenvalues ---    0.00471   0.00613   0.00616   0.00778   0.01280
     Eigenvalues ---    0.01580   0.01582   0.01668   0.01671   0.01724
     Eigenvalues ---    0.01731   0.02000   0.02018   0.02194   0.02200
     Eigenvalues ---    0.02329   0.02340   0.02701   0.02715   0.02751
     Eigenvalues ---    0.02763   0.02768   0.02818   0.04235   0.04459
     Eigenvalues ---    0.04571   0.04661   0.04771   0.04816   0.04967
     Eigenvalues ---    0.05041   0.05285   0.05874   0.05879   0.05917
     Eigenvalues ---    0.05919   0.06074   0.06184   0.06401   0.08093
     Eigenvalues ---    0.08119   0.09535   0.09973   0.10173   0.10571
     Eigenvalues ---    0.10981   0.11391   0.11421   0.11534   0.11678
     Eigenvalues ---    0.11688   0.11934   0.11958   0.12225   0.12578
     Eigenvalues ---    0.12643   0.12667   0.12813   0.12909   0.12923
     Eigenvalues ---    0.12972   0.13276   0.14460   0.14531   0.14930
     Eigenvalues ---    0.14931   0.15255   0.17088   0.17960   0.18127
     Eigenvalues ---    0.19209   0.19228   0.19357   0.19567   0.19624
     Eigenvalues ---    0.19669   0.20428   0.20728   0.21498   0.21918
     Eigenvalues ---    0.22489   0.23070   0.23852   0.23981   0.24430
     Eigenvalues ---    0.25444   0.25908   0.27195   0.27602   0.28132
     Eigenvalues ---    0.30556   0.31570   0.31904   0.32013   0.32237
     Eigenvalues ---    0.32600   0.32788   0.32913   0.32925   0.32972
     Eigenvalues ---    0.32993   0.33039   0.33064   0.33472   0.33552
     Eigenvalues ---    0.33615   0.33617   0.33651   0.34055   0.34225
     Eigenvalues ---    0.34473   0.34583   0.35124   0.35462   0.35533
     Eigenvalues ---    0.35558   0.35692   0.35704   0.35774   0.35903
     Eigenvalues ---    0.36018   0.36277   0.36331   0.36464   0.38700
     Eigenvalues ---    0.39118   0.40323   0.40923   0.41040   0.41105
     Eigenvalues ---    0.43598   0.44834   0.45691   0.46076   0.46977
     Eigenvalues ---    0.47304   0.47648   0.47874   0.51424   0.51614
 RFO step:  Lambda=-1.03527653D-02 EMin=-4.64784798D-05
 Linear search not attempted -- first point.
 Iteration  1 RMS(Cart)=  0.17068228 RMS(Int)=  0.00625402
 Iteration  2 RMS(Cart)=  0.02482701 RMS(Int)=  0.00016803
 Iteration  3 RMS(Cart)=  0.00026401 RMS(Int)=  0.00015042
 Iteration  4 RMS(Cart)=  0.00000011 RMS(Int)=  0.00015042
 Variable       Old X    -DE/DX   Delta X   Delta X   Delta X     New X
                                 (Linear)    (Quad)   (Total)
    R1        2.83288   0.01101   0.00000   0.02191   0.02191   2.85478
    R2        2.06943   0.00002   0.00000   0.00043   0.00043   2.06986
    R3        2.07090  -0.00122   0.00000  -0.00343  -0.00343   2.06748
    R4        2.06982   0.00091   0.00000   0.00396   0.00396   2.07377
    R5        2.63962   0.00227   0.00000   0.00268   0.00272   2.64234
    R6        2.63987   0.00601   0.00000   0.01415   0.01418   2.65405
    R7        2.64795  -0.00224   0.00000  -0.00736  -0.00734   2.64061
    R8        2.05571  -0.00093   0.00000  -0.00028  -0.00028   2.05543
    R9        2.64464   0.00457   0.00000   0.01291   0.01288   2.65753
   R10        2.05062   0.00026   0.00000  -0.00112  -0.00112   2.04950
   R11        2.63904  -0.00046   0.00000  -0.00749  -0.00749   2.63155
   R12        2.64731   0.00760   0.00000   0.01810   0.01806   2.66537
   R13        2.76849  -0.00172   0.00000  -0.01448  -0.01448   2.75401
   R14        1.92074  -0.00368   0.00000  -0.00771  -0.00771   1.91303
   R15        2.90665  -0.01041   0.00000  -0.03528  -0.03528   2.87137
   R16        2.07168  -0.00052   0.00000   0.00126   0.00126   2.07294
   R17        2.07294   0.00243   0.00000   0.00938   0.00938   2.08232
   R18        2.70166  -0.00131   0.00000  -0.01125  -0.01125   2.69041
   R19        2.06853   0.00200   0.00000   0.00714   0.00714   2.07568
   R20        2.06972   0.00357   0.00000   0.01259   0.01259   2.08232
   R21        2.69563  -0.00287   0.00000  -0.00980  -0.00980   2.68582
   R22        2.89108   0.00143   0.00000   0.00866   0.00866   2.89974
   R23        2.06946   0.00016   0.00000  -0.00122  -0.00122   2.06824
   R24        2.07347   0.00221   0.00000   0.00624   0.00624   2.07971
   R25        2.69904  -0.00256   0.00000  -0.00876  -0.00876   2.69028
   R26        2.06921   0.00055   0.00000  -0.00022  -0.00022   2.06898
   R27        2.07283   0.00090   0.00000   0.00419   0.00419   2.07702
   R28        2.71354  -0.00388   0.00000  -0.01868  -0.01868   2.69486
   R29        2.90057  -0.00504   0.00000  -0.01575  -0.01575   2.88482
   R30        2.07032   0.00254   0.00000   0.00751   0.00751   2.07782
   R31        2.07016   0.00224   0.00000   0.00853   0.00853   2.07869
   R32        2.77133  -0.00092   0.00000  -0.01215  -0.01215   2.75919
   R33        2.07334  -0.00095   0.00000  -0.00364  -0.00364   2.06970
   R34        2.06748  -0.00195   0.00000  -0.00301  -0.00301   2.06448
   R35        2.64453   0.00477   0.00000   0.00525   0.00525   2.64978
   R36        1.92931  -0.00575   0.00000  -0.01354  -0.01354   1.91577
   R37        2.64922   0.00612   0.00000   0.01417   0.01410   2.66332
   R38        2.64167   0.00591   0.00000   0.01522   0.01517   2.65684
   R39        2.64412  -0.00528   0.00000  -0.01617  -0.01618   2.62794
   R40        2.05473   0.00047   0.00000   0.00047   0.00047   2.05520
   R41        2.63705   0.00669   0.00000   0.01458   0.01464   2.65169
   R42        2.05325   0.00015   0.00000   0.00211   0.00211   2.05536
   R43        2.83154   0.01122   0.00000   0.02272   0.02272   2.85426
   R44        2.63883   0.00285   0.00000   0.00459   0.00466   2.64349
   R45        2.07041  -0.00093   0.00000  -0.00271  -0.00271   2.06771
   R46        2.06862   0.00142   0.00000   0.00528   0.00528   2.07390
   R47        2.06931  -0.00012   0.00000  -0.00021  -0.00021   2.06910
   R48        2.64809  -0.00252   0.00000  -0.00872  -0.00871   2.63938
   R49        2.05518  -0.00071   0.00000   0.00018   0.00018   2.05535
   R50        2.04895   0.00081   0.00000   0.00046   0.00046   2.04941
   R51        2.64510  -0.00630   0.00000  -0.01894  -0.01895   2.62615
   R52        2.05428   0.00066   0.00000   0.00111   0.00111   2.05540
   R53        2.05456  -0.00027   0.00000   0.00102   0.00102   2.05558
    A1        1.92884   0.00297   0.00000   0.01683   0.01672   1.94556
    A2        1.94167   0.00021   0.00000   0.00082   0.00074   1.94241
    A3        1.92030   0.00493   0.00000   0.02788   0.02782   1.94812
    A4        1.87312  -0.00055   0.00000   0.00795   0.00782   1.88094
    A5        1.90496  -0.00491   0.00000  -0.03617  -0.03626   1.86870
    A6        1.89380  -0.00303   0.00000  -0.01943  -0.01945   1.87435
    A7        2.11086   0.00307   0.00000   0.01315   0.01307   2.12393
    A8        2.10022   0.00305   0.00000   0.01478   0.01470   2.11492
    A9        2.07103  -0.00608   0.00000  -0.02694  -0.02701   2.04402
   A10        2.10381   0.00582   0.00000   0.02581   0.02578   2.12959
   A11        2.10186  -0.00361   0.00000  -0.01846  -0.01849   2.08337
   A12        2.07743  -0.00220   0.00000  -0.00718  -0.00721   2.07023
   A13        2.11745  -0.00310   0.00000  -0.01413  -0.01421   2.10324
   A14        2.05762   0.00356   0.00000   0.02153   0.02156   2.07918
   A15        2.10804  -0.00046   0.00000  -0.00730  -0.00728   2.10076
   A16        2.15487  -0.00484   0.00000  -0.01667  -0.01708   2.13779
   A17        2.05040   0.00046   0.00000   0.00487   0.00431   2.05471
   A18        2.07276   0.00457   0.00000   0.01701   0.01667   2.08942
   A19        2.08988   0.00252   0.00000   0.02007   0.01992   2.10980
   A20        1.97443  -0.00043   0.00000   0.00649   0.00636   1.98079
   A21        1.98983  -0.00166   0.00000  -0.00683  -0.00705   1.98277
   A22        1.93932  -0.00018   0.00000   0.00580   0.00566   1.94498
   A23        1.90782   0.00040   0.00000   0.00482   0.00490   1.91271
   A24        1.91964   0.00303   0.00000   0.03173   0.03160   1.95124
   A25        1.90652  -0.00080   0.00000  -0.01234  -0.01240   1.89412
   A26        1.88463  -0.00099   0.00000   0.00094   0.00054   1.88518
   A27        1.90551  -0.00152   0.00000  -0.03207  -0.03219   1.87332
   A28        1.92478  -0.00728   0.00000  -0.02368  -0.02369   1.90109
   A29        1.89571  -0.00077   0.00000  -0.00154  -0.00142   1.89429
   A30        1.92254   0.00143   0.00000   0.00217   0.00204   1.92459
   A31        1.89280   0.00673   0.00000   0.04991   0.04997   1.94277
   A32        1.92445   0.00161   0.00000  -0.00276  -0.00290   1.92155
   A33        1.90293  -0.00162   0.00000  -0.02341  -0.02348   1.87944
   A34        1.98712   0.00242   0.00000   0.01333   0.01333   2.00045
   A35        1.97997   0.00179   0.00000  -0.00145  -0.00150   1.97847
   A36        1.86362  -0.00248   0.00000  -0.01528  -0.01532   1.84830
   A37        1.92308   0.00139   0.00000   0.01040   0.01036   1.93344
   A38        1.91141   0.00050   0.00000  -0.00135  -0.00138   1.91003
   A39        1.93327  -0.00354   0.00000  -0.01971  -0.01970   1.91357
   A40        1.84636   0.00245   0.00000   0.02985   0.02990   1.87626
   A41        1.93763  -0.00061   0.00000  -0.00274  -0.00297   1.93465
   A42        1.90839   0.00311   0.00000   0.02344   0.02355   1.93194
   A43        1.94458  -0.00311   0.00000  -0.03003  -0.03015   1.91443
   A44        1.86265  -0.00112   0.00000  -0.00483  -0.00487   1.85778
   A45        1.95015   0.00072   0.00000  -0.00513  -0.00554   1.94461
   A46        1.85639   0.00129   0.00000   0.02253   0.02274   1.87913
   A47        1.96053   0.00687   0.00000   0.03659   0.03659   1.99712
   A48        1.90714  -0.01035   0.00000  -0.03684  -0.03678   1.87036
   A49        1.91390   0.00449   0.00000   0.02966   0.02971   1.94360
   A50        1.90464   0.00391   0.00000   0.01467   0.01442   1.91906
   A51        1.90547   0.00299   0.00000   0.00883   0.00905   1.91452
   A52        1.93237   0.00096   0.00000  -0.00123  -0.00121   1.93116
   A53        1.90027  -0.00190   0.00000  -0.01449  -0.01464   1.88563
   A54        1.94858   0.00982   0.00000   0.04266   0.04246   1.99104
   A55        1.89228  -0.00202   0.00000   0.00108   0.00036   1.89264
   A56        1.94131  -0.00395   0.00000  -0.02586  -0.02555   1.91576
   A57        1.86160  -0.00134   0.00000   0.01185   0.01129   1.87289
   A58        1.95747  -0.00475   0.00000  -0.03462  -0.03427   1.92320
   A59        1.85727   0.00202   0.00000   0.00593   0.00599   1.86326
   A60        2.10905   0.00028   0.00000   0.00980   0.00946   2.11851
   A61        1.91078  -0.00027   0.00000   0.01531   0.01490   1.92568
   A62        1.93399   0.00071   0.00000   0.01271   0.01226   1.94624
   A63        2.06509   0.00330   0.00000   0.01194   0.01182   2.07691
   A64        2.16346  -0.00321   0.00000  -0.01093  -0.01109   2.15238
   A65        2.04846   0.00007   0.00000   0.00325   0.00279   2.05125
   A66        2.12251  -0.00159   0.00000  -0.00788  -0.00807   2.11445
   A67        2.09221  -0.00123   0.00000  -0.01169  -0.01162   2.08059
   A68        2.06845   0.00282   0.00000   0.01962   0.01969   2.08814
   A69        2.10057   0.00489   0.00000   0.02183   0.02178   2.12234
   A70        2.08001  -0.00182   0.00000  -0.00510  -0.00508   2.07493
   A71        2.10256  -0.00307   0.00000  -0.01667  -0.01665   2.08591
   A72        2.10159   0.00342   0.00000   0.01549   0.01547   2.11706
   A73        2.07055  -0.00631   0.00000  -0.02756  -0.02753   2.04301
   A74        2.11062   0.00290   0.00000   0.01224   0.01222   2.12284
   A75        1.94132   0.00046   0.00000   0.00185   0.00178   1.94311
   A76        1.92007   0.00508   0.00000   0.02780   0.02775   1.94782
   A77        1.93165   0.00221   0.00000   0.01285   0.01275   1.94440
   A78        1.89626  -0.00342   0.00000  -0.02307  -0.02308   1.87318
   A79        1.87158  -0.00023   0.00000   0.01047   0.01035   1.88193
   A80        1.90171  -0.00447   0.00000  -0.03195  -0.03203   1.86968
   A81        2.10555   0.00544   0.00000   0.02471   0.02468   2.13022
   A82        2.09960  -0.00321   0.00000  -0.01628  -0.01629   2.08331
   A83        2.07794  -0.00222   0.00000  -0.00828  -0.00829   2.06965
   A84        2.11712  -0.00243   0.00000  -0.01202  -0.01215   2.10496
   A85        2.11383  -0.00088   0.00000  -0.00811  -0.00805   2.10579
   A86        2.05222   0.00331   0.00000   0.02012   0.02019   2.07241
   A87        2.12035  -0.00186   0.00000  -0.00931  -0.00943   2.11092
   A88        2.09376  -0.00097   0.00000  -0.01160  -0.01154   2.08222
   A89        2.06907   0.00283   0.00000   0.02091   0.02097   2.09004
   A90        2.10148   0.00484   0.00000   0.02232   0.02225   2.12374
   A91        2.10149  -0.00299   0.00000  -0.01649  -0.01648   2.08501
   A92        2.08015  -0.00185   0.00000  -0.00572  -0.00571   2.07444
    D1       -2.41672  -0.00051   0.00000   0.00046   0.00057  -2.41615
    D2        0.77550  -0.00104   0.00000  -0.02196  -0.02209   0.75341
    D3       -0.33774   0.00088   0.00000   0.02193   0.02209  -0.31564
    D4        2.85448   0.00035   0.00000  -0.00049  -0.00057   2.85392
    D5        1.76153   0.00049   0.00000   0.01659   0.01668   1.77821
    D6       -1.32943  -0.00004   0.00000  -0.00583  -0.00598  -1.33542
    D7       -3.11876  -0.00017   0.00000  -0.00451  -0.00433  -3.12309
    D8        0.00888   0.00034   0.00000   0.00900   0.00901   0.01790
    D9       -0.02696   0.00061   0.00000   0.01871   0.01858  -0.00838
   D10        3.10068   0.00111   0.00000   0.03222   0.03193   3.13261
   D11        3.11768   0.00010   0.00000   0.00345   0.00335   3.12103
   D12       -0.01201  -0.00020   0.00000  -0.00731  -0.00739  -0.01940
   D13        0.02557  -0.00068   0.00000  -0.01958  -0.01940   0.00617
   D14       -3.10412  -0.00098   0.00000  -0.03034  -0.03014  -3.13426
   D15       -0.01582   0.00051   0.00000   0.01311   0.01288  -0.00295
   D16        3.11261   0.00083   0.00000   0.02165   0.02146   3.13407
   D17        3.13952   0.00002   0.00000  -0.00012  -0.00028   3.13924
   D18       -0.01523   0.00034   0.00000   0.00842   0.00830  -0.00692
   D19        3.08936   0.00093   0.00000   0.01475   0.01430   3.10366
   D20        0.05831  -0.00138   0.00000  -0.04205  -0.04209   0.01622
   D21       -0.03870   0.00057   0.00000   0.00575   0.00539  -0.03331
   D22       -3.06974  -0.00174   0.00000  -0.05105  -0.05100  -3.12074
   D23        0.42663  -0.00125   0.00000  -0.05610  -0.05617   0.37046
   D24        2.85088  -0.00144   0.00000  -0.03298  -0.03287   2.81802
   D25       -2.82685   0.00084   0.00000   0.00063   0.00051  -2.82634
   D26       -0.40259   0.00065   0.00000   0.02374   0.02382  -0.37878
   D27       -0.05980   0.00130   0.00000   0.04114   0.04135  -0.01845
   D28        3.08256   0.00129   0.00000   0.04352   0.04383   3.12639
   D29       -3.09621  -0.00031   0.00000  -0.01073  -0.01123  -3.10744
   D30        0.04614  -0.00031   0.00000  -0.00835  -0.00875   0.03739
   D31        2.89696   0.00076   0.00000   0.02997   0.03007   2.92703
   D32       -1.28080  -0.00009   0.00000   0.02143   0.02143  -1.25937
   D33        0.81109   0.00014   0.00000   0.00449   0.00432   0.81541
   D34        0.47859   0.00046   0.00000   0.00144   0.00160   0.48019
   D35        2.58402  -0.00039   0.00000  -0.00709  -0.00705   2.57697
   D36       -1.60727  -0.00015   0.00000  -0.02403  -0.02416  -1.63143
   D37        1.20540  -0.00306   0.00000  -0.05629  -0.05626   1.14914
   D38       -3.00577   0.00039   0.00000  -0.01038  -0.01040  -3.01617
   D39       -0.92274  -0.00121   0.00000  -0.03857  -0.03859  -0.96132
   D40       -0.90079  -0.00293   0.00000  -0.05788  -0.05778  -0.95857
   D41        1.17122   0.00053   0.00000  -0.01197  -0.01192   1.15930
   D42       -3.02893  -0.00107   0.00000  -0.04015  -0.04011  -3.06903
   D43       -2.97115  -0.00008   0.00000  -0.01308  -0.01311  -2.98425
   D44       -0.89913   0.00337   0.00000   0.03283   0.03275  -0.86638
   D45        1.18390   0.00177   0.00000   0.00464   0.00457   1.18847
   D46       -2.91627   0.00039   0.00000  -0.00035  -0.00050  -2.91677
   D47        1.29312   0.00151   0.00000  -0.01486  -0.01473   1.27839
   D48       -0.78926  -0.00158   0.00000  -0.01520  -0.01518  -0.80444
   D49       -1.18267  -0.00036   0.00000  -0.06386  -0.06380  -1.24647
   D50        2.99331  -0.00037   0.00000  -0.05084  -0.05088   2.94242
   D51        0.99609  -0.00260   0.00000  -0.08287  -0.08288   0.91321
   D52       -3.03460   0.00128   0.00000   0.00788   0.00780  -3.02680
   D53        1.19806   0.00110   0.00000   0.00100   0.00095   1.19900
   D54       -0.84895  -0.00056   0.00000  -0.02333  -0.02316  -0.87210
   D55       -0.95457  -0.00036   0.00000  -0.01337  -0.01345  -0.96802
   D56       -3.00511  -0.00054   0.00000  -0.02025  -0.02030  -3.02540
   D57        1.23108  -0.00220   0.00000  -0.04459  -0.04440   1.18667
   D58        1.07532   0.00086   0.00000   0.01069   0.01056   1.08588
   D59       -0.97521   0.00068   0.00000   0.00381   0.00371  -0.97150
   D60       -3.02221  -0.00098   0.00000  -0.02053  -0.02040  -3.04261
   D61        1.60527  -0.00261   0.00000  -0.05540  -0.05539   1.54988
   D62       -2.59970   0.00013   0.00000  -0.03155  -0.03156  -2.63126
   D63       -0.57725   0.00139   0.00000  -0.01010  -0.01011  -0.58735
   D64       -3.08210  -0.00127   0.00000  -0.03825  -0.03817  -3.12027
   D65       -0.99417  -0.00121   0.00000  -0.03198  -0.03227  -1.02644
   D66        1.08589   0.00152   0.00000  -0.02309  -0.02287   1.06302
   D67       -1.04660  -0.00068   0.00000  -0.01366  -0.01386  -1.06046
   D68        0.99915   0.00211   0.00000   0.02616   0.02617   1.02532
   D69        3.03546   0.00111   0.00000   0.01933   0.01932   3.05478
   D70       -3.13972  -0.00172   0.00000  -0.03293  -0.03306   3.11041
   D71       -1.09397   0.00107   0.00000   0.00689   0.00697  -1.08700
   D72        0.94235   0.00007   0.00000   0.00005   0.00012   0.94246
   D73        1.05168  -0.00187   0.00000  -0.01989  -0.01996   1.03171
   D74        3.09742   0.00092   0.00000   0.01993   0.02006   3.11749
   D75       -1.14945  -0.00008   0.00000   0.01309   0.01322  -1.13623
   D76       -1.29354   0.00085   0.00000   0.01869   0.01891  -1.27463
   D77        0.98494   0.00191   0.00000   0.06423   0.06459   1.04953
   D78        2.92545  -0.00131   0.00000  -0.01346  -0.01378   2.91167
   D79       -1.07925  -0.00025   0.00000   0.03208   0.03190  -1.04735
   D80        0.89869  -0.00041   0.00000  -0.00926  -0.00937   0.88932
[...]
   293    C   20  py     Ryd( 3p)     0.00077
   294    C   20  pz     Val( 2p)     1.25385
   295    C   20  pz     Ryd( 3p)     0.00265
   296    C   20  dxy    Ryd( 3d)     0.00065
   297    C   20  dxz    Ryd( 3d)     0.00047
   298    C   20  dyz    Ryd( 3d)     0.00035
   299    C   20  dx2y2  Ryd( 3d)     0.00066
   300    C   20  dz2    Ryd( 3d)     0.00071

   301    C   21  S      Cor( 1S)     1.99905
   302    C   21  S      Val( 2S)     0.95092
   303    C   21  S      Ryd( 3S)     0.00061
   304    C   21  S      Ryd( 4S)     0.00004
   305    C   21  px     Val( 2p)     1.02065
   306    C   21  px     Ryd( 3p)     0.00128
   307    C   21  py     Val( 2p)     1.06129
   308    C   21  py     Ryd( 3p)     0.00305
   309    C   21  pz     Val( 2p)     1.18189
   310    C   21  pz     Ryd( 3p)     0.00518
   311    C   21  dxy    Ryd( 3d)     0.00045
   312    C   21  dxz    Ryd( 3d)     0.00041
   313    C   21  dyz    Ryd( 3d)     0.00058
   314    C   21  dx2y2  Ryd( 3d)     0.00055
   315    C   21  dz2    Ryd( 3d)     0.00068

   316    C   22  S      Cor( 1S)     1.99905
   317    C   22  S      Val( 2S)     0.94928
   318    C   22  S      Ryd( 3S)     0.00064
   319    C   22  S      Ryd( 4S)     0.00004
   320    C   22  px     Val( 2p)     1.08876
   321    C   22  px     Ryd( 3p)     0.00168
   322    C   22  py     Val( 2p)     1.10869
   323    C   22  py     Ryd( 3p)     0.00290
   324    C   22  pz     Val( 2p)     1.14538
   325    C   22  pz     Ryd( 3p)     0.00439
   326    C   22  dxy    Ryd( 3d)     0.00039
   327    C   22  dxz    Ryd( 3d)     0.00045
   328    C   22  dyz    Ryd( 3d)     0.00064
   329    C   22  dx2y2  Ryd( 3d)     0.00040
   330    C   22  dz2    Ryd( 3d)     0.00054

   331    C   23  S      Cor( 1S)     1.99908
   332    C   23  S      Val( 2S)     0.94263
   333    C   23  S      Ryd( 3S)     0.00072
   334    C   23  S      Ryd( 4S)     0.00004
   335    C   23  px     Val( 2p)     1.08143
   336    C   23  px     Ryd( 3p)     0.00505
   337    C   23  py     Val( 2p)     1.17368
   338    C   23  py     Ryd( 3p)     0.00541
   339    C   23  pz     Val( 2p)     1.14421
   340    C   23  pz     Ryd( 3p)     0.00653
   341    C   23  dxy    Ryd( 3d)     0.00063
   342    C   23  dxz    Ryd( 3d)     0.00061
   343    C   23  dyz    Ryd( 3d)     0.00047
   344    C   23  dx2y2  Ryd( 3d)     0.00050
   345    C   23  dz2    Ryd( 3d)     0.00038

   346    C   24  S      Cor( 1S)     1.99907
   347    C   24  S      Val( 2S)     0.93997
   348    C   24  S      Ryd( 3S)     0.00068
   349    C   24  S      Ryd( 4S)     0.00004
   350    C   24  px     Val( 2p)     1.12000
   351    C   24  px     Ryd( 3p)     0.00460
   352    C   24  py     Val( 2p)     1.11681
   353    C   24  py     Ryd( 3p)     0.00543
   354    C   24  pz     Val( 2p)     1.16306
   355    C   24  pz     Ryd( 3p)     0.00577
   356    C   24  dxy    Ryd( 3d)     0.00055
   357    C   24  dxz    Ryd( 3d)     0.00060
   358    C   24  dyz    Ryd( 3d)     0.00048
   359    C   24  dx2y2  Ryd( 3d)     0.00057
   360    C   24  dz2    Ryd( 3d)     0.00034

   361    H   25  S      Val( 1S)     0.74656
   362    H   25  S      Ryd( 2S)     0.00150
   363    H   25  px     Ryd( 2p)     0.00022
   364    H   25  py     Ryd( 2p)     0.00021
   365    H   25  pz     Ryd( 2p)     0.00011

   366    H   26  S      Val( 1S)     0.75644
   367    H   26  S      Ryd( 2S)     0.00086
   368    H   26  px     Ryd( 2p)     0.00008
   369    H   26  py     Ryd( 2p)     0.00026
   370    H   26  pz     Ryd( 2p)     0.00016

   371    H   27  S      Val( 1S)     0.74653
   372    H   27  S      Ryd( 2S)     0.00150
   373    H   27  px     Ryd( 2p)     0.00011
   374    H   27  py     Ryd( 2p)     0.00011
   375    H   27  pz     Ryd( 2p)     0.00032

   376    H   28  S      Val( 1S)     0.77217
   377    H   28  S      Ryd( 2S)     0.00101
   378    H   28  px     Ryd( 2p)     0.00010
   379    H   28  py     Ryd( 2p)     0.00033
   380    H   28  pz     Ryd( 2p)     0.00022

   381    H   29  S      Val( 1S)     0.76675
   382    H   29  S      Ryd( 2S)     0.00107
   383    H   29  px     Ryd( 2p)     0.00019
   384    H   29  py     Ryd( 2p)     0.00020
   385    H   29  pz     Ryd( 2p)     0.00027

   386    H   30  S      Val( 1S)     0.55801
   387    H   30  S      Ryd( 2S)     0.00299
   388    H   30  px     Ryd( 2p)     0.00022
   389    H   30  py     Ryd( 2p)     0.00063
   390    H   30  pz     Ryd( 2p)     0.00035

   391    H   31  S      Val( 1S)     0.73375
   392    H   31  S      Ryd( 2S)     0.00236
   393    H   31  px     Ryd( 2p)     0.00013
   394    H   31  py     Ryd( 2p)     0.00036
   395    H   31  pz     Ryd( 2p)     0.00006

   396    H   32  S      Val( 1S)     0.73091
   397    H   32  S      Ryd( 2S)     0.00202
   398    H   32  px     Ryd( 2p)     0.00015
   399    H   32  py     Ryd( 2p)     0.00008
   400    H   32  pz     Ryd( 2p)     0.00031

   401    H   33  S      Val( 1S)     0.76870
   402    H   33  S      Ryd( 2S)     0.00153
   403    H   33  px     Ryd( 2p)     0.00021
   404    H   33  py     Ryd( 2p)     0.00012
   405    H   33  pz     Ryd( 2p)     0.00025

   406    H   34  S      Val( 1S)     0.78220
   407    H   34  S      Ryd( 2S)     0.00221
   408    H   34  px     Ryd( 2p)     0.00010
   409    H   34  py     Ryd( 2p)     0.00042
   410    H   34  pz     Ryd( 2p)     0.00007

   411    H   35  S      Val( 1S)     0.76901
   412    H   35  S      Ryd( 2S)     0.00101
   413    H   35  px     Ryd( 2p)     0.00008
   414    H   35  py     Ryd( 2p)     0.00008
   415    H   35  pz     Ryd( 2p)     0.00041

   416    H   36  S      Val( 1S)     0.78637
   417    H   36  S      Ryd( 2S)     0.00256
   418    H   36  px     Ryd( 2p)     0.00009
   419    H   36  py     Ryd( 2p)     0.00036
   420    H   36  pz     Ryd( 2p)     0.00013

   421    H   37  S      Val( 1S)     0.77174
   422    H   37  S      Ryd( 2S)     0.00103
   423    H   37  px     Ryd( 2p)     0.00008
   424    H   37  py     Ryd( 2p)     0.00009
   425    H   37  pz     Ryd( 2p)     0.00041

   426    H   38  S      Val( 1S)     0.78794
   427    H   38  S      Ryd( 2S)     0.00256
   428    H   38  px     Ryd( 2p)     0.00009
   429    H   38  py     Ryd( 2p)     0.00035
   430    H   38  pz     Ryd( 2p)     0.00014

   431    H   39  S      Val( 1S)     0.78404
   432    H   39  S      Ryd( 2S)     0.00195
   433    H   39  px     Ryd( 2p)     0.00020
   434    H   39  py     Ryd( 2p)     0.00017
   435    H   39  pz     Ryd( 2p)     0.00023

   436    H   40  S      Val( 1S)     0.78678
   437    H   40  S      Ryd( 2S)     0.00204
   438    H   40  px     Ryd( 2p)     0.00011
   439    H   40  py     Ryd( 2p)     0.00039
   440    H   40  pz     Ryd( 2p)     0.00008

   441    H   41  S      Val( 1S)     0.74791
   442    H   41  S      Ryd( 2S)     0.00177
   443    H   41  px     Ryd( 2p)     0.00009
   444    H   41  py     Ryd( 2p)     0.00035
   445    H   41  pz     Ryd( 2p)     0.00009

   446    H   42  S      Val( 1S)     0.75350
   447    H   42  S      Ryd( 2S)     0.00115
   448    H   42  px     Ryd( 2p)     0.00015
   449    H   42  py     Ryd( 2p)     0.00010
   450    H   42  pz     Ryd( 2p)     0.00031

   451    H   43  S      Val( 1S)     0.57843
   452    H   43  S      Ryd( 2S)     0.00272
   453    H   43  px     Ryd( 2p)     0.00043
   454    H   43  py     Ryd( 2p)     0.00032
   455    H   43  pz     Ryd( 2p)     0.00052

   456    H   44  S      Val( 1S)     0.75754
   457    H   44  S      Ryd( 2S)     0.00096
   458    H   44  px     Ryd( 2p)     0.00012
   459    H   44  py     Ryd( 2p)     0.00011
   460    H   44  pz     Ryd( 2p)     0.00037

   461    H   45  S      Val( 1S)     0.75728
   462    H   45  S      Ryd( 2S)     0.00096
   463    H   45  px     Ryd( 2p)     0.00013
   464    H   45  py     Ryd( 2p)     0.00018
   465    H   45  pz     Ryd( 2p)     0.00029

   466    H   46  S      Val( 1S)     0.75726
   467    H   46  S      Ryd( 2S)     0.00079
   468    H   46  px     Ryd( 2p)     0.00009
   469    H   46  py     Ryd( 2p)     0.00009
   470    H   46  pz     Ryd( 2p)     0.00032

   471    H   47  S      Val( 1S)     0.75436
   472    H   47  S      Ryd( 2S)     0.00096
   473    H   47  px     Ryd( 2p)     0.00016
   474    H   47  py     Ryd( 2p)     0.00025
   475    H   47  pz     Ryd( 2p)     0.00013

   476    H   48  S      Val( 1S)     0.75436
   477    H   48  S      Ryd( 2S)     0.00094
   478    H   48  px     Ryd( 2p)     0.00030
   479    H   48  py     Ryd( 2p)     0.00009
   480    H   48  pz     Ryd( 2p)     0.00014

   481    H   49  S      Val( 1S)     0.75816
   482    H   49  S      Ryd( 2S)     0.00096
   483    H   49  px     Ryd( 2p)     0.00012
   484    H   49  py     Ryd( 2p)     0.00011
   485    H   49  pz     Ryd( 2p)     0.00037

   486    H   50  S      Val( 1S)     0.75661
   487    H   50  S      Ryd( 2S)     0.00082
   488    H   50  px     Ryd( 2p)     0.00015
   489    H   50  py     Ryd( 2p)     0.00017
   490    H   50  pz     Ryd( 2p)     0.00029

   491    H   51  S      Val( 1S)     0.77218
   492    H   51  S      Ryd( 2S)     0.00119
   493    H   51  px     Ryd( 2p)     0.00009
   494    H   51  py     Ryd( 2p)     0.00034
   495    H   51  pz     Ryd( 2p)     0.00025

   496    H   52  S      Val( 1S)     0.77373
   497    H   52  S      Ryd( 2S)     0.00096
   498    H   52  px     Ryd( 2p)     0.00021
   499    H   52  py     Ryd( 2p)     0.00019
   500    H   52  pz     Ryd( 2p)     0.00027

 WARNING:  1 low occupancy (<1.9990e) core orbital  found on  C    5
           1 low occupancy (<1.9990e) core orbital  found on  C   16


 Summary of Natural Population Analysis:                  
                                                          
                                       Natural Population 
                Natural  -----------------------------------------------
    Atom  No    Charge         Core      Valence    Rydberg      Total
 -----------------------------------------------------------------------
      C    1   -0.70925      1.99939     4.70265    0.00721     6.70925
      C    2    0.04996      1.99903     3.93591    0.01510     5.95004
      C    3   -0.34599      1.99907     4.32788    0.01903     6.34599
      C    4   -0.34652      1.99908     4.32904    0.01841     6.34652
      C    5    0.16876      1.99900     3.81302    0.01922     5.83124
      N    6   -0.44226      1.99938     5.43139    0.01149     7.44226
      C    7   -0.30918      1.99930     4.29471    0.01517     6.30918
      C    8   -0.12137      1.99927     4.10520    0.01689     6.12137
      O    9   -0.59698      1.99979     6.58443    0.01276     8.59698
      C   10   -0.13696      1.99928     4.11863    0.01905     6.13696
      C   11   -0.13290      1.99929     4.11409    0.01952     6.13290
      O   12   -0.60366      1.99979     6.59124    0.01262     8.60366
      C   13   -0.12597      1.99926     4.11090    0.01582     6.12597
      C   14   -0.29155      1.99932     4.27435    0.01789     6.29155
      N   15   -0.65245      1.99944     5.63981    0.01320     7.65245
      C   16    0.15929      1.99900     3.82351    0.01820     5.84071
      C   17   -0.28231      1.99905     4.27046    0.01280     6.28231
      C   18   -0.22660      1.99905     4.21489    0.01267     6.22660
      C   19   -0.07570      1.99902     4.06255    0.01412     6.07570
      C   20   -0.70003      1.99940     4.69376    0.00687     6.70003
      C   21   -0.22663      1.99905     4.21475    0.01283     6.22663
      C   22   -0.30323      1.99905     4.29210    0.01208     6.30323
      C   23   -0.36137      1.99908     4.34194    0.02034     6.36137
      C   24   -0.35796      1.99907     4.33984    0.01906     6.35796
      H   25    0.25140      0.00000     0.74656    0.00204     0.74860
      H   26    0.24221      0.00000     0.75644    0.00135     0.75779
      H   27    0.25143      0.00000     0.74653    0.00204     0.74857
      H   28    0.22617      0.00000     0.77217    0.00166     0.77383
      H   29    0.23151      0.00000     0.76675    0.00174     0.76849
      H   30    0.43780      0.00000     0.55801    0.00418     0.56220
      H   31    0.26333      0.00000     0.73375    0.00291     0.73667
      H   32    0.26652      0.00000     0.73091    0.00257     0.73348
      H   33    0.22917      0.00000     0.76870    0.00212     0.77083
      H   34    0.21500      0.00000     0.78220    0.00280     0.78500
      H   35    0.22941      0.00000     0.76901    0.00159     0.77059
      H   36    0.21049      0.00000     0.78637    0.00314     0.78951
      H   37    0.22666      0.00000     0.77174    0.00160     0.77334
      H   38    0.20892      0.00000     0.78794    0.00313     0.79108
      H   39    0.21341      0.00000     0.78404    0.00255     0.78659
      H   40    0.21060      0.00000     0.78678    0.00262     0.78940
      H   41    0.24979      0.00000     0.74791    0.00230     0.75021
      H   42    0.24479      0.00000     0.75350    0.00170     0.75521
      H   43    0.41758      0.00000     0.57843    0.00399     0.58242
      H   44    0.24091      0.00000     0.75754    0.00155     0.75909
      H   45    0.24116      0.00000     0.75728    0.00156     0.75884
      H   46    0.24146      0.00000     0.75726    0.00129     0.75854
      H   47    0.24415      0.00000     0.75436    0.00150     0.75585
      H   48    0.24416      0.00000     0.75436    0.00148     0.75584
      H   49    0.24028      0.00000     0.75816    0.00156     0.75972
      H   50    0.24196      0.00000     0.75661    0.00143     0.75804
      H   51    0.22595      0.00000     0.77218    0.00186     0.77405
      H   52    0.22464      0.00000     0.77373    0.00163     0.77536
 =======================================================================
   * Total *    0.00000     47.98146   129.59627    0.42227   178.00000

                                 Natural Population      
 --------------------------------------------------------
   Core                      47.98146 ( 99.9614% of  48)
   Valence                  129.59627 ( 99.6894% of 130)
   Natural Minimal Basis    177.57773 ( 99.7628% of 178)
   Natural Rydberg Basis      0.42227 (  0.2372% of 178)
 --------------------------------------------------------

    Atom  No          Natural Electron Configuration
 ----------------------------------------------------------------------------
      C    1      [core]2S( 1.10)2p( 3.60)
      C    2      [core]2S( 0.89)2p( 3.04)3p( 0.01)
      C    3      [core]2S( 0.94)2p( 3.39)3p( 0.02)
      C    4      [core]2S( 0.95)2p( 3.38)3p( 0.02)
      C    5      [core]2S( 0.84)2p( 2.97)3p( 0.01)3d( 0.01)
      N    6      [core]2S( 1.28)2p( 4.15)3p( 0.01)
      C    7      [core]2S( 1.03)2p( 3.26)3p( 0.01)
      C    8      [core]2S( 1.03)2p( 3.08)3p( 0.01)3d( 0.01)
      O    9      [core]2S( 1.62)2p( 4.96)3p( 0.01)3d( 0.01)
      C   10      [core]2S( 1.04)2p( 3.08)3p( 0.01)3d( 0.01)
      C   11      [core]2S( 1.04)2p( 3.08)3p( 0.01)3d( 0.01)
      O   12      [core]2S( 1.62)2p( 4.97)3p( 0.01)
      C   13      [core]2S( 1.03)2p( 3.08)3p( 0.01)3d( 0.01)
      C   14      [core]2S( 1.02)2p( 3.25)3p( 0.01)
      N   15      [core]2S( 1.28)2p( 4.36)3p( 0.01)
      C   16      [core]2S( 0.84)2p( 2.98)3p( 0.01)
      C   17      [core]2S( 0.95)2p( 3.32)3p( 0.01)
      C   18      [core]2S( 0.95)2p( 3.26)3p( 0.01)
      C   19      [core]2S( 0.88)2p( 3.18)3p( 0.01)
      C   20      [core]2S( 1.10)2p( 3.60)
      C   21      [core]2S( 0.95)2p( 3.26)3p( 0.01)
      C   22      [core]2S( 0.95)2p( 3.34)3p( 0.01)
      C   23      [core]2S( 0.94)2p( 3.40)3p( 0.02)
      C   24      [core]2S( 0.94)2p( 3.40)3p( 0.02)
      H   25            1S( 0.75)
      H   26            1S( 0.76)
      H   27            1S( 0.75)
      H   28            1S( 0.77)
      H   29            1S( 0.77)
      H   30            1S( 0.56)
      H   31            1S( 0.73)
      H   32            1S( 0.73)
      H   33            1S( 0.77)
      H   34            1S( 0.78)
      H   35            1S( 0.77)
      H   36            1S( 0.79)
      H   37            1S( 0.77)
      H   38            1S( 0.79)
      H   39            1S( 0.78)
      H   40            1S( 0.79)
      H   41            1S( 0.75)
      H   42            1S( 0.75)
      H   43            1S( 0.58)
      H   44            1S( 0.76)
      H   45            1S( 0.76)
      H   46            1S( 0.76)
      H   47            1S( 0.75)
      H   48            1S( 0.75)
      H   49            1S( 0.76)
      H   50            1S( 0.76)
      H   51            1S( 0.77)
      H   52            1S( 0.77)


 NBO analysis skipped by request.
 1\1\GINC-DRG2-W004\SP\RB3LYP TD-FC\6-31G(d,p)\C20H28N2O2\QDUEZ\19-Jul-
 2024\0\\# TD(NStates=10, Root=1) B3LYP/6-31G** SCRF=(Solvent=water) vo
 lume pop=NPA density=current Geom=AllCheck Guess=Read\\RRZROWKVNHGBPP-
 UHFFFAOYSA-N_conf_3\\0,1\C,0,9.4492010882,-1.9897075213,0.5178698165\C
 ,0,8.0685759755,-1.3841588632,0.4131437473\C,0,7.1146197192,-1.5450143
 071,1.4219640508\C,0,5.8368409041,-0.9853978477,1.3333554661\C,0,5.464
 1976468,-0.2354472315,0.2029290437\N,0,4.1921947885,0.3008811022,0.049
 379149\C,0,3.2844323867,0.4479672449,1.1755948428\C,0,2.0698913286,1.2
 836462368,0.8070450018\O,0,1.3546060365,0.6274302124,-0.2336743744\C,0
 ,0.2398587015,1.3580888054,-0.7338425499\C,0,-1.0130195418,1.148012855
 5,0.127621652\O,0,-2.1234193956,1.8999965566,-0.3450347189\C,0,-2.8104
 99451,1.3278569205,-1.4559620549\C,0,-4.1213446884,2.0949048711,-1.621
 5100226\N,0,-5.0228833608,2.0032385513,-0.4796570741\C,0,-5.702665803,
 0.8223607825,-0.1638407844\C,0,-6.1646385995,0.6272045476,1.1551420449
 \C,0,-6.9070000691,-0.4968340865,1.4965731492\C,0,-7.2253626286,-1.485
 7395722,0.5511562041\C,0,-8.0281457714,-2.7069122794,0.9355219512\C,0,
 -6.7609523183,-1.2893365148,-0.7528981694\C,0,-6.0128345637,-0.1659468
 283,-1.1146870672\C,0,6.4235877749,-0.0673213268,-0.8195837616\C,0,7.6
 891845103,-0.6287831128,-0.7099775802\H,0,10.232551445,-1.2234175324,0
 .475228147\H,0,9.5716744565,-2.53616198,1.4574056948\H,0,9.6476813503,
 -2.6909462606,-0.301645398\H,0,7.3703180974,-2.1200987797,2.3091453349
 \H,0,5.133966372,-1.1391408142,2.1447635814\H,0,4.1264515128,1.0362454
 268,-0.6417261386\H,0,2.9440715253,-0.540783918,1.5090511943\H,0,3.772
 982308,0.9267906996,2.0402318394\H,0,1.4522893736,1.4150984637,1.70623
 16673\H,0,2.3838376494,2.2863035459,0.4736675226\H,0,0.0660636684,0.99
 03598717,-1.7499894957\H,0,0.4666479711,2.432132616,-0.7984308144\H,0,
 -0.8279831513,1.4922296769,1.1500366358\H,0,-1.2532709926,0.0756447272
 ,0.1709084107\H,0,-2.2204949304,1.4057430964,-2.3807962189\H,0,-3.0082
 974788,0.2618878262,-1.2695590948\H,0,-3.8891271074,3.1543364976,-1.77
 20191875\H,0,-4.6304643765,1.7550434752,-2.5276136329\H,0,-4.629636155
 6,2.4524451377,0.3382962476\H,0,-5.9371020155,1.3745705916,1.911956381
 6\H,0,-7.2446674073,-0.6105602652,2.524427147\H,0,-8.2047925015,-3.353
 1219661,0.0709878853\H,0,-7.5150138724,-3.3058600815,1.6975926322\H,0,
 -9.0051326058,-2.4343105972,1.351921719\H,0,-6.9826361689,-2.033482669
 2,-1.5145519598\H,0,-5.6789163097,-0.06729996,-2.141729277\H,0,6.16182
 73303,0.5107065742,-1.7028882425\H,0,8.402747344,-0.4753425976,-1.5167
 421885\\Version=ES64L-G16RevA.03\State=1-A\HF=-1038.9705675\RMSD=5.552
 e-09\Dipole=-1.2660141,1.3671349,0.1459677\Quadrupole=-31.6581965,12.6
 536508,19.0045457,12.6554895,1.4157928,-0.7601828\PG=C01 [X(C20H28N2O2
 )]\\@


 IF IT'S NOT TRUE, IT'S WELL INVENTED -- DANTE
 Job cpu time:       0 days  1 hours 51 minutes 14.3 seconds.
 Elapsed time:       0 days  0 hours 37 minutes 11.3 seconds.
 File lengths (MBytes):  RWF=   1993 Int=      0 D2E=      0 Chk=    123 Scr=      1
 Normal termination of Gaussian 16 at Fri Jul 19 13:34:26 2024.
