 Entering Gaussian System, Link 0=g16
 Initial command:
 /opt/sw/arch/manual/gaussian/G16_A03/g16/l1.exe "/scratch/1381392/Gau-65595.inp" -scrdir="/scratch/1381392/"
 Entering Link 1 = /opt/sw/arch/manual/gaussian/G16_A03/g16/l1.exe PID=     65596.
  
 Copyright (c) 1988,1990,1992,1993,1995,1998,2003,2009,2016,
            Gaussian, Inc.  All Rights Reserved.
  
 This is part of the Gaussian(R) 16 program.  It is based on
 the Gaussian(R) 09 system (copyright 2009, Gaussian, Inc.),
 the Gaussian(R) 03 system (copyright 2003, Gaussian, Inc.),
 the Gaussian(R) 98 system (copyright 1998, Gaussian, Inc.),
 the Gaussian(R) 94 system (copyright 1995, Gaussian, Inc.),
 the Gaussian 92(TM) system (copyright 1992, Gaussian, Inc.),
 the Gaussian 90(TM) system (copyright 1990, Gaussian, Inc.),
 the Gaussian 88(TM) system (copyright 1988, Gaussian, Inc.),
 the Gaussian 86(TM) system (copyright 1986, Carnegie Mellon
 University), and the Gaussian 82(TM) system (copyright 1983,
 Carnegie Mellon University). Gaussian is a federally registered
 trademark of Gaussian, Inc.
  
 This software contains proprietary and confidential information,
 including trade secrets, belonging to Gaussian, Inc.
  
 This software is provided under written license and may be
 used, copied, transmitted, or stored only in accord with that
 written license.
  
 The following legend is applicable only to US Government
 contracts under FAR:
  
                    RESTRICTED RIGHTS LEGEND
  
 Use, reproduction and disclosure by the US Government is
 subject to restrictions as set forth in subparagraphs (a)
 and (c) of the Commercial Computer Software - Restricted
 Rights clause in FAR 52.227-19.
  
 Gaussian, Inc.
 340 Quinnipiac St., Bldg. 40, Wallingford CT 06492
  
  
 ---------------------------------------------------------------
 Warning -- This program may not be used in any manner that
 competes with the business of Gaussian, Inc. or will provide
 assistance to any competitor of Gaussian, Inc.  The licensee
 of this program is prohibited from giving any competitor of
 Gaussian, Inc. access to this program.  By using this program,
 the user acknowledges that Gaussian, Inc. is engaged in the
 business of creating and licensing software in the field of
 computational chemistry and represents and warrants to the
 licensee that it is not a competitor of Gaussian, Inc. and that
 it will not use this program in any manner prohibited above.
 ---------------------------------------------------------------
  

 Cite this work as:
 Gaussian 16, Revision A.03,
 M. J. Frisch, G. W. Trucks, H. B. Schlegel, G. E. Scuseria, 
 M. A. Robb, J. R. Cheeseman, G. Scalmani, V. Barone, 
 G. A. Petersson, H. Nakatsuji, X. Li, M. Caricato, A. V. Marenich, 
 J. Bloino, B. G. Janesko, R. Gomperts, B. Mennucci, H. P. Hratchian, 
 J. V. Ortiz, A. F. Izmaylov, J. L. Sonnenberg, D. Williams-Young, 
 F. Ding, F. Lipparini, F. Egidi, J. Goings, B. Peng, A. Petrone, 
 T. Henderson, D. Ranasinghe, V. G. Zakrzewski, J. Gao, N. Rega, 
 G. Zheng, W. Liang, M. Hada, M. Ehara, K. Toyota, R. Fukuda, 
 J. Hasegawa, M. Ishida, T. Nakajima, Y. Honda, O. Kitao, H. Nakai, 
 T. Vreven, K. Throssell, J. A. Montgomery, Jr., J. E. Peralta, 
 F. Ogliaro, M. J. Bearpark, J. J. Heyd, E. N. Brothers, K. N. Kudin, 
 V. N. Staroverov, T. A. Keith, R. Kobayashi, J. Normand, 
 K. Raghavachari, A. P. Rendell, J. C. Burant, S. S. Iyengar, 
 J. Tomasi, M. Cossi, J. M. Millam, M. Klene, C. Adamo, R. Cammi, 
 J. W. Ochterski, R. L. Martin, K. Morokuma, O. Farkas, 
 J. B. Foresman, and D. J. Fox, Gaussian, Inc., Wallingford CT, 2016.
 
 ******************************************
 Gaussian 16:  ES64L-G16RevA.03 25-Dec-2016
                19-Jul-2024 
 ******************************************
 %nprocshared=8
 Will use up to    8 processors via shared memory.
 %mem=16GB
 %Chk=RRZROWKVNHGBPP-UHFFFAOYSA-N_conf_0_0.chk
 -------------------------------------------------------
 # opt=CalcFc B3LYP/6-31G** SCRF=(Solvent=water) scf=xqc
 -------------------------------------------------------
 1/10=4,18=20,19=15,26=3,38=1/1,3;
 2/9=110,12=2,17=6,18=5,40=1/2;
 3/5=1,6=6,7=101,11=2,25=1,30=1,70=2201,71=2,72=1,74=-5,140=1/1,2,3;
 4//1;
 5/5=2,8=3,13=1,38=5,53=1/2,8;
 8/6=4,10=90,11=11/1;
 11/6=1,8=1,9=11,15=111,16=1/1,2,10;
 10/6=1,13=1/2;
 6/7=2,8=2,9=2,10=2,28=1/1;
 7/10=1,18=20,25=1/1,2,3,16;
 1/10=4,18=20,19=15,26=3/3(2);
 2/9=110/2;
 99//99;
 2/9=110/2;
 3/5=1,6=6,7=101,11=2,25=1,30=1,70=2205,71=1,72=1,74=-5/1,2,3;
 4/5=5,16=3,69=1/1;
 5/5=2,8=3,13=1,38=5,53=1/2,8;
 7//1,2,3,16;
 1/18=20,19=15,26=3/3(-5);
 2/9=110/2;
 6/7=2,8=2,9=2,10=2,19=2,28=1/1;
 99/9=1/99;
 ----------------------------------
 RRZROWKVNHGBPP-UHFFFAOYSA-N_conf_0
 ----------------------------------
 Symbolic Z-matrix:
 Charge =  0 Multiplicity = 1
 C                    -7.27135  -3.03098   1.48081 
 C                    -6.35283  -2.07787   0.77659 
 C                    -6.13521  -0.79548   1.28563 
 C                    -5.26097   0.08933   0.6408 
 C                    -4.55073  -0.29511  -0.50061 
 N                    -3.72571   0.56765  -1.22542 
 C                    -3.14808   1.74316  -0.57448 
 C                    -2.09752   2.3809   -1.49727 
 O                    -1.06437   1.47119  -1.89478 
 C                    -0.19468   1.01291  -0.85596 
 C                     0.56965   2.12035  -0.11818 
 O                     1.18117   3.09198  -0.96821 
 C                     2.17643   2.60004  -1.87039 
 C                     3.43256   2.0455   -1.17452 
 N                     3.25738   0.62941  -0.82944 
 C                     4.28624  -0.05509  -0.17014 
 C                     4.23204  -1.45572  -0.13361 
 C                     5.18556  -2.20755   0.56144 
 C                     6.21583  -1.57174   1.25592 
 C                     7.21972  -2.37089   2.03136 
 C                     6.24978  -0.17557   1.27173 
 C                     5.29015   0.57031   0.57508 
 C                    -4.79653  -1.57509  -1.01483 
 C                    -5.67041  -2.46392  -0.37796 
 H                    -8.10998  -2.49612   1.93926 
 H                    -6.7247   -3.57009   2.26105 
 H                    -7.69468  -3.75854   0.78038 
 H                    -6.65723  -0.46413   2.18046 
 H                    -5.15397   1.08786   1.05237 
 H                    -3.03064   0.06736  -1.78056 
 H                    -3.92883   2.48374  -0.3678 
 H                    -2.68108   1.45654   0.37429 
 H                    -2.58808   2.70737  -2.42139 
 H                    -1.66595   3.27636  -1.03929 
 H                    -0.7546    0.3974   -0.14485 
 H                     0.51533   0.33847  -1.34269 
 H                    -0.13218   2.67629   0.51257 
 H                     1.30858   1.695     0.56794 
 H                     1.73782   1.88124  -2.5704 
 H                     2.47969   3.46896  -2.46515 
 H                     3.62568   2.64274  -0.2769 
 H                     4.28336   2.13479  -1.85982 
 H                     2.91299   0.07876  -1.61455 
 H                     3.43248  -1.98253  -0.64893 
 H                     5.10954  -3.2924    0.5603 
 H                     8.17087  -1.8346    2.1093 
 H                     7.42525  -3.32442   1.53486 
 H                     6.84349  -2.56963   3.0392 
 H                     7.01893   0.348     1.83513 
 H                     5.35391   1.65148   0.63637 
 H                    -4.30462  -1.89398  -1.93058 
 H                    -5.81949  -3.45366  -0.80178 
 

 GradGradGradGradGradGradGradGradGradGradGradGradGradGradGradGradGradGrad
 Berny optimization.
 Initialization pass.
                           ----------------------------
                           !    Initial Parameters    !
                           ! (Angstroms and Degrees)  !
 --------------------------                            --------------------------
 ! Name  Definition              Value          Derivative Info.                !
 --------------------------------------------------------------------------------
 ! R1    R(1,2)                  1.4993         calculate D2E/DX2 analytically  !
 ! R2    R(1,25)                 1.0952         calculate D2E/DX2 analytically  !
 ! R3    R(1,26)                 1.0946         calculate D2E/DX2 analytically  !
 ! R4    R(1,27)                 1.0951         calculate D2E/DX2 analytically  !
 ! R5    R(2,3)                  1.3968         calculate D2E/DX2 analytically  !
 ! R6    R(2,24)                 1.3956         calculate D2E/DX2 analytically  !
 ! R7    R(3,4)                  1.4011         calculate D2E/DX2 analytically  !
 ! R8    R(3,28)                 1.0877         calculate D2E/DX2 analytically  !
 ! R9    R(4,5)                  1.3982         calculate D2E/DX2 analytically  !
 ! R10   R(4,29)                 1.0853         calculate D2E/DX2 analytically  !
 ! R11   R(5,6)                  1.3966         calculate D2E/DX2 analytically  !
 ! R12   R(5,23)                 1.4011         calculate D2E/DX2 analytically  !
 ! R13   R(6,7)                  1.4626         calculate D2E/DX2 analytically  !
 ! R14   R(6,30)                 1.0206         calculate D2E/DX2 analytically  !
 ! R15   R(7,8)                  1.5369         calculate D2E/DX2 analytically  !
 ! R16   R(7,31)                 1.0958         calculate D2E/DX2 analytically  !
 ! R17   R(7,32)                 1.0956         calculate D2E/DX2 analytically  !
 ! R18   R(8,9)                  1.4328         calculate D2E/DX2 analytically  !
 ! R19   R(8,33)                 1.096          calculate D2E/DX2 analytically  !
 ! R20   R(8,34)                 1.0945         calculate D2E/DX2 analytically  !
 ! R21   R(9,10)                 1.4302         calculate D2E/DX2 analytically  !
 ! R22   R(10,11)                1.5346         calculate D2E/DX2 analytically  !
 ! R23   R(10,35)                1.0946         calculate D2E/DX2 analytically  !
 ! R24   R(10,36)                1.0936         calculate D2E/DX2 analytically  !
 ! R25   R(11,12)                1.4285         calculate D2E/DX2 analytically  !
 ! R26   R(11,37)                1.0952         calculate D2E/DX2 analytically  !
 ! R27   R(11,38)                1.0944         calculate D2E/DX2 analytically  !
 ! R28   R(12,13)                1.4306         calculate D2E/DX2 analytically  !
 ! R29   R(13,14)                1.5394         calculate D2E/DX2 analytically  !
 ! R30   R(13,39)                1.095          calculate D2E/DX2 analytically  !
 ! R31   R(13,40)                1.0958         calculate D2E/DX2 analytically  !
 ! R32   R(14,15)                1.468          calculate D2E/DX2 analytically  !
 ! R33   R(14,41)                1.0953         calculate D2E/DX2 analytically  !
 ! R34   R(14,42)                1.0961         calculate D2E/DX2 analytically  !
 ! R35   R(15,16)                1.4006         calculate D2E/DX2 analytically  !
 ! R36   R(15,43)                1.0189         calculate D2E/DX2 analytically  !
 ! R37   R(16,17)                1.4022         calculate D2E/DX2 analytically  !
 ! R38   R(16,22)                1.398          calculate D2E/DX2 analytically  !
 ! R39   R(17,18)                1.3991         calculate D2E/DX2 analytically  !
 ! R40   R(17,44)                1.0874         calculate D2E/DX2 analytically  !
 ! R41   R(18,19)                1.3957         calculate D2E/DX2 analytically  !
 ! R42   R(18,45)                1.0875         calculate D2E/DX2 analytically  !
 ! R43   R(19,20)                1.4993         calculate D2E/DX2 analytically  !
 ! R44   R(19,21)                1.3967         calculate D2E/DX2 analytically  !
 ! R45   R(20,46)                1.0947         calculate D2E/DX2 analytically  !
 ! R46   R(20,47)                1.0945         calculate D2E/DX2 analytically  !
 ! R47   R(20,48)                1.094          calculate D2E/DX2 analytically  !
 ! R48   R(21,22)                1.4009         calculate D2E/DX2 analytically  !
 ! R49   R(21,49)                1.0877         calculate D2E/DX2 analytically  !
 ! R50   R(22,50)                1.0848         calculate D2E/DX2 analytically  !
 ! R51   R(23,24)                1.3997         calculate D2E/DX2 analytically  !
 ! R52   R(23,51)                1.0873         calculate D2E/DX2 analytically  !
 ! R53   R(24,52)                1.0869         calculate D2E/DX2 analytically  !
 ! A1    A(2,1,25)             110.8088         calculate D2E/DX2 analytically  !
 ! A2    A(2,1,26)             109.994          calculate D2E/DX2 analytically  !
 ! A3    A(2,1,27)             111.0239         calculate D2E/DX2 analytically  !
 ! A4    A(25,1,26)            108.9374         calculate D2E/DX2 analytically  !
 ! A5    A(25,1,27)            107.2289         calculate D2E/DX2 analytically  !
 ! A6    A(26,1,27)            108.7689         calculate D2E/DX2 analytically  !
 ! A7    A(1,2,3)              120.5246         calculate D2E/DX2 analytically  !
 ! A8    A(1,2,24)             120.8151         calculate D2E/DX2 analytically  !
 ! A9    A(3,2,24)             118.6375         calculate D2E/DX2 analytically  !
 ! A10   A(2,3,4)              120.6172         calculate D2E/DX2 analytically  !
 ! A11   A(2,3,28)             120.3138         calculate D2E/DX2 analytically  !
 ! A12   A(4,3,28)             119.0604         calculate D2E/DX2 analytically  !
 ! A13   A(3,4,5)              121.2669         calculate D2E/DX2 analytically  !
 ! A14   A(3,4,29)             117.9056         calculate D2E/DX2 analytically  !
 ! A15   A(5,4,29)             120.827          calculate D2E/DX2 analytically  !
 ! A16   A(4,5,6)              123.6347         calculate D2E/DX2 analytically  !
 ! A17   A(4,5,23)             117.4941         calculate D2E/DX2 analytically  !
 ! A18   A(6,5,23)             118.5232         calculate D2E/DX2 analytically  !
 ! A19   A(5,6,7)              119.9229         calculate D2E/DX2 analytically  !
 ! A20   A(5,6,30)             112.4458         calculate D2E/DX2 analytically  !
 ! A21   A(7,6,30)             111.5364         calculate D2E/DX2 analytically  !
 ! A22   A(6,7,8)              109.6483         calculate D2E/DX2 analytically  !
 ! A23   A(6,7,31)             110.2268         calculate D2E/DX2 analytically  !
 ! A24   A(6,7,32)             110.0897         calculate D2E/DX2 analytically  !
 ! A25   A(8,7,31)             108.6534         calculate D2E/DX2 analytically  !
 ! A26   A(8,7,32)             109.7034         calculate D2E/DX2 analytically  !
 ! A27   A(31,7,32)            108.4914         calculate D2E/DX2 analytically  !
 ! A28   A(7,8,9)              113.3288         calculate D2E/DX2 analytically  !
 ! A29   A(7,8,33)             108.9            calculate D2E/DX2 analytically  !
 ! A30   A(7,8,34)             110.9652         calculate D2E/DX2 analytically  !
 ! A31   A(9,8,33)             106.1376         calculate D2E/DX2 analytically  !
 ! A32   A(9,8,34)             110.5626         calculate D2E/DX2 analytically  !
 ! A33   A(33,8,34)            106.5956         calculate D2E/DX2 analytically  !
 ! A34   A(8,9,10)             116.1294         calculate D2E/DX2 analytically  !
 ! A35   A(9,10,11)            114.8872         calculate D2E/DX2 analytically  !
 ! A36   A(9,10,35)            109.9384         calculate D2E/DX2 analytically  !
 ! A37   A(9,10,36)            105.6135         calculate D2E/DX2 analytically  !
 ! A38   A(11,10,35)           110.3807         calculate D2E/DX2 analytically  !
 ! A39   A(11,10,36)           109.6137         calculate D2E/DX2 analytically  !
 ! A40   A(35,10,36)           105.9305         calculate D2E/DX2 analytically  !
 ! A41   A(10,11,12)           114.7074         calculate D2E/DX2 analytically  !
 ! A42   A(10,11,37)           108.9066         calculate D2E/DX2 analytically  !
 ! A43   A(10,11,38)           110.93           calculate D2E/DX2 analytically  !
 ! A44   A(12,11,37)           105.7694         calculate D2E/DX2 analytically  !
 ! A45   A(12,11,38)           110.3889         calculate D2E/DX2 analytically  !
 ! A46   A(37,11,38)           105.5988         calculate D2E/DX2 analytically  !
 ! A47   A(11,12,13)           116.0526         calculate D2E/DX2 analytically  !
 ! A48   A(12,13,14)           113.9856         calculate D2E/DX2 analytically  !
 ! A49   A(12,13,39)           110.5009         calculate D2E/DX2 analytically  !
 ! A50   A(12,13,40)           105.1979         calculate D2E/DX2 analytically  !
 ! A51   A(14,13,39)           112.2945         calculate D2E/DX2 analytically  !
 ! A52   A(14,13,40)           107.7697         calculate D2E/DX2 analytically  !
 ! A53   A(39,13,40)           106.5227         calculate D2E/DX2 analytically  !
 ! A54   A(13,14,15)           110.8787         calculate D2E/DX2 analytically  !
 ! A55   A(13,14,41)           108.5367         calculate D2E/DX2 analytically  !
 ! A56   A(13,14,42)           108.748          calculate D2E/DX2 analytically  !
 ! A57   A(15,14,41)           110.7559         calculate D2E/DX2 analytically  !
 ! A58   A(15,14,42)           108.5521         calculate D2E/DX2 analytically  !
 ! A59   A(41,14,42)           109.3345         calculate D2E/DX2 analytically  !
 ! A60   A(14,15,16)           119.6314         calculate D2E/DX2 analytically  !
 ! A61   A(14,15,43)           112.3658         calculate D2E/DX2 analytically  !
 ! A62   A(16,15,43)           110.2961         calculate D2E/DX2 analytically  !
 ! A63   A(15,16,17)           118.167          calculate D2E/DX2 analytically  !
 ! A64   A(15,16,22)           124.0425         calculate D2E/DX2 analytically  !
 ! A65   A(17,16,22)           117.4355         calculate D2E/DX2 analytically  !
 ! A66   A(16,17,18)           121.5586         calculate D2E/DX2 analytically  !
 ! A67   A(16,17,44)           120.0024         calculate D2E/DX2 analytically  !
 ! A68   A(18,17,44)           118.4382         calculate D2E/DX2 analytically  !
 ! A69   A(17,18,19)           120.3621         calculate D2E/DX2 analytically  !
 ! A70   A(17,18,45)           119.2014         calculate D2E/DX2 analytically  !
 ! A71   A(19,18,45)           120.4348         calculate D2E/DX2 analytically  !
 ! A72   A(18,19,20)           120.5845         calculate D2E/DX2 analytically  !
 ! A73   A(18,19,21)           118.6177         calculate D2E/DX2 analytically  !
 ! A74   A(20,19,21)           120.7112         calculate D2E/DX2 analytically  !
 ! A75   A(19,20,46)           110.9456         calculate D2E/DX2 analytically  !
 ! A76   A(19,20,47)           110.8231         calculate D2E/DX2 analytically  !
 ! A77   A(19,20,48)           110.0622         calculate D2E/DX2 analytically  !
 ! A78   A(46,20,47)           107.2135         calculate D2E/DX2 analytically  !
 ! A79   A(46,20,48)           108.7977         calculate D2E/DX2 analytically  !
 ! A80   A(47,20,48)           108.9184         calculate D2E/DX2 analytically  !
 ! A81   A(19,21,22)           120.6606         calculate D2E/DX2 analytically  !
 ! A82   A(19,21,49)           120.2805         calculate D2E/DX2 analytically  !
 ! A83   A(22,21,49)           119.0563         calculate D2E/DX2 analytically  !
 ! A84   A(16,22,21)           121.2531         calculate D2E/DX2 analytically  !
 ! A85   A(16,22,50)           121.2111         calculate D2E/DX2 analytically  !
 ! A86   A(21,22,50)           117.5357         calculate D2E/DX2 analytically  !
 ! A87   A(5,23,24)            121.5085         calculate D2E/DX2 analytically  !
 ! A88   A(5,23,51)            119.8443         calculate D2E/DX2 analytically  !
 ! A89   A(24,23,51)           118.6469         calculate D2E/DX2 analytically  !
 ! A90   A(2,24,23)            120.3993         calculate D2E/DX2 analytically  !
 ! A91   A(2,24,52)            120.4899         calculate D2E/DX2 analytically  !
 ! A92   A(23,24,52)           119.1064         calculate D2E/DX2 analytically  !
 ! D1    D(25,1,2,3)            34.697          calculate D2E/DX2 analytically  !
 ! D2    D(25,1,2,24)         -147.067          calculate D2E/DX2 analytically  !
 ! D3    D(26,1,2,3)           -85.8155         calculate D2E/DX2 analytically  !
 ! D4    D(26,1,2,24)           92.4205         calculate D2E/DX2 analytically  !
 ! D5    D(27,1,2,3)           153.7436         calculate D2E/DX2 analytically  !
 ! D6    D(27,1,2,24)          -28.0204         calculate D2E/DX2 analytically  !
 ! D7    D(1,2,3,4)            178.9839         calculate D2E/DX2 analytically  !
 ! D8    D(1,2,3,28)            -2.0971         calculate D2E/DX2 analytically  !
 ! D9    D(24,2,3,4)             0.71           calculate D2E/DX2 analytically  !
 ! D10   D(24,2,3,28)          179.6291         calculate D2E/DX2 analytically  !
 ! D11   D(1,2,24,23)         -178.8457         calculate D2E/DX2 analytically  !
 ! D12   D(1,2,24,52)            1.926          calculate D2E/DX2 analytically  !
 ! D13   D(3,2,24,23)           -0.577          calculate D2E/DX2 analytically  !
 ! D14   D(3,2,24,52)         -179.8054         calculate D2E/DX2 analytically  !
 ! D15   D(2,3,4,5)             -2.0596         calculate D2E/DX2 analytically  !
 ! D16   D(2,3,4,29)           177.6704         calculate D2E/DX2 analytically  !
 ! D17   D(28,3,4,5)           179.0079         calculate D2E/DX2 analytically  !
 ! D18   D(28,3,4,29)           -1.2621         calculate D2E/DX2 analytically  !
 ! D19   D(3,4,5,6)            176.2557         calculate D2E/DX2 analytically  !
 ! D20   D(3,4,5,23)             3.142          calculate D2E/DX2 analytically  !
 ! D21   D(29,4,5,6)            -3.4664         calculate D2E/DX2 analytically  !
 ! D22   D(29,4,5,23)         -176.5802         calculate D2E/DX2 analytically  !
 ! D23   D(4,5,6,7)             23.8487         calculate D2E/DX2 analytically  !
 ! D24   D(4,5,6,30)           157.9587         calculate D2E/DX2 analytically  !
 ! D25   D(23,5,6,7)          -163.104          calculate D2E/DX2 analytically  !
 ! D26   D(23,5,6,30)          -28.994          calculate D2E/DX2 analytically  !
 ! D27   D(4,5,23,24)           -3.0166         calculate D2E/DX2 analytically  !
 ! D28   D(4,5,23,51)          176.7936         calculate D2E/DX2 analytically  !
 ! D29   D(6,5,23,24)         -176.4927         calculate D2E/DX2 analytically  !
 ! D30   D(6,5,23,51)            3.3174         calculate D2E/DX2 analytically  !
 ! D31   D(5,6,7,8)            170.1005         calculate D2E/DX2 analytically  !
 ! D32   D(5,6,7,31)           -70.3292         calculate D2E/DX2 analytically  !
 ! D33   D(5,6,7,32)            49.3186         calculate D2E/DX2 analytically  !
 ! D34   D(30,6,7,8)            35.6141         calculate D2E/DX2 analytically  !
 ! D35   D(30,6,7,31)          155.1844         calculate D2E/DX2 analytically  !
 ! D36   D(30,6,7,32)          -85.1679         calculate D2E/DX2 analytically  !
 ! D37   D(6,7,8,9)            -56.1149         calculate D2E/DX2 analytically  !
 ! D38   D(6,7,8,33)            61.7635         calculate D2E/DX2 analytically  !
 ! D39   D(6,7,8,34)           178.795          calculate D2E/DX2 analytically  !
 ! D40   D(31,7,8,9)          -176.645          calculate D2E/DX2 analytically  !
 ! D41   D(31,7,8,33)          -58.7667         calculate D2E/DX2 analytically  !
 ! D42   D(31,7,8,34)           58.2648         calculate D2E/DX2 analytically  !
 ! D43   D(32,7,8,9)            64.9008         calculate D2E/DX2 analytically  !
 ! D44   D(32,7,8,33)         -177.2209         calculate D2E/DX2 analytically  !
 ! D45   D(32,7,8,34)          -60.1894         calculate D2E/DX2 analytically  !
 ! D46   D(7,8,9,10)           -66.569          calculate D2E/DX2 analytically  !
 ! D47   D(33,8,9,10)          173.9582         calculate D2E/DX2 analytically  !
 ! D48   D(34,8,9,10)           58.7375         calculate D2E/DX2 analytically  !
 ! D49   D(8,9,10,11)          -59.1395         calculate D2E/DX2 analytically  !
 ! D50   D(8,9,10,35)           66.0772         calculate D2E/DX2 analytically  !
 ! D51   D(8,9,10,36)          179.9391         calculate D2E/DX2 analytically  !
 ! D52   D(9,10,11,12)         -46.6454         calculate D2E/DX2 analytically  !
 ! D53   D(9,10,11,37)          71.636          calculate D2E/DX2 analytically  !
 ! D54   D(9,10,11,38)        -172.559          calculate D2E/DX2 analytically  !
 ! D55   D(35,10,11,12)       -171.6311         calculate D2E/DX2 analytically  !
 ! D56   D(35,10,11,37)        -53.3497         calculate D2E/DX2 analytically  !
 ! D57   D(35,10,11,38)         62.4553         calculate D2E/DX2 analytically  !
 ! D58   D(36,10,11,12)         72.059          calculate D2E/DX2 analytically  !
 ! D59   D(36,10,11,37)       -169.6597         calculate D2E/DX2 analytically  !
 ! D60   D(36,10,11,38)        -53.8546         calculate D2E/DX2 analytically  !
 ! D61   D(10,11,12,13)        -61.5804         calculate D2E/DX2 analytically  !
 ! D62   D(37,11,12,13)        178.3825         calculate D2E/DX2 analytically  !
 ! D63   D(38,11,12,13)         64.6134         calculate D2E/DX2 analytically  !
 ! D64   D(11,12,13,14)        -65.2805         calculate D2E/DX2 analytically  !
 ! D65   D(11,12,13,39)         62.2842         calculate D2E/DX2 analytically  !
 ! D66   D(11,12,13,40)        176.8792         calculate D2E/DX2 analytically  !
 ! D67   D(12,13,14,15)         87.0177         calculate D2E/DX2 analytically  !
 ! D68   D(12,13,14,41)        -34.849          calculate D2E/DX2 analytically  !
 ! D69   D(12,13,14,42)       -153.7027         calculate D2E/DX2 analytically  !
 ! D70   D(39,13,14,15)        -39.6176         calculate D2E/DX2 analytically  !
 ! D71   D(39,13,14,41)       -161.4844         calculate D2E/DX2 analytically  !
 ! D72   D(39,13,14,42)         79.6619         calculate D2E/DX2 analytically  !
 ! D73   D(40,13,14,15)       -156.6294         calculate D2E/DX2 analytically  !
 ! D74   D(40,13,14,41)         81.5038         calculate D2E/DX2 analytically  !
 ! D75   D(40,13,14,42)        -37.3499         calculate D2E/DX2 analytically  !
 ! D76   D(13,14,15,16)       -179.1151         calculate D2E/DX2 analytically  !
 ! D77   D(13,14,15,43)         49.159          calculate D2E/DX2 analytically  !
 ! D78   D(41,14,15,16)        -58.5559         calculate D2E/DX2 analytically  !
 ! D79   D(41,14,15,43)        169.7182         calculate D2E/DX2 analytically  !
 ! D80   D(42,14,15,16)         61.4877         calculate D2E/DX2 analytically  !
 ! D81   D(42,14,15,43)        -70.2382         calculate D2E/DX2 analytically  !
 ! D82   D(14,15,16,17)       -165.2189         calculate D2E/DX2 analytically  !
 ! D83   D(14,15,16,22)         21.8105         calculate D2E/DX2 analytically  !
 ! D84   D(43,15,16,17)        -32.6007         calculate D2E/DX2 analytically  !
 ! D85   D(43,15,16,22)        154.4286         calculate D2E/DX2 analytically  !
 ! D86   D(15,16,17,18)       -176.7902         calculate D2E/DX2 analytically  !
 ! D87   D(15,16,17,44)          2.8823         calculate D2E/DX2 analytically  !
 ! D88   D(22,16,17,18)         -3.3508         calculate D2E/DX2 analytically  !
 ! D89   D(22,16,17,44)        176.3217         calculate D2E/DX2 analytically  !
 ! D90   D(15,16,22,21)        176.4598         calculate D2E/DX2 analytically  !
 ! D91   D(15,16,22,50)         -3.451          calculate D2E/DX2 analytically  !
 ! D92   D(17,16,22,21)          3.4417         calculate D2E/DX2 analytically  !
 ! D93   D(17,16,22,50)       -176.4691         calculate D2E/DX2 analytically  !
 ! D94   D(16,17,18,19)          0.7752         calculate D2E/DX2 analytically  !
 ! D95   D(16,17,18,45)       -179.7004         calculate D2E/DX2 analytically  !
 ! D96   D(44,17,18,19)       -178.9022         calculate D2E/DX2 analytically  !
 ! D97   D(44,17,18,45)          0.6221         calculate D2E/DX2 analytically  !
 ! D98   D(17,18,19,20)        178.4218         calculate D2E/DX2 analytically  !
 ! D99   D(17,18,19,21)          1.7839         calculate D2E/DX2 analytically  !
 ! D100  D(45,18,19,20)         -1.0966         calculate D2E/DX2 analytically  !
 ! D101  D(45,18,19,21)       -177.7346         calculate D2E/DX2 analytically  !
 ! D102  D(18,19,20,46)        153.2695         calculate D2E/DX2 analytically  !
 ! D103  D(18,19,20,47)         34.2836         calculate D2E/DX2 analytically  !
 ! D104  D(18,19,20,48)        -86.2592         calculate D2E/DX2 analytically  !
 ! D105  D(21,19,20,46)        -30.1634         calculate D2E/DX2 analytically  !
 ! D106  D(21,19,20,47)       -149.1493         calculate D2E/DX2 analytically  !
 ! D107  D(21,19,20,48)         90.3079         calculate D2E/DX2 analytically  !
 ! D108  D(18,19,21,22)         -1.6887         calculate D2E/DX2 analytically  !
 ! D109  D(18,19,21,49)        177.7182         calculate D2E/DX2 analytically  !
 ! D110  D(20,19,21,22)       -178.3222         calculate D2E/DX2 analytically  !
 ! D111  D(20,19,21,49)          1.0847         calculate D2E/DX2 analytically  !
 ! D112  D(19,21,22,16)         -0.9781         calculate D2E/DX2 analytically  !
 ! D113  D(19,21,22,50)        178.9359         calculate D2E/DX2 analytically  !
 ! D114  D(49,21,22,16)        179.6078         calculate D2E/DX2 analytically  !
 ! D115  D(49,21,22,50)         -0.4782         calculate D2E/DX2 analytically  !
 ! D116  D(5,23,24,2)            1.7911         calculate D2E/DX2 analytically  !
 ! D117  D(5,23,24,52)        -178.9699         calculate D2E/DX2 analytically  !
 ! D118  D(51,23,24,2)        -178.0213         calculate D2E/DX2 analytically  !
 ! D119  D(51,23,24,52)          1.2177         calculate D2E/DX2 analytically  !
 --------------------------------------------------------------------------------
 Trust Radius=3.00D-01 FncErr=1.00D-07 GrdErr=1.00D-06 EigMax=2.50D+02 EigMin=1.00D-04
 Number of steps in this run=    274 maximum allowed number of steps=    312.
 GradGradGradGradGradGradGradGradGradGradGradGradGradGradGradGradGradGrad

 Stoichiometry    C20H28N2O2
 Framework group  C1[X(C20H28N2O2)]
 Deg. of freedom   150
 Full point group                 C1      NOp   1
 Largest Abelian subgroup         C1      NOp   1
 Largest concise Abelian subgroup C1      NOp   1
                         Standard orientation:                         
 ---------------------------------------------------------------------
 Center     Atomic      Atomic             Coordinates (Angstroms)
 Number     Number       Type             X           Y           Z
 ---------------------------------------------------------------------
      1          6           0        7.358179    3.226034    0.410290
      2          6           0        6.407213    2.091124    0.174381
      3          6           0        6.101634    1.196245    1.202396
      4          6           0        5.197057    0.147587    0.990188
      5          6           0        4.543436   -0.010108   -0.235770
      6          7           0        3.691555   -1.077883   -0.526488
      7          6           0        3.028746   -1.799065    0.559693
      8          6           0        1.970460   -2.749915   -0.021569
      9          8           0        1.003219   -2.087097   -0.845039
     10          6           0        0.131563   -1.169645   -0.178693
     11          6           0       -0.716168   -1.783443    0.943609
     12          8           0       -1.357605   -3.013476    0.602810
     13          6           0       -2.296416   -2.954942   -0.475004
     14          6           0       -3.538243   -2.095416   -0.177203
     15          7           0       -3.292089   -0.687181   -0.510877
     16          6           0       -4.298593    0.262217   -0.293231
     17          6           0       -4.165109    1.519264   -0.899896
     18          6           0       -5.093605    2.541993   -0.677469
     19          6           0       -6.178368    2.336594    0.176408
     20          6           0       -7.156742    3.440202    0.445849
     21          6           0       -6.292907    1.106834    0.828519
     22          6           0       -5.357934    0.088417    0.602258
     23          6           0        4.877135    0.879187   -1.265816
     24          6           0        5.781817    1.927767   -1.062529
     25          1           0        8.151068    2.931082    1.105899
     26          1           0        6.821026    4.083970    0.827006
     27          1           0        7.842710    3.532949   -0.522544
     28          1           0        6.577623    1.294605    2.175420
     29          1           0        5.021007   -0.544565    1.807401
     30          1           0        3.042739   -0.863507   -1.284555
     31          1           0        3.759356   -2.390207    1.123182
     32          1           0        2.551703   -1.090502    1.245808
     33          1           0        2.468022   -3.483368   -0.666314
     34          1           0        1.475087   -3.317038    0.772671
     35          1           0        0.705082   -0.317469    0.199361
     36          1           0       -0.524140   -0.768746   -0.956662
     37          1           0       -0.065988   -2.012622    1.794626
     38          1           0       -1.449000   -1.062483    1.318926
     39          1           0       -1.797152   -2.656186   -1.402662
     40          1           0       -2.631734   -3.987988   -0.620310
     41          1           0       -3.791274   -2.204649    0.882865
     42          1           0       -4.372566   -2.458021   -0.788686
     43          1           0       -2.894039   -0.573178   -1.441884
     44          1           0       -3.322021    1.719160   -1.556876
     45          1           0       -4.955389    3.500808   -1.171699
     46          1           0       -8.138982    3.036271    0.711190
     47          1           0       -7.292689    4.065115   -0.442395
     48          1           0       -6.799063    4.066238    1.268605
     49          1           0       -7.106858    0.930793    1.528255
     50          1           0       -5.485435   -0.839905    1.148801
     51          1           0        4.431088    0.759004   -2.250120
     52          1           0        5.999717    2.604890   -1.884386
 ---------------------------------------------------------------------
 Rotational constants (GHZ):           0.3324424           0.0710799           0.0611878
 Standard basis: 6-31G(d,p) (6D, 7F)
 There are   500 symmetry adapted cartesian basis functions of A   symmetry.
 There are   500 symmetry adapted basis functions of A   symmetry.
   500 basis functions,   868 primitive gaussians,   500 cartesian basis functions
    89 alpha electrons       89 beta electrons
       nuclear repulsion energy      1891.8154378974 Hartrees.
 NAtoms=   52 NActive=   52 NUniq=   52 SFac= 1.00D+00 NAtFMM=   60 NAOKFM=F Big=F
 Integral buffers will be    131072 words long.
 Raffenetti 2 integral format.
 Two-electron integral symmetry is turned on.
 Force inversion solution in PCM.
 ------------------------------------------------------------------------------
 Polarizable Continuum Model (PCM)
 =================================
 Model                : PCM.
 Atomic radii         : UFF (Universal Force Field).
 Polarization charges : Total charges.
 Charge compensation  : None.
 Solution method      : Matrix inversion.
 Cavity type          : Scaled VdW (van der Waals Surface) (Alpha=1.100).
 Cavity algorithm     : GePol (No added spheres)
                        Default sphere list used, NSphG=   52.
                        Lebedev-Laikov grids with approx.  5.0 points / Ang**2.
                        Smoothing algorithm: York/Karplus (Gamma=1.0000).
                        Polarization charges: spherical gaussians, with
                                              point-specific exponents (IZeta= 3).
                        Self-potential: point-specific (ISelfS= 7).
                        Self-field    : sphere-specific E.n sum rule (ISelfD= 2).
 1st derivatives      : Analytical E(r).r(x)/FMM algorithm (CHGder, D1EAlg=3).
                        Cavity 1st derivative terms included.
 2nd derivatives      : Analytical E(r).r(xy)/FMM algorithm (CHGder, D2EAlg=3).
                        Cavity 2nd derivative terms included.
 Solvent              : Water, Eps=  78.355300 Eps(inf)=   1.777849
 ------------------------------------------------------------------------------
 One-electron integrals computed using PRISM.
 NBasis=   500 RedAO= T EigKep=  4.15D-04  NBF=   500
 NBsUse=   500 1.00D-06 EigRej= -1.00D+00 NBFU=   500
 ExpMin= 1.61D-01 ExpMax= 5.48D+03 ExpMxC= 8.25D+02 IAcc=3 IRadAn=         5 AccDes= 0.00D+00
 Harris functional with IExCor=  402 and IRadAn=       5 diagonalized for initial guess.
 HarFok:  IExCor=  402 AccDes= 0.00D+00 IRadAn=         5 IDoV= 1 UseB2=F ITyADJ=14
 ICtDFT=  3500011 ScaDFX=  1.000000  1.000000  1.000000  1.000000
 FoFCou: FMM=F IPFlag=           0 FMFlag=      100000 FMFlg1=           0
         NFxFlg=           0 DoJE=T BraDBF=F KetDBF=T FulRan=T
         wScrn=  0.000000 ICntrl=       500 IOpCl=  0 I1Cent=   200000004 NGrid=           0
         NMat0=    1 NMatS0=      1 NMatT0=    0 NMatD0=    1 NMtDS0=    0 NMtDT0=    0
 Petite list used in FoFCou.
 Requested convergence on RMS density matrix=1.00D-08 within  32 cycles.
 Requested convergence on MAX density matrix=1.00D-06.
 Requested convergence on             energy=1.00D-06.
 No special actions if energy rises.
 Inv3:  Mode=1 IEnd=    38213283.
 Iteration    1 A*A^-1 deviation from unit magnitude is 3.55D-15 for   1847.
 Iteration    1 A*A^-1 deviation from orthogonality  is 2.44D-15 for   2696   1151.
 Iteration    1 A^-1*A deviation from unit magnitude is 3.55D-15 for   1847.
 Iteration    1 A^-1*A deviation from orthogonality  is 3.36D-12 for   2691   2645.
 Error on total polarization charges =  0.01426
 SCF Done:  E(RB3LYP) =  -1038.96190649     A.U. after   12 cycles
            NFock= 12  Conv=0.56D-08     -V/T= 2.0096
 QCSCF skips out because SCF is already converged.
 DoSCS=F DFT=T ScalE2(SS,OS)=  1.000000  1.000000
 Range of M.O.s used for correlation:     1   500
 NBasis=   500 NAE=    89 NBE=    89 NFC=     0 NFV=     0
 NROrb=    500 NOA=    89 NOB=    89 NVA=   411 NVB=   411
 Symmetrizing basis deriv contribution to polar:
 IMax=3 JMax=2 DiffMx= 0.00D+00
 G2DrvN: will do    53 centers at a time, making    1 passes.
 Calling FoFCou, ICntrl=  3107 FMM=F I1Cent=   0 AccDes= 0.00D+00.
 NEqPCM:  Using equilibrium solvation (IEInf=0, Eps=  78.3553, EpsInf=   1.7778)
 G2PCM: DoFxE=T DoFxN=T DoGrad=T DoDP/DQ/DG/TGxP=FFFF NFrqRd=   0 IEInf=0 SqF1=F DoCFld=F IF1Alg=4.
 End of G2Drv F.D. properties file   721 does not exist.
 End of G2Drv F.D. properties file   722 does not exist.
 End of G2Drv F.D. properties file   788 does not exist.
          IDoAtm=11111111111111111111111111111111111111111111111111
          IDoAtm=11
 NEqPCM:  Using equilibrium solvation (IEInf=0, Eps=  78.3553, EpsInf=   1.7778)
          Differentiating once with respect to nuclear coordinates.
 CalDSu exits because no D1Ps are significant.
          There are   159 degrees of freedom in the 1st order CPHF.  IDoFFX=6 NUNeed=     0.
    153 vectors produced by pass  0 Test12= 3.66D-14 1.00D-09 XBig12= 1.38D-01 1.76D-01.
 AX will form   153 AO Fock derivatives at one time.
    153 vectors produced by pass  1 Test12= 3.66D-14 1.00D-09 XBig12= 1.78D-02 4.90D-02.
    153 vectors produced by pass  2 Test12= 3.66D-14 1.00D-09 XBig12= 1.20D-04 1.54D-03.
    153 vectors produced by pass  3 Test12= 3.66D-14 1.00D-09 XBig12= 2.80D-07 7.88D-05.
    153 vectors produced by pass  4 Test12= 3.66D-14 1.00D-09 XBig12= 3.27D-10 1.50D-06.
     87 vectors produced by pass  5 Test12= 3.66D-14 1.00D-09 XBig12= 2.89D-13 5.15D-08.
      8 vectors produced by pass  6 Test12= 3.66D-14 1.00D-09 XBig12= 2.54D-16 1.68D-09.
 InvSVY:  IOpt=1 It=  1 EMax= 3.33D-16
 Solved reduced A of dimension   860 with   159 vectors.
 End of Minotr F.D. properties file   721 does not exist.
 End of Minotr F.D. properties file   722 does not exist.
 End of Minotr F.D. properties file   788 does not exist.

 **********************************************************************

            Population analysis using the SCF density.

 **********************************************************************

 Orbital symmetries:
       Occupied  (A) (A) (A) (A) (A) (A) (A) (A) (A) (A) (A) (A)
                 (A) (A) (A) (A) (A) (A) (A) (A) (A) (A) (A) (A)
                 (A) (A) (A) (A) (A) (A) (A) (A) (A) (A) (A) (A)
                 (A) (A) (A) (A) (A) (A) (A) (A) (A) (A) (A) (A)
                 (A) (A) (A) (A) (A) (A) (A) (A) (A) (A) (A) (A)
                 (A) (A) (A) (A) (A) (A) (A) (A) (A) (A) (A) (A)
                 (A) (A) (A) (A) (A) (A) (A) (A) (A) (A) (A) (A)
                 (A) (A) (A) (A) (A)
       Virtual   (A) (A) (A) (A) (A) (A) (A) (A) (A) (A) (A) (A)
                 (A) (A) (A) (A) (A) (A) (A) (A) (A) (A) (A) (A)
                 (A) (A) (A) (A) (A) (A) (A) (A) (A) (A) (A) (A)
                 (A) (A) (A) (A) (A) (A) (A) (A) (A) (A) (A) (A)
                 (A) (A) (A) (A) (A) (A) (A) (A) (A) (A) (A) (A)
                 (A) (A) (A) (A) (A) (A) (A) (A) (A) (A) (A) (A)
                 (A) (A) (A) (A) (A) (A) (A) (A) (A) (A) (A) (A)
                 (A) (A) (A) (A) (A) (A) (A) (A) (A) (A) (A) (A)
                 (A) (A) (A) (A) (A) (A) (A) (A) (A) (A) (A) (A)
                 (A) (A) (A) (A) (A) (A) (A) (A) (A) (A) (A) (A)
                 (A) (A) (A) (A) (A) (A) (A) (A) (A) (A) (A) (A)
                 (A) (A) (A) (A) (A) (A) (A) (A) (A) (A) (A) (A)
                 (A) (A) (A) (A) (A) (A) (A) (A) (A) (A) (A) (A)
                 (A) (A) (A) (A) (A) (A) (A) (A) (A) (A) (A) (A)
                 (A) (A) (A) (A) (A) (A) (A) (A) (A) (A) (A) (A)
                 (A) (A) (A) (A) (A) (A) (A) (A) (A) (A) (A) (A)
                 (A) (A) (A) (A) (A) (A) (A) (A) (A) (A) (A) (A)
                 (A) (A) (A) (A) (A) (A) (A) (A) (A) (A) (A) (A)
                 (A) (A) (A) (A) (A) (A) (A) (A) (A) (A) (A) (A)
                 (A) (A) (A) (A) (A) (A) (A) (A) (A) (A) (A) (A)
                 (A) (A) (A) (A) (A) (A) (A) (A) (A) (A) (A) (A)
                 (A) (A) (A) (A) (A) (A) (A) (A) (A) (A) (A) (A)
                 (A) (A) (A) (A) (A) (A) (A) (A) (A) (A) (A) (A)
                 (A) (A) (A) (A) (A) (A) (A) (A) (A) (A) (A) (A)
                 (A) (A) (A) (A) (A) (A) (A) (A) (A) (A) (A) (A)
                 (A) (A) (A) (A) (A) (A) (A) (A) (A) (A) (A) (A)
                 (A) (A) (A) (A) (A) (A) (A) (A) (A) (A) (A) (A)
                 (A) (A) (A) (A) (A) (A) (A) (A) (A) (A) (A) (A)
                 (A) (A) (A) (A) (A) (A) (A) (A) (A) (A) (A) (A)
                 (A) (A) (A) (A) (A) (A) (A) (A) (A) (A) (A) (A)
                 (A) (A) (A) (A) (A) (A) (A) (A) (A) (A) (A) (A)
                 (A) (A) (A) (A) (A) (A) (A) (A) (A) (A) (A) (A)
                 (A) (A) (A) (A) (A) (A) (A) (A) (A) (A) (A) (A)
                 (A) (A) (A) (A) (A) (A) (A) (A) (A) (A) (A) (A)
                 (A) (A) (A)
 The electronic state is 1-A.
 Alpha  occ. eigenvalues --  -19.15644 -19.15070 -14.34101 -14.33697 -10.23482
 Alpha  occ. eigenvalues --  -10.23465 -10.23176 -10.22892 -10.22131 -10.22000
 Alpha  occ. eigenvalues --  -10.21741 -10.21589 -10.18310 -10.18264 -10.18232
 Alpha  occ. eigenvalues --  -10.18215 -10.18183 -10.18137 -10.18052 -10.18003
 Alpha  occ. eigenvalues --  -10.17899 -10.17880 -10.17491 -10.17469  -1.03690
 Alpha  occ. eigenvalues --   -1.02039  -0.92886  -0.92596  -0.84178  -0.84064
 Alpha  occ. eigenvalues --   -0.77520  -0.76914  -0.75230  -0.73922  -0.73784
 Alpha  occ. eigenvalues --   -0.73147  -0.71219  -0.67354  -0.66354  -0.64891
 Alpha  occ. eigenvalues --   -0.62421  -0.60545  -0.59425  -0.57465  -0.57260
 Alpha  occ. eigenvalues --   -0.56404  -0.52447  -0.52338  -0.50677  -0.49996
 Alpha  occ. eigenvalues --   -0.48788  -0.48026  -0.46598  -0.46508  -0.45233
 Alpha  occ. eigenvalues --   -0.45192  -0.44941  -0.43601  -0.43124  -0.42868
 Alpha  occ. eigenvalues --   -0.42279  -0.41645  -0.41563  -0.41264  -0.41136
 Alpha  occ. eigenvalues --   -0.41090  -0.40550  -0.38946  -0.38760  -0.38039
 Alpha  occ. eigenvalues --   -0.37166  -0.37079  -0.36266  -0.36028  -0.35307
 Alpha  occ. eigenvalues --   -0.34216  -0.34103  -0.33169  -0.33128  -0.31614
 Alpha  occ. eigenvalues --   -0.30676  -0.28962  -0.28514  -0.26820  -0.25089
 Alpha  occ. eigenvalues --   -0.24570  -0.24472  -0.19507  -0.19331
 Alpha virt. eigenvalues --   -0.00042   0.00058   0.01817   0.02071   0.07420
 Alpha virt. eigenvalues --    0.08948   0.09923   0.10276   0.10454   0.11108
 Alpha virt. eigenvalues --    0.11760   0.12338   0.12888   0.13183   0.13489
 Alpha virt. eigenvalues --    0.14095   0.14775   0.14909   0.15078   0.15154
 Alpha virt. eigenvalues --    0.15927   0.16283   0.17253   0.17787   0.18018
 Alpha virt. eigenvalues --    0.18141   0.18165   0.18685   0.18849   0.19283
 Alpha virt. eigenvalues --    0.19474   0.19590   0.20785   0.20911   0.21475
 Alpha virt. eigenvalues --    0.22086   0.23047   0.23725   0.23911   0.24301
 Alpha virt. eigenvalues --    0.24854   0.25216   0.26137   0.26921   0.28681
 Alpha virt. eigenvalues --    0.29037   0.30496   0.33603   0.33965   0.34349
 Alpha virt. eigenvalues --    0.34418   0.34947   0.34982   0.36821   0.37701
 Alpha virt. eigenvalues --    0.46851   0.47038   0.50106   0.50355   0.50509
 Alpha virt. eigenvalues --    0.51504   0.51700   0.51812   0.52315   0.52354
 Alpha virt. eigenvalues --    0.52881   0.53667   0.54825   0.55177   0.55386
 Alpha virt. eigenvalues --    0.55826   0.56129   0.56526   0.56903   0.57777
 Alpha virt. eigenvalues --    0.58517   0.58563   0.59014   0.59653   0.60009
 Alpha virt. eigenvalues --    0.60199   0.60301   0.61170   0.62071   0.62546
 Alpha virt. eigenvalues --    0.62704   0.63380   0.63786   0.64606   0.64929
 Alpha virt. eigenvalues --    0.65573   0.65868   0.66260   0.66872   0.67403
 Alpha virt. eigenvalues --    0.70005   0.70833   0.71274   0.71710   0.72421
 Alpha virt. eigenvalues --    0.73115   0.74954   0.75139   0.75669   0.76036
 Alpha virt. eigenvalues --    0.77355   0.78187   0.78653   0.80191   0.80742
 Alpha virt. eigenvalues --    0.81783   0.82168   0.82551   0.82802   0.83003
 Alpha virt. eigenvalues --    0.83777   0.84126   0.85113   0.85318   0.85742
 Alpha virt. eigenvalues --    0.86174   0.86330   0.87160   0.88006   0.88645
 Alpha virt. eigenvalues --    0.89152   0.89554   0.89761   0.90233   0.90488
 Alpha virt. eigenvalues --    0.91213   0.91482   0.92401   0.93359   0.93951
 Alpha virt. eigenvalues --    0.94175   0.94453   0.95282   0.96040   0.97226
 Alpha virt. eigenvalues --    0.98019   0.98717   0.99354   1.00060   1.00441
 Alpha virt. eigenvalues --    1.01140   1.02180   1.02842   1.04824   1.06079
 Alpha virt. eigenvalues --    1.07574   1.09145   1.09938   1.11379   1.12863
 Alpha virt. eigenvalues --    1.14885   1.15531   1.16548   1.17378   1.17694
 Alpha virt. eigenvalues --    1.18284   1.18663   1.19387   1.20229   1.21942
 Alpha virt. eigenvalues --    1.22933   1.26312   1.26681   1.27398   1.28110
 Alpha virt. eigenvalues --    1.28509   1.30718   1.31980   1.32850   1.33917
 Alpha virt. eigenvalues --    1.37096   1.39513   1.39825   1.40182   1.41220
 Alpha virt. eigenvalues --    1.41466   1.41768   1.42159   1.43015   1.44747
 Alpha virt. eigenvalues --    1.46486   1.46599   1.47162   1.47403   1.49992
 Alpha virt. eigenvalues --    1.52037   1.56236   1.59469   1.59689   1.63130
 Alpha virt. eigenvalues --    1.64876   1.66615   1.67712   1.68806   1.69664
 Alpha virt. eigenvalues --    1.71793   1.73908   1.74157   1.74759   1.75676
 Alpha virt. eigenvalues --    1.76094   1.77254   1.78083   1.78517   1.78870
 Alpha virt. eigenvalues --    1.78989   1.79834   1.80636   1.82460   1.82548
 Alpha virt. eigenvalues --    1.83164   1.84835   1.84925   1.85169   1.85530
 Alpha virt. eigenvalues --    1.86531   1.86872   1.90979   1.91642   1.92592
 Alpha virt. eigenvalues --    1.93030   1.93363   1.94390   1.94936   1.96261
 Alpha virt. eigenvalues --    1.96553   1.96759   1.97886   1.98571   1.99200
 Alpha virt. eigenvalues --    1.99647   1.99965   2.00615   2.01452   2.01857
 Alpha virt. eigenvalues --    2.02505   2.02818   2.03751   2.05070   2.05273
 Alpha virt. eigenvalues --    2.05344   2.06674   2.07095   2.09101   2.09794
 Alpha virt. eigenvalues --    2.09972   2.10283   2.11363   2.11865   2.13207
 Alpha virt. eigenvalues --    2.14092   2.14717   2.15242   2.15468   2.16014
 Alpha virt. eigenvalues --    2.16906   2.19004   2.19344   2.21253   2.21489
 Alpha virt. eigenvalues --    2.21697   2.22845   2.24958   2.26202   2.27749
 Alpha virt. eigenvalues --    2.29026   2.29226   2.31050   2.31731   2.31998
 Alpha virt. eigenvalues --    2.32439   2.33431   2.33751   2.34182   2.36849
 Alpha virt. eigenvalues --    2.38000   2.39136   2.39587   2.40554   2.41540
 Alpha virt. eigenvalues --    2.41866   2.42051   2.43021   2.43198   2.44207
 Alpha virt. eigenvalues --    2.45103   2.46156   2.46754   2.48049   2.48966
 Alpha virt. eigenvalues --    2.49229   2.49706   2.50625   2.51372   2.52347
 Alpha virt. eigenvalues --    2.53144   2.53588   2.55106   2.56425   2.57185
 Alpha virt. eigenvalues --    2.58379   2.59739   2.59843   2.60838   2.61668
 Alpha virt. eigenvalues --    2.61983   2.62575   2.63551   2.64306   2.64758
 Alpha virt. eigenvalues --    2.66796   2.67961   2.69524   2.69948   2.70432
 Alpha virt. eigenvalues --    2.70584   2.70846   2.72441   2.72627   2.73720
 Alpha virt. eigenvalues --    2.74794   2.75550   2.76082   2.78605   2.79381
 Alpha virt. eigenvalues --    2.80540   2.81373   2.81586   2.82362   2.84656
 Alpha virt. eigenvalues --    2.85066   2.85984   2.87078   2.87814   2.88127
 Alpha virt. eigenvalues --    2.89206   2.89498   2.89787   2.91006   2.92240
 Alpha virt. eigenvalues --    2.94943   2.95848   2.97538   2.99355   3.02055
 Alpha virt. eigenvalues --    3.05979   3.06715   3.07877   3.08515   3.08973
 Alpha virt. eigenvalues --    3.19415   3.19506   3.20357   3.20521   3.25635
 Alpha virt. eigenvalues --    3.25826   3.26488   3.28395   3.29997   3.30656
 Alpha virt. eigenvalues --    3.32013   3.32752   3.33771   3.36354   3.36887
 Alpha virt. eigenvalues --    3.37054   3.39148   3.41163   3.43713   3.43983
 Alpha virt. eigenvalues --    3.44283   3.46852   3.47385   3.48516   3.50685
 Alpha virt. eigenvalues --    3.51153   3.52802   3.53099   3.54949   3.56003
 Alpha virt. eigenvalues --    3.83337   3.83571   3.91307   4.03640   4.13939
 Alpha virt. eigenvalues --    4.14022   4.14191   4.16174   4.16336   4.16948
 Alpha virt. eigenvalues --    4.20534   4.20674   4.37529   4.38115   4.40364
 Alpha virt. eigenvalues --    4.42965   4.44141   4.44186   4.46483   4.55006
 Alpha virt. eigenvalues --    4.55548   4.59322   4.66311   4.71707   4.84725
 Alpha virt. eigenvalues --    4.85206
          Condensed to atoms (all electrons):
 Mulliken charges:
               1
     1  C   -0.381569
     2  C    0.098994
     3  C   -0.143912
     4  C   -0.144281
     5  C    0.304843
     6  N   -0.606529
     7  C   -0.053594
     8  C    0.023141
     9  O   -0.510442
    10  C    0.028683
    11  C    0.037955
    12  O   -0.510043
    13  C    0.029634
    14  C   -0.052957
    15  N   -0.607309
    16  C    0.300242
    17  C   -0.154210
    18  C   -0.135626
    19  C    0.099303
    20  C   -0.381755
    21  C   -0.145505
    22  C   -0.142765
    23  C   -0.156730
    24  C   -0.137315
    25  H    0.114239
    26  H    0.124178
    27  H    0.112730
    28  H    0.089071
    29  H    0.091647
    30  H    0.267173
    31  H    0.123773
    32  H    0.107352
    33  H    0.118407
    34  H    0.114252
    35  H    0.107003
    36  H    0.112161
    37  H    0.111355
    38  H    0.115217
    39  H    0.107190
    40  H    0.117129
    41  H    0.133296
    42  H    0.110329
    43  H    0.271469
    44  H    0.090414
    45  H    0.090120
    46  H    0.113800
    47  H    0.114275
    48  H    0.125323
    49  H    0.090245
    50  H    0.092135
    51  H    0.088604
    52  H    0.088861
 Sum of Mulliken charges =  -0.00000
 Mulliken charges with hydrogens summed into heavy atoms:
               1
     1  C   -0.030422
     2  C    0.098994
     3  C   -0.054841
     4  C   -0.052635
     5  C    0.304843
     6  N   -0.339356
     7  C    0.177532
     8  C    0.255800
     9  O   -0.510442
    10  C    0.247847
    11  C    0.264527
    12  O   -0.510043
    13  C    0.253953
    14  C    0.190668
    15  N   -0.335840
    16  C    0.300242
    17  C   -0.063795
    18  C   -0.045507
    19  C    0.099303
    20  C   -0.028357
    21  C   -0.055261
    22  C   -0.050629
    23  C   -0.068126
    24  C   -0.048454
 APT charges:
               1
     1  C   -1.549007
     2  C    0.530238
     3  C   -0.398928
     4  C   -0.598150
     5  C   -0.608594
     6  N   -0.330188
     7  C   -0.583696
     8  C   -0.986817
     9  O   -0.447307
    10  C   -0.200899
    11  C   -0.454813
    12  O   -0.379774
    13  C   -0.785228
    14  C   -1.063817
    15  N   -0.495933
    16  C   -0.618329
    17  C   -0.628618
    18  C   -0.462088
    19  C    0.622120
    20  C   -1.560618
    21  C   -0.345229
    22  C   -0.603361
    23  C   -0.707832
    24  C   -0.373678
    25  H    0.925911
    26  H    0.094224
    27  H    0.806058
    28  H    0.854137
    29  H    0.287933
    30  H    0.051677
    31  H    0.764538
    32  H    0.008459
    33  H    0.728213
    34  H    0.380039
    35  H    0.176888
    36  H    0.233089
    37  H    0.387370
    38  H    0.268010
    39  H    0.114298
    40  H    0.836724
    41  H    0.453647
    42  H    0.688254
    43  H    0.259460
    44  H   -0.064036
    45  H    0.547250
    46  H    0.994908
    47  H    0.620844
    48  H    0.223407
    49  H    1.036928
    50  H    0.440680
    51  H    0.167063
    52  H    0.744573
 Sum of APT charges =  -0.00000
 APT charges with hydrogens summed into heavy atoms:
               1
     1  C    0.277187
     2  C    0.530238
     3  C    0.455208
     4  C   -0.310217
     5  C   -0.608594
     6  N   -0.278511
     7  C    0.189300
     8  C    0.121436
     9  O   -0.447307
    10  C    0.209079
    11  C    0.200567
    12  O   -0.379774
    13  C    0.165793
    14  C    0.078084
    15  N   -0.236474
    16  C   -0.618329
    17  C   -0.692654
    18  C    0.085163
    19  C    0.622120
    20  C    0.278541
    21  C    0.691699
    22  C   -0.162681
    23  C   -0.540769
    24  C    0.370895
 Electronic spatial extent (au):  <R**2>=          16987.1411
 Charge=             -0.0000 electrons
 Dipole moment (field-independent basis, Debye):
    X=             -2.0779    Y=              0.0160    Z=             -0.0765  Tot=              2.0793
 Quadrupole moment (field-independent basis, Debye-Ang):
   XX=           -151.2523   YY=           -141.8657   ZZ=           -138.1000
   XY=              4.7787   XZ=              5.9259   YZ=             -3.0495
 Traceless Quadrupole moment (field-independent basis, Debye-Ang):
   XX=             -7.5130   YY=              1.8736   ZZ=              5.6394
   XY=              4.7787   XZ=              5.9259   YZ=             -3.0495
 Octapole moment (field-independent basis, Debye-Ang**2):
  XXX=            -87.4115  YYY=             -8.0523  ZZZ=             -5.6448  XYY=             -9.2257
  XXY=              8.3818  XXZ=             47.4736  XZZ=             10.6780  YZZ=             -6.1612
  YYZ=            -11.8736  XYZ=            -17.6533
 Hexadecapole moment (field-independent basis, Debye-Ang**3):
 XXXX=         -19152.8139 YYYY=          -3684.5002 ZZZZ=           -662.8327 XXXY=            227.9083
 XXXZ=            -49.4636 YYYX=            -38.5789 YYYZ=              8.2611 ZZZX=              1.1441
 ZZZY=             -9.8709 XXYY=          -3514.3865 XXZZ=          -3153.9449 YYZZ=           -725.7687
 XXYZ=            -40.2697 YYXZ=             45.0828 ZZXY=             33.0583
 N-N= 1.891815437897D+03 E-N=-6.196541163272D+03  KE= 1.029106896613D+03
  Exact polarizability:   0.000   0.000   0.000   0.000   0.000   0.000
 Approx polarizability: 332.845  22.054 371.690 -15.260 -30.582 318.192
 D2PCM: PCM CHGder 2nd derivatives, FixD1E=F FixD2E=F DoIter=F DoCFld=F I1PDM=0
 Calling FoFJK, ICntrl=    100147 FMM=F ISym2X=0 I1Cent= 0 IOpClX= 0 NMat=1 NMatS=1 NMatT=0.
 ***** Axes restored to original set *****
 -------------------------------------------------------------------
 Center     Atomic                   Forces (Hartrees/Bohr)
 Number     Number              X              Y              Z
 -------------------------------------------------------------------
      1        6          -0.004638579   -0.001030753   -0.000889661
      2        6          -0.003213066   -0.001504622    0.005174558
      3        6           0.005618862    0.003538225   -0.009369475
      4        6          -0.003316862    0.004288811    0.012617232
      5        6          -0.004033625    0.001362417   -0.009747200
      6        7           0.005336147    0.002175625   -0.000593855
      7        6           0.005292171   -0.004196552   -0.006703446
      8        6          -0.002269328   -0.000731312    0.000216185
      9        8          -0.001376320    0.002151912   -0.001186195
     10        6           0.003865910   -0.001168563   -0.002440622
     11        6          -0.005763407    0.004039213    0.002727133
     12        8          -0.001518262   -0.002300286   -0.001913821
     13        6           0.002940813    0.007193028    0.006090971
     14        6          -0.007624569   -0.010753966   -0.009928574
     15        7           0.001781000    0.001692375    0.000444413
     16        6          -0.007738872   -0.003092374    0.006079519
     17        6           0.005131702   -0.014267111    0.001265222
     18        6          -0.008917951    0.008742980   -0.007889405
     19        6           0.004428311    0.000634939    0.004879995
     20        6           0.004884066   -0.001331851   -0.002054153
     21        6          -0.008515167    0.000009284   -0.006126615
     22        6           0.009658018    0.007412958    0.004381611
     23        6          -0.003106336   -0.015404694    0.000403246
     24        6           0.008165735    0.010744853   -0.006630465
     25        1           0.000950320   -0.001630910    0.002597530
     26        1          -0.003117540   -0.002838379    0.002252717
     27        1           0.001124938   -0.001694190    0.001780913
     28        1          -0.000161117   -0.000541904   -0.000744667
     29        1           0.002168102    0.000233814   -0.000671095
     30        1          -0.003067719    0.003966323    0.002572530
     31        1           0.000990430    0.000230692    0.000617062
     32        1          -0.000339823    0.003121449    0.005415260
     33        1           0.002083885   -0.003011563   -0.001021087
     34        1          -0.000911053    0.000170404    0.003089339
     35        1           0.001162717    0.000666680    0.005852219
     36        1          -0.001898277    0.000528385   -0.002299986
     37        1           0.000936484    0.003580113   -0.001771709
     38        1          -0.000376521   -0.006347787   -0.001584410
     39        1           0.001640974   -0.003677773   -0.000661305
     40        1          -0.001759187    0.000439505    0.001628780
     41        1           0.000048420   -0.001553089   -0.001302966
     42        1           0.003692749    0.006842839   -0.000463821
     43        1          -0.000097260    0.004846321    0.002325396
     44        1          -0.000681410    0.001681086   -0.001488528
     45        1           0.000818734    0.000491284   -0.000103348
     46        1          -0.000306714   -0.000371608    0.002776138
     47        1          -0.000544932   -0.001508292    0.002654272
     48        1           0.002879380   -0.002670590    0.002504619
     49        1          -0.000020863   -0.000798598   -0.000768432
     50        1          -0.001135063    0.000405590   -0.002365757
     51        1           0.001651565    0.001120686   -0.000007982
     52        1          -0.000801608    0.000114977    0.000381720
 -------------------------------------------------------------------
 Cartesian Forces:  Max     0.015404694 RMS     0.004315263
 FormGI is forming the generalized inverse of G from B-inverse, IUseBI=4.

 GradGradGradGradGradGradGradGradGradGradGradGradGradGradGradGradGradGrad
 Berny optimization.
 Internal  Forces:  Max     0.010804466 RMS     0.002700333
 Search for a local minimum.
 Step number   1 out of a maximum of  274
 All quantities printed in internal units (Hartrees-Bohrs-Radians)
 Mixed Optimization -- RFO/linear search
 Second derivative matrix not updated -- analytic derivatives used.
 ITU=  0
     Eigenvalues ---   -0.00002   0.00002   0.00212   0.00269   0.00346
     Eigenvalues ---    0.00368   0.00422   0.00454   0.00578   0.00632
     Eigenvalues ---    0.00644   0.00827   0.01079   0.01188   0.01440
     Eigenvalues ---    0.01585   0.01588   0.01674   0.01680   0.01729
     Eigenvalues ---    0.01730   0.02008   0.02020   0.02199   0.02204
     Eigenvalues ---    0.02354   0.02355   0.02722   0.02732   0.02740
     Eigenvalues ---    0.02750   0.02759   0.02767   0.04484   0.04486
     Eigenvalues ---    0.04720   0.04751   0.04869   0.04921   0.04987
     Eigenvalues ---    0.05113   0.05390   0.05725   0.05882   0.05887
     Eigenvalues ---    0.05911   0.05918   0.06147   0.07109   0.07950
     Eigenvalues ---    0.08014   0.09798   0.09902   0.10115   0.10349
     Eigenvalues ---    0.11098   0.11127   0.11410   0.11418   0.11639
     Eigenvalues ---    0.11674   0.11930   0.11955   0.12479   0.12625
     Eigenvalues ---    0.12635   0.12662   0.12859   0.12916   0.12924
     Eigenvalues ---    0.13334   0.13488   0.14231   0.14463   0.14524
     Eigenvalues ---    0.14924   0.14926   0.17998   0.18048   0.19191
     Eigenvalues ---    0.19227   0.19426   0.19491   0.19659   0.19670
     Eigenvalues ---    0.20788   0.21012   0.21542   0.22192   0.22623
     Eigenvalues ---    0.24388   0.24763   0.24994   0.25313   0.25840
     Eigenvalues ---    0.26133   0.26592   0.27612   0.28199   0.28818
     Eigenvalues ---    0.31363   0.31615   0.31760   0.31975   0.32041
     Eigenvalues ---    0.32269   0.32879   0.32911   0.33129   0.33246
     Eigenvalues ---    0.33266   0.33381   0.33573   0.33582   0.33631
     Eigenvalues ---    0.33690   0.33712   0.33798   0.34326   0.34552
     Eigenvalues ---    0.34622   0.34802   0.35152   0.35470   0.35490
     Eigenvalues ---    0.35684   0.35685   0.35866   0.35872   0.35974
     Eigenvalues ---    0.36127   0.36348   0.36430   0.36542   0.38852
     Eigenvalues ---    0.38929   0.41021   0.41049   0.43472   0.43640
     Eigenvalues ---    0.44024   0.45873   0.46024   0.47118   0.47125
     Eigenvalues ---    0.47728   0.47769   0.51168   0.51543   0.51576
 RFO step:  Lambda=-1.00770122D-02 EMin=-2.14224852D-05
 Linear search not attempted -- first point.
 Iteration  1 RMS(Cart)=  0.15446403 RMS(Int)=  0.00150542
 Iteration  2 RMS(Cart)=  0.00431279 RMS(Int)=  0.00018600
 Iteration  3 RMS(Cart)=  0.00000651 RMS(Int)=  0.00018599
 Iteration  4 RMS(Cart)=  0.00000000 RMS(Int)=  0.00018599
 Variable       Old X    -DE/DX   Delta X   Delta X   Delta X     New X
                                 (Linear)    (Quad)   (Total)
    R1        2.83334   0.01075   0.00000   0.02155   0.02155   2.85488
    R2        2.06970  -0.00043   0.00000  -0.00107  -0.00107   2.06862
    R3        2.06857   0.00145   0.00000   0.00548   0.00548   2.07405
    R4        2.06936  -0.00045   0.00000  -0.00123  -0.00123   2.06812
    R5        2.63954   0.00297   0.00000   0.00485   0.00488   2.64442
    R6        2.63734   0.00652   0.00000   0.01451   0.01454   2.65188
    R7        2.64762  -0.00265   0.00000  -0.00888  -0.00888   2.63874
    R8        2.05539  -0.00070   0.00000   0.00019   0.00019   2.05558
    R9        2.64228   0.00587   0.00000   0.01568   0.01565   2.65794
   R10        2.05094   0.00018   0.00000  -0.00118  -0.00118   2.04976
   R11        2.63910   0.00213   0.00000  -0.00182  -0.00182   2.63728
   R12        2.64777   0.00671   0.00000   0.01485   0.01482   2.66259
   R13        2.76392  -0.00179   0.00000  -0.01158  -0.01158   2.75234
   R14        1.92862  -0.00543   0.00000  -0.01216  -0.01216   1.91646
   R15        2.90425  -0.00553   0.00000  -0.01828  -0.01828   2.88597
   R16        2.07075  -0.00043   0.00000   0.00127   0.00127   2.07202
   R17        2.07042   0.00373   0.00000   0.01232   0.01232   2.08275
   R18        2.70765  -0.00392   0.00000  -0.01027  -0.01027   2.69738
   R19        2.07114  -0.00097   0.00000  -0.00320  -0.00320   2.06794
   R20        2.06823   0.00107   0.00000   0.00338   0.00338   2.07160
   R21        2.70272  -0.00133   0.00000  -0.00595  -0.00595   2.69676
   R22        2.89995  -0.00388   0.00000  -0.01013  -0.01013   2.88981
   R23        2.06841   0.00283   0.00000   0.00990   0.00990   2.07831
   R24        2.06655  -0.00053   0.00000  -0.00099  -0.00099   2.06557
   R25        2.69944  -0.00170   0.00000  -0.00777  -0.00777   2.69168
   R26        2.06965   0.00020   0.00000  -0.00161  -0.00161   2.06804
   R27        2.06810   0.00122   0.00000   0.00573   0.00573   2.07383
   R28        2.70335  -0.00091   0.00000  -0.01168  -0.01168   2.69166
   R29        2.90895  -0.00290   0.00000  -0.01415  -0.01415   2.89481
   R30        2.06929   0.00218   0.00000   0.00878   0.00878   2.07806
   R31        2.07073  -0.00102   0.00000  -0.00364  -0.00364   2.06709
   R32        2.77414  -0.00047   0.00000  -0.01310  -0.01310   2.76104
   R33        2.06983  -0.00191   0.00000  -0.00202  -0.00202   2.06781
   R34        2.07137   0.00371   0.00000   0.01269   0.01269   2.08407
   R35        2.64681   0.00399   0.00000   0.00207   0.00207   2.64888
   R36        1.92549  -0.00438   0.00000  -0.00938  -0.00938   1.91611
   R37        2.64968   0.00585   0.00000   0.01295   0.01292   2.66260
   R38        2.64177   0.00529   0.00000   0.01356   0.01353   2.65531
   R39        2.64396  -0.00552   0.00000  -0.01665  -0.01666   2.62730
   R40        2.05484   0.00039   0.00000   0.00032   0.00032   2.05516
   R41        2.63751   0.00666   0.00000   0.01492   0.01494   2.65245
   R42        2.05511  -0.00055   0.00000   0.00015   0.00015   2.05526
   R43        2.83318   0.01080   0.00000   0.02146   0.02146   2.85464
   R44        2.63932   0.00242   0.00000   0.00351   0.00354   2.64285
   R45        2.06868  -0.00025   0.00000  -0.00068  -0.00068   2.06800
   R46        2.06834   0.00001   0.00000   0.00012   0.00012   2.06847
   R47        2.06731   0.00180   0.00000   0.00653   0.00653   2.07384
   R48        2.64733  -0.00189   0.00000  -0.00696  -0.00696   2.64038
   R49        2.05549  -0.00080   0.00000  -0.00016  -0.00016   2.05534
   R50        2.04994   0.00020   0.00000  -0.00126  -0.00126   2.04868
   R51        2.64514  -0.00559   0.00000  -0.01658  -0.01658   2.62856
   R52        2.05473   0.00042   0.00000   0.00040   0.00040   2.05513
   R53        2.05401  -0.00014   0.00000   0.00134   0.00134   2.05535
    A1        1.93398   0.00174   0.00000   0.01029   0.01019   1.94417
    A2        1.91976   0.00518   0.00000   0.02844   0.02838   1.94814
    A3        1.93773   0.00100   0.00000   0.00580   0.00570   1.94344
    A4        1.90132  -0.00426   0.00000  -0.03054  -0.03060   1.87071
    A5        1.87150  -0.00021   0.00000   0.01060   0.01046   1.88196
    A6        1.89837  -0.00380   0.00000  -0.02665  -0.02669   1.87169
    A7        2.10355   0.00326   0.00000   0.01592   0.01591   2.11946
    A8        2.10862   0.00269   0.00000   0.01036   0.01035   2.11897
    A9        2.07061  -0.00595   0.00000  -0.02616  -0.02615   2.04446
   A10        2.10517   0.00535   0.00000   0.02372   0.02367   2.12883
   A11        2.09987  -0.00318   0.00000  -0.01629  -0.01631   2.08356
   A12        2.07800  -0.00216   0.00000  -0.00718  -0.00721   2.07079
   A13        2.11651  -0.00268   0.00000  -0.01280  -0.01286   2.10364
   A14        2.05784   0.00335   0.00000   0.02157   0.02160   2.07944
   A15        2.10883  -0.00066   0.00000  -0.00878  -0.00875   2.10008
   A16        2.15783  -0.00481   0.00000  -0.01888  -0.01929   2.13854
   A17        2.05066   0.00039   0.00000   0.00506   0.00454   2.05520
   A18        2.06862   0.00461   0.00000   0.01939   0.01904   2.08766
   A19        2.09305   0.00151   0.00000   0.01572   0.01556   2.10861
   A20        1.96255   0.00069   0.00000   0.01377   0.01364   1.97620
   A21        1.94668  -0.00172   0.00000  -0.00639  -0.00665   1.94002
   A22        1.91372  -0.00348   0.00000  -0.00584  -0.00600   1.90773
   A23        1.92382   0.00096   0.00000   0.00301   0.00296   1.92678
   A24        1.92143   0.00310   0.00000   0.02895   0.02881   1.95024
   A25        1.89636  -0.00003   0.00000  -0.01262  -0.01262   1.88374
   A26        1.91469   0.00154   0.00000   0.01420   0.01401   1.92870
   A27        1.89353  -0.00208   0.00000  -0.02830  -0.02825   1.86528
   A28        1.97796   0.00048   0.00000  -0.00171  -0.00174   1.97622
   A29        1.90066   0.00148   0.00000   0.00668   0.00663   1.90729
   A30        1.93671  -0.00276   0.00000  -0.01625  -0.01623   1.92048
   A31        1.85245  -0.00299   0.00000  -0.02449  -0.02448   1.82797
   A32        1.92968   0.00227   0.00000   0.01644   0.01646   1.94614
   A33        1.86044   0.00161   0.00000   0.02047   0.02056   1.88101
   A34        2.02684   0.00201   0.00000   0.00935   0.00935   2.03619
   A35        2.00516  -0.00164   0.00000   0.00048   0.00048   2.00564
   A36        1.91879   0.00519   0.00000   0.03199   0.03197   1.95075
   A37        1.84330  -0.00245   0.00000  -0.01851  -0.01850   1.82480
   A38        1.92651  -0.00518   0.00000  -0.04118  -0.04108   1.88543
   A39        1.91312   0.00339   0.00000   0.01596   0.01603   1.92915
   A40        1.84884   0.00109   0.00000   0.01391   0.01407   1.86291
   A41        2.00202   0.00012   0.00000   0.00147   0.00133   2.00335
   A42        1.90078   0.00349   0.00000   0.02550   0.02571   1.92649
   A43        1.93609  -0.00654   0.00000  -0.05488  -0.05473   1.88136
   A44        1.84602  -0.00348   0.00000  -0.02126  -0.02129   1.82473
   A45        1.92665   0.00455   0.00000   0.02467   0.02433   1.95098
   A46        1.84305   0.00226   0.00000   0.02939   0.02982   1.87287
   A47        2.02550   0.00925   0.00000   0.02661   0.02661   2.05211
   A48        1.98942   0.00639   0.00000   0.02057   0.02061   2.01003
   A49        1.92860   0.00044   0.00000   0.01143   0.01158   1.94018
   A50        1.83605  -0.00390   0.00000  -0.01369  -0.01374   1.82231
   A51        1.95991  -0.00482   0.00000  -0.03076  -0.03075   1.92916
   A52        1.88094   0.00001   0.00000   0.00490   0.00489   1.88582
   A53        1.85917   0.00164   0.00000   0.00789   0.00788   1.86705
   A54        1.93520   0.00528   0.00000   0.02144   0.02099   1.95618
   A55        1.89432  -0.00129   0.00000  -0.01100  -0.01101   1.88331
   A56        1.89801  -0.00274   0.00000  -0.00605  -0.00724   1.89077
   A57        1.93305  -0.00337   0.00000  -0.02164  -0.02132   1.91173
   A58        1.89459   0.00297   0.00000   0.04892   0.04863   1.94323
   A59        1.90825  -0.00093   0.00000  -0.03241  -0.03234   1.87590
   A60        2.08796   0.00201   0.00000   0.01735   0.01715   2.10511
   A61        1.96115  -0.00334   0.00000  -0.01035  -0.01073   1.95042
   A62        1.92503   0.00186   0.00000   0.02095   0.02082   1.94585
   A63        2.06240   0.00402   0.00000   0.01569   0.01526   2.07766
   A64        2.16495  -0.00420   0.00000  -0.01576  -0.01625   2.14870
   A65        2.04964   0.00041   0.00000   0.00636   0.00570   2.05533
   A66        2.12160  -0.00166   0.00000  -0.00948  -0.00961   2.11199
   A67        2.09444  -0.00141   0.00000  -0.01292  -0.01286   2.08158
   A68        2.06714   0.00307   0.00000   0.02242   0.02248   2.08962
   A69        2.10072   0.00480   0.00000   0.02152   0.02145   2.12216
   A70        2.08046  -0.00181   0.00000  -0.00498  -0.00495   2.07551
   A71        2.10198  -0.00300   0.00000  -0.01650  -0.01647   2.08552
   A72        2.10460   0.00305   0.00000   0.01260   0.01250   2.11710
   A73        2.07027  -0.00609   0.00000  -0.02567  -0.02582   2.04445
   A74        2.10681   0.00308   0.00000   0.01449   0.01440   2.12120
   A75        1.93637   0.00128   0.00000   0.00740   0.00729   1.94366
   A76        1.93423   0.00174   0.00000   0.00984   0.00973   1.94396
   A77        1.92095   0.00474   0.00000   0.02627   0.02622   1.94717
   A78        1.87123  -0.00026   0.00000   0.01113   0.01097   1.88220
   A79        1.89888  -0.00375   0.00000  -0.02662  -0.02666   1.87222
   A80        1.90099  -0.00410   0.00000  -0.02998  -0.03003   1.87096
   A81        2.10592   0.00525   0.00000   0.02371   0.02364   2.12956
   A82        2.09929  -0.00310   0.00000  -0.01567  -0.01568   2.08361
   A83        2.07793  -0.00214   0.00000  -0.00791  -0.00792   2.07000
   A84        2.11627  -0.00261   0.00000  -0.01339  -0.01350   2.10277
   A85        2.11553  -0.00109   0.00000  -0.01078  -0.01073   2.10480
   A86        2.05139   0.00371   0.00000   0.02418   0.02423   2.07561
   A87        2.12072  -0.00184   0.00000  -0.00989  -0.00996   2.11077
   A88        2.09168  -0.00088   0.00000  -0.00984  -0.00981   2.08187
   A89        2.07078   0.00273   0.00000   0.01972   0.01976   2.09054
   A90        2.10136   0.00480   0.00000   0.02202   0.02200   2.12336
   A91        2.10295  -0.00319   0.00000  -0.01819  -0.01820   2.08475
   A92        2.07880  -0.00161   0.00000  -0.00372  -0.00373   2.07507
    D1        0.60558  -0.00078   0.00000  -0.01778  -0.01784   0.58774
    D2       -2.56680  -0.00083   0.00000  -0.01366  -0.01366  -2.58047
    D3       -1.49776   0.00003   0.00000  -0.00491  -0.00495  -1.50271
    D4        1.61304  -0.00002   0.00000  -0.00079  -0.00077   1.61227
    D5        2.68333   0.00073   0.00000   0.00594   0.00596   2.68929
    D6       -0.48905   0.00068   0.00000   0.01007   0.01013  -0.47892
    D7        3.12386  -0.00049   0.00000  -0.00880  -0.00879   3.11507
    D8       -0.03660   0.00019   0.00000   0.00661   0.00651  -0.03009
    D9        0.01239  -0.00059   0.00000  -0.01345  -0.01340  -0.00100
   D10        3.13512   0.00010   0.00000   0.00196   0.00190   3.13702
   D11       -3.12145   0.00028   0.00000   0.00454   0.00455  -3.11690
   D12        0.03361  -0.00003   0.00000  -0.00451  -0.00453   0.02908
   D13       -0.01007   0.00039   0.00000   0.00930   0.00925  -0.00082
   D14       -3.13820   0.00008   0.00000   0.00025   0.00017  -3.13802
   D15       -0.03595   0.00112   0.00000   0.03004   0.02999  -0.00596
   D16        3.10093   0.00111   0.00000   0.02782   0.02767   3.12860
   D17        3.12428   0.00045   0.00000   0.01493   0.01490   3.13918
   D18       -0.02203   0.00044   0.00000   0.01270   0.01258  -0.00945
   D19        3.07624   0.00086   0.00000   0.01563   0.01516   3.09140
   D20        0.05484  -0.00142   0.00000  -0.04065  -0.04058   0.01426
   D21       -0.06050   0.00087   0.00000   0.01784   0.01743  -0.04307
   D22       -3.08191  -0.00142   0.00000  -0.03845  -0.03831  -3.12022
   D23        0.41624  -0.00083   0.00000  -0.03215  -0.03221   0.38403
   D24        2.75690  -0.00108   0.00000  -0.00811  -0.00793   2.74897
   D25       -2.84670   0.00119   0.00000   0.02372   0.02353  -2.82317
   D26       -0.50604   0.00094   0.00000   0.04776   0.04782  -0.45822
   D27       -0.05265   0.00117   0.00000   0.03639   0.03653  -0.01612
   D28        3.08563   0.00107   0.00000   0.03506   0.03528   3.12091
   D29       -3.08038  -0.00034   0.00000  -0.01426  -0.01483  -3.09521
   D30        0.05790  -0.00043   0.00000  -0.01559  -0.01608   0.04182
   D31        2.96881   0.00141   0.00000   0.02766   0.02769   2.99651
   D32       -1.22748  -0.00022   0.00000   0.01031   0.01027  -1.21720
   D33        0.86077  -0.00023   0.00000  -0.00454  -0.00465   0.85612
   D34        0.62158   0.00067   0.00000  -0.00443  -0.00432   0.61727
   D35        2.70848  -0.00096   0.00000  -0.02178  -0.02174   2.68674
   D36       -1.48646  -0.00097   0.00000  -0.03663  -0.03666  -1.52312
   D37       -0.97939   0.00020   0.00000   0.00904   0.00905  -0.97034
   D38        1.07798  -0.00225   0.00000  -0.01818  -0.01817   1.05980
   D39        3.12056  -0.00100   0.00000   0.00136   0.00135   3.12191
   D40       -3.08304   0.00115   0.00000   0.01662   0.01660  -3.06643
   D41       -1.02567  -0.00130   0.00000  -0.01059  -0.01062  -1.03629
   D42        1.01691  -0.00005   0.00000   0.00895   0.00891   1.02582
   D43        1.13273   0.00280   0.00000   0.05009   0.05013   1.18286
   D44       -3.09309   0.00035   0.00000   0.02287   0.02290  -3.07018
   D45       -1.05050   0.00161   0.00000   0.04242   0.04243  -1.00807
   D46       -1.16185  -0.00001   0.00000  -0.02793  -0.02786  -1.18971
   D47        3.03614  -0.00014   0.00000  -0.01903  -0.01914   3.01700
   D48        1.02516  -0.00152   0.00000  -0.03781  -0.03777   0.98739
   D49       -1.03218   0.00176   0.00000   0.00023   0.00029  -1.03189
   D50        1.15326  -0.00220   0.00000  -0.02845  -0.02849   1.12478
   D51        3.14053   0.00021   0.00000  -0.00702  -0.00704   3.13349
   D52       -0.81412   0.00217   0.00000   0.01527   0.01540  -0.79872
   D53        1.25028   0.00030   0.00000   0.00720   0.00735   1.25764
   D54       -3.01172   0.00140   0.00000   0.02681   0.02659  -2.98514
   D55       -2.99553   0.00073   0.00000   0.00575   0.00579  -2.98974
   D56       -0.93113  -0.00115   0.00000  -0.00233  -0.00225  -0.93338
   D57        1.09005  -0.00005   0.00000   0.01729   0.01698   1.10703
   D58        1.25767   0.00040   0.00000   0.00336   0.00351   1.26117
   D59       -2.96112  -0.00147   0.00000  -0.00471  -0.00454  -2.96566
   D60       -0.93994  -0.00037   0.00000   0.01490   0.01470  -0.92524
   D61       -1.07478   0.00162   0.00000   0.00183   0.00195  -1.07283
   D62        3.11336  -0.00040   0.00000  -0.01615  -0.01611   3.09725
   D63        1.12772  -0.00334   0.00000  -0.05081  -0.05098   1.07674
   D64       -1.13936  -0.00054   0.00000  -0.02966  -0.02978  -1.16914
   D65        1.08706  -0.00153   0.00000  -0.04517  -0.04508   1.04199
   D66        3.08712  -0.00149   0.00000  -0.03794  -0.03791   3.04921
   D67        1.51875  -0.00111   0.00000  -0.03479  -0.03484   1.48391
   D68       -0.60823   0.00059   0.00000  -0.01420  -0.01417  -0.62240
   D69       -2.68262   0.00400   0.00000   0.03444   0.03423  -2.64839
   D70       -0.69146  -0.00297   0.00000  -0.04144  -0.04136  -0.73282
   D71       -2.81843  -0.00127   0.00000  -0.02086  -0.02069  -2.83913
   D72        1.39036   0.00215   0.00000   0.02778   0.02771   1.41807
   D73       -2.73370  -0.00224   0.00000  -0.03664  -0.03660  -2.77030
   D74        1.42251  -0.00054   0.00000  -0.01606  -0.01593   1.40658
   D75       -0.65188   0.00287   0.00000   0.03258   0.03247  -0.61941
   D76       -3.12615   0.00122   0.00000   0.02526   0.02567  -3.10048
   D77        0.85799  -0.00004   0.00000  -0.01417  -0.01362   0.84437
   D78       -1.02199   0.00086   0.00000   0.01123   0.01127  -1.01072
   D79        2.96214  -0.00040   0.00000  -0.02820  -0.02801   2.93413
   D80        1.07316  -0.00044   0.00000  -0.01084  -0.01151   1.06165
[...]
   297    C   20  dxz    Ryd( 3d)     0.00036
   298    C   20  dyz    Ryd( 3d)     0.00071
   299    C   20  dx2y2  Ryd( 3d)     0.00040
   300    C   20  dz2    Ryd( 3d)     0.00061

   301    C   21  S      Cor( 1S)     1.99905
   302    C   21  S      Val( 2S)     0.95100
   303    C   21  S      Ryd( 3S)     0.00061
   304    C   21  S      Ryd( 4S)     0.00004
   305    C   21  px     Val( 2p)     1.13101
   306    C   21  px     Ryd( 3p)     0.00413
   307    C   21  py     Val( 2p)     1.12719
   308    C   21  py     Ryd( 3p)     0.00471
   309    C   21  pz     Val( 2p)     1.00583
   310    C   21  pz     Ryd( 3p)     0.00064
   311    C   21  dxy    Ryd( 3d)     0.00078
   312    C   21  dxz    Ryd( 3d)     0.00043
   313    C   21  dyz    Ryd( 3d)     0.00048
   314    C   21  dx2y2  Ryd( 3d)     0.00059
   315    C   21  dz2    Ryd( 3d)     0.00038

   316    C   22  S      Cor( 1S)     1.99905
   317    C   22  S      Val( 2S)     0.95001
   318    C   22  S      Ryd( 3S)     0.00063
   319    C   22  S      Ryd( 4S)     0.00004
   320    C   22  px     Val( 2p)     1.06855
   321    C   22  px     Ryd( 3p)     0.00351
   322    C   22  py     Val( 2p)     1.19444
   323    C   22  py     Ryd( 3p)     0.00417
   324    C   22  pz     Val( 2p)     1.07844
   325    C   22  pz     Ryd( 3p)     0.00112
   326    C   22  dxy    Ryd( 3d)     0.00063
   327    C   22  dxz    Ryd( 3d)     0.00046
   328    C   22  dyz    Ryd( 3d)     0.00033
   329    C   22  dx2y2  Ryd( 3d)     0.00063
   330    C   22  dz2    Ryd( 3d)     0.00038

   331    C   23  S      Cor( 1S)     1.99908
   332    C   23  S      Val( 2S)     0.94346
   333    C   23  S      Ryd( 3S)     0.00072
   334    C   23  S      Ryd( 4S)     0.00004
   335    C   23  px     Val( 2p)     1.11695
   336    C   23  px     Ryd( 3p)     0.00575
   337    C   23  py     Val( 2p)     1.17382
   338    C   23  py     Ryd( 3p)     0.00603
   339    C   23  pz     Val( 2p)     1.10424
   340    C   23  pz     Ryd( 3p)     0.00516
   341    C   23  dxy    Ryd( 3d)     0.00052
   342    C   23  dxz    Ryd( 3d)     0.00052
   343    C   23  dyz    Ryd( 3d)     0.00052
   344    C   23  dx2y2  Ryd( 3d)     0.00053
   345    C   23  dz2    Ryd( 3d)     0.00051

   346    C   24  S      Cor( 1S)     1.99907
   347    C   24  S      Val( 2S)     0.94044
   348    C   24  S      Ryd( 3S)     0.00067
   349    C   24  S      Ryd( 4S)     0.00004
   350    C   24  px     Val( 2p)     1.10670
   351    C   24  px     Ryd( 3p)     0.00513
   352    C   24  py     Val( 2p)     1.11531
   353    C   24  py     Ryd( 3p)     0.00570
   354    C   24  pz     Val( 2p)     1.17662
   355    C   24  pz     Ryd( 3p)     0.00496
   356    C   24  dxy    Ryd( 3d)     0.00043
   357    C   24  dxz    Ryd( 3d)     0.00055
   358    C   24  dyz    Ryd( 3d)     0.00046
   359    C   24  dx2y2  Ryd( 3d)     0.00055
   360    C   24  dz2    Ryd( 3d)     0.00053

   361    H   25  S      Val( 1S)     0.75615
   362    H   25  S      Ryd( 2S)     0.00091
   363    H   25  px     Ryd( 2p)     0.00009
   364    H   25  py     Ryd( 2p)     0.00020
   365    H   25  pz     Ryd( 2p)     0.00020

   366    H   26  S      Val( 1S)     0.74777
   367    H   26  S      Ryd( 2S)     0.00166
   368    H   26  px     Ryd( 2p)     0.00009
   369    H   26  py     Ryd( 2p)     0.00016
   370    H   26  pz     Ryd( 2p)     0.00029

   371    H   27  S      Val( 1S)     0.74501
   372    H   27  S      Ryd( 2S)     0.00132
   373    H   27  px     Ryd( 2p)     0.00025
   374    H   27  py     Ryd( 2p)     0.00020
   375    H   27  pz     Ryd( 2p)     0.00010

   376    H   28  S      Val( 1S)     0.77198
   377    H   28  S      Ryd( 2S)     0.00101
   378    H   28  px     Ryd( 2p)     0.00015
   379    H   28  py     Ryd( 2p)     0.00028
   380    H   28  pz     Ryd( 2p)     0.00022

   381    H   29  S      Val( 1S)     0.76718
   382    H   29  S      Ryd( 2S)     0.00107
   383    H   29  px     Ryd( 2p)     0.00017
   384    H   29  py     Ryd( 2p)     0.00015
   385    H   29  pz     Ryd( 2p)     0.00035

   386    H   30  S      Val( 1S)     0.55872
   387    H   30  S      Ryd( 2S)     0.00494
   388    H   30  px     Ryd( 2p)     0.00039
   389    H   30  py     Ryd( 2p)     0.00037
   390    H   30  pz     Ryd( 2p)     0.00048

   391    H   31  S      Val( 1S)     0.73193
   392    H   31  S      Ryd( 2S)     0.00183
   393    H   31  px     Ryd( 2p)     0.00015
   394    H   31  py     Ryd( 2p)     0.00009
   395    H   31  pz     Ryd( 2p)     0.00032

   396    H   32  S      Val( 1S)     0.74282
   397    H   32  S      Ryd( 2S)     0.00188
   398    H   32  px     Ryd( 2p)     0.00011
   399    H   32  py     Ryd( 2p)     0.00037
   400    H   32  pz     Ryd( 2p)     0.00007

   401    H   33  S      Val( 1S)     0.75685
   402    H   33  S      Ryd( 2S)     0.00157
   403    H   33  px     Ryd( 2p)     0.00010
   404    H   33  py     Ryd( 2p)     0.00039
   405    H   33  pz     Ryd( 2p)     0.00007

   406    H   34  S      Val( 1S)     0.76885
   407    H   34  S      Ryd( 2S)     0.00141
   408    H   34  px     Ryd( 2p)     0.00022
   409    H   34  py     Ryd( 2p)     0.00012
   410    H   34  pz     Ryd( 2p)     0.00023

   411    H   35  S      Val( 1S)     0.77956
   412    H   35  S      Ryd( 2S)     0.00187
   413    H   35  px     Ryd( 2p)     0.00013
   414    H   35  py     Ryd( 2p)     0.00033
   415    H   35  pz     Ryd( 2p)     0.00013

   416    H   36  S      Val( 1S)     0.76463
   417    H   36  S      Ryd( 2S)     0.00100
   418    H   36  px     Ryd( 2p)     0.00008
   419    H   36  py     Ryd( 2p)     0.00007
   420    H   36  pz     Ryd( 2p)     0.00041

   421    H   37  S      Val( 1S)     0.76800
   422    H   37  S      Ryd( 2S)     0.00106
   423    H   37  px     Ryd( 2p)     0.00010
   424    H   37  py     Ryd( 2p)     0.00007
   425    H   37  pz     Ryd( 2p)     0.00039

   426    H   38  S      Val( 1S)     0.77547
   427    H   38  S      Ryd( 2S)     0.00237
   428    H   38  px     Ryd( 2p)     0.00026
   429    H   38  py     Ryd( 2p)     0.00026
   430    H   38  pz     Ryd( 2p)     0.00009

   431    H   39  S      Val( 1S)     0.78883
   432    H   39  S      Ryd( 2S)     0.00187
   433    H   39  px     Ryd( 2p)     0.00018
   434    H   39  py     Ryd( 2p)     0.00025
   435    H   39  pz     Ryd( 2p)     0.00017

   436    H   40  S      Val( 1S)     0.76022
   437    H   40  S      Ryd( 2S)     0.00114
   438    H   40  px     Ryd( 2p)     0.00010
   439    H   40  py     Ryd( 2p)     0.00033
   440    H   40  pz     Ryd( 2p)     0.00014

   441    H   41  S      Val( 1S)     0.75701
   442    H   41  S      Ryd( 2S)     0.00231
   443    H   41  px     Ryd( 2p)     0.00014
   444    H   41  py     Ryd( 2p)     0.00021
   445    H   41  pz     Ryd( 2p)     0.00021

   446    H   42  S      Val( 1S)     0.77331
   447    H   42  S      Ryd( 2S)     0.00289
   448    H   42  px     Ryd( 2p)     0.00016
   449    H   42  py     Ryd( 2p)     0.00008
   450    H   42  pz     Ryd( 2p)     0.00033

   451    H   43  S      Val( 1S)     0.58244
   452    H   43  S      Ryd( 2S)     0.00203
   453    H   43  px     Ryd( 2p)     0.00036
   454    H   43  py     Ryd( 2p)     0.00039
   455    H   43  pz     Ryd( 2p)     0.00054

   456    H   44  S      Val( 1S)     0.75687
   457    H   44  S      Ryd( 2S)     0.00098
   458    H   44  px     Ryd( 2p)     0.00024
   459    H   44  py     Ryd( 2p)     0.00022
   460    H   44  pz     Ryd( 2p)     0.00013

   461    H   45  S      Val( 1S)     0.75702
   462    H   45  S      Ryd( 2S)     0.00096
   463    H   45  px     Ryd( 2p)     0.00008
   464    H   45  py     Ryd( 2p)     0.00040
   465    H   45  pz     Ryd( 2p)     0.00012

   466    H   46  S      Val( 1S)     0.75703
   467    H   46  S      Ryd( 2S)     0.00079
   468    H   46  px     Ryd( 2p)     0.00019
   469    H   46  py     Ryd( 2p)     0.00022
   470    H   46  pz     Ryd( 2p)     0.00008

   471    H   47  S      Val( 1S)     0.75438
   472    H   47  S      Ryd( 2S)     0.00093
   473    H   47  px     Ryd( 2p)     0.00012
   474    H   47  py     Ryd( 2p)     0.00020
   475    H   47  pz     Ryd( 2p)     0.00021

   476    H   48  S      Val( 1S)     0.75392
   477    H   48  S      Ryd( 2S)     0.00096
   478    H   48  px     Ryd( 2p)     0.00010
   479    H   48  py     Ryd( 2p)     0.00014
   480    H   48  pz     Ryd( 2p)     0.00030

   481    H   49  S      Val( 1S)     0.75809
   482    H   49  S      Ryd( 2S)     0.00097
   483    H   49  px     Ryd( 2p)     0.00025
   484    H   49  py     Ryd( 2p)     0.00023
   485    H   49  pz     Ryd( 2p)     0.00012

   486    H   50  S      Val( 1S)     0.75460
   487    H   50  S      Ryd( 2S)     0.00080
   488    H   50  px     Ryd( 2p)     0.00007
   489    H   50  py     Ryd( 2p)     0.00039
   490    H   50  pz     Ryd( 2p)     0.00014

   491    H   51  S      Val( 1S)     0.77166
   492    H   51  S      Ryd( 2S)     0.00117
   493    H   51  px     Ryd( 2p)     0.00016
   494    H   51  py     Ryd( 2p)     0.00029
   495    H   51  pz     Ryd( 2p)     0.00022

   496    H   52  S      Val( 1S)     0.77351
   497    H   52  S      Ryd( 2S)     0.00096
   498    H   52  px     Ryd( 2p)     0.00016
   499    H   52  py     Ryd( 2p)     0.00016
   500    H   52  pz     Ryd( 2p)     0.00034

 WARNING:  1 low occupancy (<1.9990e) core orbital  found on  C    5


 Summary of Natural Population Analysis:                  
                                                          
                                       Natural Population 
                Natural  -----------------------------------------------
    Atom  No    Charge         Core      Valence    Rydberg      Total
 -----------------------------------------------------------------------
      C    1   -0.70945      1.99939     4.70282    0.00724     6.70945
      C    2    0.05080      1.99903     3.93506    0.01510     5.94920
      C    3   -0.34431      1.99907     4.32625    0.01899     6.34431
      C    4   -0.34505      1.99907     4.32752    0.01846     6.34505
      C    5    0.17001      1.99899     3.81184    0.01916     5.82999
      N    6   -0.45253      1.99937     5.44151    0.01164     7.45253
      C    7   -0.31836      1.99930     4.30460    0.01446     6.31836
      C    8   -0.12737      1.99927     4.10831    0.01979     6.12737
      O    9   -0.60418      1.99981     6.59187    0.01251     8.60418
      C   10   -0.14648      1.99924     4.12829    0.01895     6.14648
      C   11   -0.14166      1.99924     4.12307    0.01935     6.14166
      O   12   -0.60136      1.99980     6.58850    0.01305     8.60136
      C   13   -0.11948      1.99925     4.10046    0.01977     6.11948
      C   14   -0.29417      1.99933     4.28074    0.01410     6.29417
      N   15   -0.66090      1.99942     5.64855    0.01293     7.66090
      C   16    0.16339      1.99901     3.81990    0.01770     5.83661
      C   17   -0.27921      1.99906     4.26743    0.01273     6.27921
      C   18   -0.22759      1.99905     4.21587    0.01267     6.22759
      C   19   -0.07360      1.99902     4.06048    0.01410     6.07360
      C   20   -0.70018      1.99940     4.69390    0.00688     6.70018
      C   21   -0.22688      1.99905     4.21503    0.01280     6.22688
      C   22   -0.30240      1.99905     4.29143    0.01191     6.30240
      C   23   -0.35783      1.99908     4.33846    0.02028     6.35783
      C   24   -0.35719      1.99907     4.33907    0.01906     6.35719
      H   25    0.24245      0.00000     0.75615    0.00140     0.75755
      H   26    0.25004      0.00000     0.74777    0.00219     0.74996
      H   27    0.25312      0.00000     0.74501    0.00187     0.74688
      H   28    0.22635      0.00000     0.77198    0.00166     0.77365
      H   29    0.23108      0.00000     0.76718    0.00174     0.76892
      H   30    0.43510      0.00000     0.55872    0.00618     0.56490
      H   31    0.26568      0.00000     0.73193    0.00239     0.73432
      H   32    0.25475      0.00000     0.74282    0.00243     0.74525
      H   33    0.24103      0.00000     0.75685    0.00213     0.75897
      H   34    0.22917      0.00000     0.76885    0.00198     0.77083
      H   35    0.21798      0.00000     0.77956    0.00246     0.78202
      H   36    0.23381      0.00000     0.76463    0.00156     0.76619
      H   37    0.23038      0.00000     0.76800    0.00162     0.76962
      H   38    0.22155      0.00000     0.77547    0.00298     0.77845
      H   39    0.20871      0.00000     0.78883    0.00246     0.79129
      H   40    0.23807      0.00000     0.76022    0.00171     0.76193
      H   41    0.24012      0.00000     0.75701    0.00287     0.75988
      H   42    0.22324      0.00000     0.77331    0.00346     0.77676
      H   43    0.41425      0.00000     0.58244    0.00332     0.58575
      H   44    0.24156      0.00000     0.75687    0.00157     0.75844
      H   45    0.24142      0.00000     0.75702    0.00156     0.75858
      H   46    0.24168      0.00000     0.75703    0.00129     0.75832
      H   47    0.24415      0.00000     0.75438    0.00146     0.75585
      H   48    0.24458      0.00000     0.75392    0.00150     0.75542
      H   49    0.24035      0.00000     0.75809    0.00156     0.75965
      H   50    0.24399      0.00000     0.75460    0.00141     0.75601
      H   51    0.22650      0.00000     0.77166    0.00184     0.77350
      H   52    0.22486      0.00000     0.77351    0.00163     0.77514
 =======================================================================
   * Total *    0.00000     47.98137   129.59475    0.42388   178.00000

                                 Natural Population      
 --------------------------------------------------------
   Core                      47.98137 ( 99.9612% of  48)
   Valence                  129.59475 ( 99.6883% of 130)
   Natural Minimal Basis    177.57612 ( 99.7619% of 178)
   Natural Rydberg Basis      0.42388 (  0.2381% of 178)
 --------------------------------------------------------

    Atom  No          Natural Electron Configuration
 ----------------------------------------------------------------------------
      C    1      [core]2S( 1.10)2p( 3.60)
      C    2      [core]2S( 0.89)2p( 3.04)3p( 0.01)
      C    3      [core]2S( 0.94)2p( 3.38)3p( 0.02)
      C    4      [core]2S( 0.95)2p( 3.38)3p( 0.02)
      C    5      [core]2S( 0.84)2p( 2.97)3p( 0.01)3d( 0.01)
      N    6      [core]2S( 1.29)2p( 4.15)3p( 0.01)
      C    7      [core]2S( 1.04)2p( 3.27)3p( 0.01)
      C    8      [core]2S( 1.03)2p( 3.08)3p( 0.01)3d( 0.01)
      O    9      [core]2S( 1.62)2p( 4.97)3p( 0.01)
      C   10      [core]2S( 1.03)2p( 3.09)3p( 0.01)3d( 0.01)
      C   11      [core]2S( 1.03)2p( 3.09)3p( 0.01)3d( 0.01)
      O   12      [core]2S( 1.62)2p( 4.97)3p( 0.01)
      C   13      [core]2S( 1.02)2p( 3.08)3p( 0.01)3d( 0.01)
      C   14      [core]2S( 1.03)2p( 3.25)3p( 0.01)
      N   15      [core]2S( 1.28)2p( 4.37)3p( 0.01)
      C   16      [core]2S( 0.84)2p( 2.98)3p( 0.01)
      C   17      [core]2S( 0.95)2p( 3.32)3p( 0.01)
      C   18      [core]2S( 0.95)2p( 3.26)3p( 0.01)
      C   19      [core]2S( 0.88)2p( 3.18)3p( 0.01)
      C   20      [core]2S( 1.10)2p( 3.60)
      C   21      [core]2S( 0.95)2p( 3.26)3p( 0.01)
      C   22      [core]2S( 0.95)2p( 3.34)3p( 0.01)
      C   23      [core]2S( 0.94)2p( 3.40)3p( 0.02)
      C   24      [core]2S( 0.94)2p( 3.40)3p( 0.02)
      H   25            1S( 0.76)
      H   26            1S( 0.75)
      H   27            1S( 0.75)
      H   28            1S( 0.77)
      H   29            1S( 0.77)
      H   30            1S( 0.56)
      H   31            1S( 0.73)
      H   32            1S( 0.74)
      H   33            1S( 0.76)
      H   34            1S( 0.77)
      H   35            1S( 0.78)
      H   36            1S( 0.76)
      H   37            1S( 0.77)
      H   38            1S( 0.78)
      H   39            1S( 0.79)
      H   40            1S( 0.76)
      H   41            1S( 0.76)
      H   42            1S( 0.77)
      H   43            1S( 0.58)
      H   44            1S( 0.76)
      H   45            1S( 0.76)
      H   46            1S( 0.76)
      H   47            1S( 0.75)
      H   48            1S( 0.75)
      H   49            1S( 0.76)
      H   50            1S( 0.75)
      H   51            1S( 0.77)
      H   52            1S( 0.77)


 NBO analysis skipped by request.
 1\1\GINC-DRG2-W014\SP\RB3LYP TD-FC\6-31G(d,p)\C20H28N2O2\QDUEZ\19-Jul-
 2024\0\\# TD(NStates=10, Root=1) B3LYP/6-31G** SCRF=(Solvent=water) vo
 lume pop=NPA density=current Geom=AllCheck Guess=Read\\RRZROWKVNHGBPP-
 UHFFFAOYSA-N_conf_0\\0,1\C,0,-9.0416919477,-2.3012032705,-0.1762343693
 \C,0,-7.7845493204,-1.465516961,-0.2467107556\C,0,-7.2469446938,-0.846
 8474062,0.8856398319\C,0,-6.088060519,-0.0674841891,0.8262810723\C,0,-
 5.4209701198,0.1260366228,-0.3960079404\N,0,-4.2924957931,0.935043787,
 -0.5181846601\C,0,-3.481586388,1.2805266751,0.6387759273\C,0,-2.254006
 9476,2.0645600723,0.1769199927\O,0,-1.5140742602,1.3581474516,-0.81962
 43685\C,0,-0.5812057287,0.399928207,-0.3153523561\C,0,0.7753077818,1.0
 198117787,0.0086196963\O,0,1.4037714688,1.6092477927,-1.1272230296\C,0
 ,2.111761152,0.7198184898,-1.9857745468\C,0,3.6083008005,0.6662358578,
 -1.6830178323\N,0,3.8937719651,-0.0694174408,-0.4572314487\C,0,5.19938
 51723,-0.1744496905,0.0339464358\C,0,5.4908952117,-1.1539239668,1.0069
 603269\C,0,6.7629409092,-1.2621194849,1.5541992302\C,0,7.8072946363,-0
 .4043417581,1.1685586459\C,0,9.1840129615,-0.5254033266,1.7795497058\C
 ,0,7.5125402381,0.5609132975,0.201978915\C,0,6.2402919943,0.680795063,
 -0.3653734837\C,0,-5.9559773193,-0.4991666303,-1.5427280721\C,0,-7.106
 7470291,-1.2732792328,-1.4628097863\H,0,-9.371048977,-2.4353682626,0.8
 581056143\H,0,-8.8906740267,-3.2963648464,-0.6102906074\H,0,-9.8686667
 086,-1.8371503674,-0.7278908204\H,0,-7.7385920388,-0.9771094773,1.8471
 411393\H,0,-5.7085383276,0.3868559081,1.7350299774\H,0,-3.7107694713,0
 .704726018,-1.3160234857\H,0,-4.0510164452,1.9180142142,1.3260379131\H
 ,0,-3.1760485212,0.3892505262,1.2125725666\H,0,-2.5727517012,2.9990151
 036,-0.2953655665\H,0,-1.628159046,2.3165246788,1.0421806046\H,0,-0.96
 83114344,-0.1049878729,0.580730043\H,0,-0.4755267012,-0.3599109915,-1.
 0966056006\H,0,0.6501107991,1.8315326422,0.7335755193\H,0,1.4200817832
 ,0.264211157,0.4749430193\H,0,1.6790216513,-0.2907030203,-1.9627419054
 \H,0,1.9850925153,1.0991660219,-3.0054844803\H,0,3.9596512875,1.697142
 8806,-1.5726100837\H,0,4.1290167329,0.2383172048,-2.5574811776\H,0,3.3
 911501458,-0.9478646628,-0.4037940797\H,0,4.7032847817,-1.830554115,1.
 330437353\H,0,6.950641953,-2.0324048923,2.2990122322\H,0,9.8941902845,
 0.1496744711,1.2936452267\H,0,9.5774323446,-1.5446147851,1.6904205677\
 H,0,9.1752800387,-0.2813965119,2.8489898431\H,0,8.2958920251,1.2386184
 207,-0.129800108\H,0,6.0707487612,1.4394873565,-1.1208595099\H,0,-5.45
 5635485,-0.3691059485,-2.4996171015\H,0,-7.4878204447,-1.7429125874,-2
 .3671023673\\Version=ES64L-G16RevA.03\State=1-A\HF=-1038.9697641\RMSD=
 7.260e-09\Dipole=1.733412,-0.1347677,0.449079\Quadrupole=-23.9348854,1
 0.258676,13.6762093,-6.7088485,-7.0948739,1.5490986\PG=C01 [X(C20H28N2
 O2)]\\@


 WE HAVE LEARNED THAT NOTHING IS SIMPLE AND
 RATIONAL EXCEPT WHAT WE OURSELVES HAVE INVENTED;
 THAT GOD THINKS IN TERMS NEITHER OF EUCLID OR RIEMANN; THAT SCIENCE HAS "EXPLAINED" NOTHING;
 THAT THE MORE WE KNOW THE MORE FANTASTIC THE WORLD BECOMES
 AND THE PROFOUNDER THE SURROUNDING DARKNESS.
   --  ALDOUS HUXLEY
 Job cpu time:       0 days  1 hours 50 minutes 25.0 seconds.
 Elapsed time:       0 days  0 hours 51 minutes  9.8 seconds.
 File lengths (MBytes):  RWF=   1992 Int=      0 D2E=      0 Chk=    122 Scr=      1
 Normal termination of Gaussian 16 at Fri Jul 19 17:49:46 2024.
