 Entering Gaussian System, Link 0=g16
 Initial command:
 /opt/sw/arch/manual/gaussian/G16_A03/g16/l1.exe "/scratch/1380802/Gau-172751.inp" -scrdir="/scratch/1380802/"
 Entering Link 1 = /opt/sw/arch/manual/gaussian/G16_A03/g16/l1.exe PID=    172752.
  
 Copyright (c) 1988,1990,1992,1993,1995,1998,2003,2009,2016,
            Gaussian, Inc.  All Rights Reserved.
  
 This is part of the Gaussian(R) 16 program.  It is based on
 the Gaussian(R) 09 system (copyright 2009, Gaussian, Inc.),
 the Gaussian(R) 03 system (copyright 2003, Gaussian, Inc.),
 the Gaussian(R) 98 system (copyright 1998, Gaussian, Inc.),
 the Gaussian(R) 94 system (copyright 1995, Gaussian, Inc.),
 the Gaussian 92(TM) system (copyright 1992, Gaussian, Inc.),
 the Gaussian 90(TM) system (copyright 1990, Gaussian, Inc.),
 the Gaussian 88(TM) system (copyright 1988, Gaussian, Inc.),
 the Gaussian 86(TM) system (copyright 1986, Carnegie Mellon
 University), and the Gaussian 82(TM) system (copyright 1983,
 Carnegie Mellon University). Gaussian is a federally registered
 trademark of Gaussian, Inc.
  
 This software contains proprietary and confidential information,
 including trade secrets, belonging to Gaussian, Inc.
  
 This software is provided under written license and may be
 used, copied, transmitted, or stored only in accord with that
 written license.
  
 The following legend is applicable only to US Government
 contracts under FAR:
  
                    RESTRICTED RIGHTS LEGEND
  
 Use, reproduction and disclosure by the US Government is
 subject to restrictions as set forth in subparagraphs (a)
 and (c) of the Commercial Computer Software - Restricted
 Rights clause in FAR 52.227-19.
  
 Gaussian, Inc.
 340 Quinnipiac St., Bldg. 40, Wallingford CT 06492
  
  
 ---------------------------------------------------------------
 Warning -- This program may not be used in any manner that
 competes with the business of Gaussian, Inc. or will provide
 assistance to any competitor of Gaussian, Inc.  The licensee
 of this program is prohibited from giving any competitor of
 Gaussian, Inc. access to this program.  By using this program,
 the user acknowledges that Gaussian, Inc. is engaged in the
 business of creating and licensing software in the field of
 computational chemistry and represents and warrants to the
 licensee that it is not a competitor of Gaussian, Inc. and that
 it will not use this program in any manner prohibited above.
 ---------------------------------------------------------------
  

 Cite this work as:
 Gaussian 16, Revision A.03,
 M. J. Frisch, G. W. Trucks, H. B. Schlegel, G. E. Scuseria, 
 M. A. Robb, J. R. Cheeseman, G. Scalmani, V. Barone, 
 G. A. Petersson, H. Nakatsuji, X. Li, M. Caricato, A. V. Marenich, 
 J. Bloino, B. G. Janesko, R. Gomperts, B. Mennucci, H. P. Hratchian, 
 J. V. Ortiz, A. F. Izmaylov, J. L. Sonnenberg, D. Williams-Young, 
 F. Ding, F. Lipparini, F. Egidi, J. Goings, B. Peng, A. Petrone, 
 T. Henderson, D. Ranasinghe, V. G. Zakrzewski, J. Gao, N. Rega, 
 G. Zheng, W. Liang, M. Hada, M. Ehara, K. Toyota, R. Fukuda, 
 J. Hasegawa, M. Ishida, T. Nakajima, Y. Honda, O. Kitao, H. Nakai, 
 T. Vreven, K. Throssell, J. A. Montgomery, Jr., J. E. Peralta, 
 F. Ogliaro, M. J. Bearpark, J. J. Heyd, E. N. Brothers, K. N. Kudin, 
 V. N. Staroverov, T. A. Keith, R. Kobayashi, J. Normand, 
 K. Raghavachari, A. P. Rendell, J. C. Burant, S. S. Iyengar, 
 J. Tomasi, M. Cossi, J. M. Millam, M. Klene, C. Adamo, R. Cammi, 
 J. W. Ochterski, R. L. Martin, K. Morokuma, O. Farkas, 
 J. B. Foresman, and D. J. Fox, Gaussian, Inc., Wallingford CT, 2016.
 
 ******************************************
 Gaussian 16:  ES64L-G16RevA.03 25-Dec-2016
                17-Jul-2024 
 ******************************************
 %nprocshared=6
 Will use up to    6 processors via shared memory.
 %mem=12GB
 %Chk=DKKYOQYISDAQER-UHFFFAOYSA-N_conf_1_0.chk
 -------------------------------------------------------
 # opt=CalcFc B3LYP/6-31G** SCRF=(Solvent=water) scf=xqc
 -------------------------------------------------------
 1/10=4,18=20,19=15,26=3,38=1/1,3;
 2/9=110,12=2,17=6,18=5,40=1/2;
 3/5=1,6=6,7=101,11=2,25=1,30=1,70=2201,71=2,72=1,74=-5,140=1/1,2,3;
 4//1;
 5/5=2,8=3,13=1,38=5,53=1/2,8;
 8/6=4,10=90,11=11/1;
 11/6=1,8=1,9=11,15=111,16=1/1,2,10;
 10/6=1,13=1/2;
 6/7=2,8=2,9=2,10=2,28=1/1;
 7/10=1,18=20,25=1/1,2,3,16;
 1/10=4,18=20,19=15,26=3/3(2);
 2/9=110/2;
 99//99;
 2/9=110/2;
 3/5=1,6=6,7=101,11=2,25=1,30=1,70=2205,71=1,72=1,74=-5/1,2,3;
 4/5=5,16=3,69=1/1;
 5/5=2,8=3,13=1,38=5,53=1/2,8;
 7//1,2,3,16;
 1/18=20,19=15,26=3/3(-5);
 2/9=110/2;
 6/7=2,8=2,9=2,10=2,19=2,28=1/1;
 99/9=1/99;
 ----------------------------------
 DKKYOQYISDAQER-UHFFFAOYSA-N_conf_1
 ----------------------------------
 Symbolic Z-matrix:
 Charge =  0 Multiplicity = 1
 N                     6.7172    2.07569  -0.21668 
 C                     5.76209   1.05286  -0.16031 
 C                     4.4824    1.25413  -0.68273 
 C                     3.48746   0.28858  -0.5112 
 O                     2.26974   0.53043  -1.10636 
 C                     1.14467   0.34644  -0.33407 
 C                     0.07587  -0.32596  -0.9257 
 C                    -1.10806  -0.5038   -0.21072 
 O                    -2.1104   -1.21508  -0.83156 
 C                    -3.38878  -0.71255  -0.73806 
 C                    -3.69577   0.61458  -1.04093 
 C                    -5.01224   1.05579  -0.92768 
 C                    -6.01793   0.16277  -0.54704 
 C                    -5.73075  -1.18757  -0.32483 
 N                    -6.72362  -2.04818   0.16006 
 C                    -4.40001  -1.60819  -0.38188 
 C                    -1.21763  -0.03194   1.10092 
 C                    -0.15379   0.66073   1.68109 
 C                     1.02464   0.86104   0.96047 
 C                     3.7598   -0.88958   0.18523 
 C                     5.01562  -1.07018   0.76046 
 C                     6.0012   -0.09083   0.60784 
 H                     6.60649   2.69448  -1.01414 
 H                     7.6729    1.74936  -0.11304 
 H                     4.24734   2.16586  -1.22392 
 H                     0.16503  -0.70904  -1.93779 
 H                    -2.91843   1.30778  -1.34919 
 H                    -5.25642   2.09572  -1.12711 
 H                    -7.03423   0.53093  -0.43319 
 H                    -6.52818  -3.03099  -0.00419 
 H                    -7.66338  -1.79029  -0.12442 
 H                    -4.13812  -2.63528  -0.14546 
 H                    -2.1256   -0.19778   1.67483 
 H                    -0.24305   1.04421   2.69423 
 H                     1.84212   1.41566   1.41369 
 H                     2.99998  -1.65801   0.29477 
 H                     5.22679  -1.96825   1.33468 
 H                     6.96503  -0.23357   1.08952 
 

 GradGradGradGradGradGradGradGradGradGradGradGradGradGradGradGradGradGrad
 Berny optimization.
 Initialization pass.
                           ----------------------------
                           !    Initial Parameters    !
                           ! (Angstroms and Degrees)  !
 --------------------------                            --------------------------
 ! Name  Definition              Value          Derivative Info.                !
 --------------------------------------------------------------------------------
 ! R1    R(1,2)                  1.4006         calculate D2E/DX2 analytically  !
 ! R2    R(1,23)                 1.0154         calculate D2E/DX2 analytically  !
 ! R3    R(1,24)                 1.0152         calculate D2E/DX2 analytically  !
 ! R4    R(2,3)                  1.3968         calculate D2E/DX2 analytically  !
 ! R5    R(2,22)                 1.3983         calculate D2E/DX2 analytically  !
 ! R6    R(3,4)                  1.397          calculate D2E/DX2 analytically  !
 ! R7    R(3,25)                 1.086          calculate D2E/DX2 analytically  !
 ! R8    R(4,5)                  1.3768         calculate D2E/DX2 analytically  !
 ! R9    R(4,20)                 1.3954         calculate D2E/DX2 analytically  !
 ! R10   R(5,6)                  1.377          calculate D2E/DX2 analytically  !
 ! R11   R(6,7)                  1.3945         calculate D2E/DX2 analytically  !
 ! R12   R(6,19)                 1.3982         calculate D2E/DX2 analytically  !
 ! R13   R(7,8)                  1.3945         calculate D2E/DX2 analytically  !
 ! R14   R(7,26)                 1.0858         calculate D2E/DX2 analytically  !
 ! R15   R(8,9)                  1.377          calculate D2E/DX2 analytically  !
 ! R16   R(8,17)                 1.3982         calculate D2E/DX2 analytically  !
 ! R17   R(9,10)                 1.3768         calculate D2E/DX2 analytically  !
 ! R18   R(10,11)                1.3954         calculate D2E/DX2 analytically  !
 ! R19   R(10,16)                1.397          calculate D2E/DX2 analytically  !
 ! R20   R(11,12)                1.393          calculate D2E/DX2 analytically  !
 ! R21   R(11,27)                1.0862         calculate D2E/DX2 analytically  !
 ! R22   R(12,13)                1.3978         calculate D2E/DX2 analytically  !
 ! R23   R(12,28)                1.0867         calculate D2E/DX2 analytically  !
 ! R24   R(13,14)                1.3983         calculate D2E/DX2 analytically  !
 ! R25   R(13,29)                1.0869         calculate D2E/DX2 analytically  !
 ! R26   R(14,15)                1.4006         calculate D2E/DX2 analytically  !
 ! R27   R(14,16)                1.3968         calculate D2E/DX2 analytically  !
 ! R28   R(15,30)                1.0154         calculate D2E/DX2 analytically  !
 ! R29   R(15,31)                1.0152         calculate D2E/DX2 analytically  !
 ! R30   R(16,32)                1.086          calculate D2E/DX2 analytically  !
 ! R31   R(17,18)                1.3957         calculate D2E/DX2 analytically  !
 ! R32   R(17,33)                1.0869         calculate D2E/DX2 analytically  !
 ! R33   R(18,19)                1.3957         calculate D2E/DX2 analytically  !
 ! R34   R(18,34)                1.087          calculate D2E/DX2 analytically  !
 ! R35   R(19,35)                1.0869         calculate D2E/DX2 analytically  !
 ! R36   R(20,21)                1.393          calculate D2E/DX2 analytically  !
 ! R37   R(20,36)                1.0862         calculate D2E/DX2 analytically  !
 ! R38   R(21,22)                1.3978         calculate D2E/DX2 analytically  !
 ! R39   R(21,37)                1.0867         calculate D2E/DX2 analytically  !
 ! R40   R(22,38)                1.0869         calculate D2E/DX2 analytically  !
 ! A1    A(2,1,23)             113.7213         calculate D2E/DX2 analytically  !
 ! A2    A(2,1,24)             113.7738         calculate D2E/DX2 analytically  !
 ! A3    A(23,1,24)            112.2537         calculate D2E/DX2 analytically  !
 ! A4    A(1,2,3)              120.2973         calculate D2E/DX2 analytically  !
 ! A5    A(1,2,22)             120.1866         calculate D2E/DX2 analytically  !
 ! A6    A(3,2,22)             118.6839         calculate D2E/DX2 analytically  !
 ! A7    A(2,3,4)              120.4623         calculate D2E/DX2 analytically  !
 ! A8    A(2,3,25)             120.3747         calculate D2E/DX2 analytically  !
 ! A9    A(4,3,25)             119.1624         calculate D2E/DX2 analytically  !
 ! A10   A(3,4,5)              117.0918         calculate D2E/DX2 analytically  !
 ! A11   A(3,4,20)             120.3862         calculate D2E/DX2 analytically  !
 ! A12   A(5,4,20)             122.4574         calculate D2E/DX2 analytically  !
 ! A13   A(4,5,6)              117.1768         calculate D2E/DX2 analytically  !
 ! A14   A(5,6,7)              116.9187         calculate D2E/DX2 analytically  !
 ! A15   A(5,6,19)             122.6994         calculate D2E/DX2 analytically  !
 ! A16   A(7,6,19)             120.2965         calculate D2E/DX2 analytically  !
 ! A17   A(6,7,8)              119.6503         calculate D2E/DX2 analytically  !
 ! A18   A(6,7,26)             120.1749         calculate D2E/DX2 analytically  !
 ! A19   A(8,7,26)             120.1749         calculate D2E/DX2 analytically  !
 ! A20   A(7,8,9)              116.9187         calculate D2E/DX2 analytically  !
 ! A21   A(7,8,17)             120.2965         calculate D2E/DX2 analytically  !
 ! A22   A(9,8,17)             122.6994         calculate D2E/DX2 analytically  !
 ! A23   A(8,9,10)             117.1767         calculate D2E/DX2 analytically  !
 ! A24   A(9,10,11)            122.4575         calculate D2E/DX2 analytically  !
 ! A25   A(9,10,16)            117.0918         calculate D2E/DX2 analytically  !
 ! A26   A(11,10,16)           120.3861         calculate D2E/DX2 analytically  !
 ! A27   A(10,11,12)           119.4378         calculate D2E/DX2 analytically  !
 ! A28   A(10,11,27)           120.7372         calculate D2E/DX2 analytically  !
 ! A29   A(12,11,27)           119.8192         calculate D2E/DX2 analytically  !
 ! A30   A(11,12,13)           119.9819         calculate D2E/DX2 analytically  !
 ! A31   A(11,12,28)           120.0349         calculate D2E/DX2 analytically  !
 ! A32   A(13,12,28)           119.9813         calculate D2E/DX2 analytically  !
 ! A33   A(12,13,14)           120.829          calculate D2E/DX2 analytically  !
 ! A34   A(12,13,29)           119.004          calculate D2E/DX2 analytically  !
 ! A35   A(14,13,29)           120.165          calculate D2E/DX2 analytically  !
 ! A36   A(13,14,15)           120.1867         calculate D2E/DX2 analytically  !
 ! A37   A(13,14,16)           118.6838         calculate D2E/DX2 analytically  !
 ! A38   A(15,14,16)           120.2974         calculate D2E/DX2 analytically  !
 ! A39   A(14,15,30)           113.7217         calculate D2E/DX2 analytically  !
 ! A40   A(14,15,31)           113.774          calculate D2E/DX2 analytically  !
 ! A41   A(30,15,31)           112.2539         calculate D2E/DX2 analytically  !
 ! A42   A(10,16,14)           120.4624         calculate D2E/DX2 analytically  !
 ! A43   A(10,16,32)           119.1623         calculate D2E/DX2 analytically  !
 ! A44   A(14,16,32)           120.3747         calculate D2E/DX2 analytically  !
 ! A45   A(8,17,18)            119.846          calculate D2E/DX2 analytically  !
 ! A46   A(8,17,33)            120.6176         calculate D2E/DX2 analytically  !
 ! A47   A(18,17,33)           119.5364         calculate D2E/DX2 analytically  !
 ! A48   A(17,18,19)           120.0091         calculate D2E/DX2 analytically  !
 ! A49   A(17,18,34)           119.9954         calculate D2E/DX2 analytically  !
 ! A50   A(19,18,34)           119.9955         calculate D2E/DX2 analytically  !
 ! A51   A(6,19,18)            119.846          calculate D2E/DX2 analytically  !
 ! A52   A(6,19,35)            120.6177         calculate D2E/DX2 analytically  !
 ! A53   A(18,19,35)           119.5363         calculate D2E/DX2 analytically  !
 ! A54   A(4,20,21)            119.4377         calculate D2E/DX2 analytically  !
 ! A55   A(4,20,36)            120.7372         calculate D2E/DX2 analytically  !
 ! A56   A(21,20,36)           119.8193         calculate D2E/DX2 analytically  !
 ! A57   A(20,21,22)           119.9819         calculate D2E/DX2 analytically  !
 ! A58   A(20,21,37)           120.0349         calculate D2E/DX2 analytically  !
 ! A59   A(22,21,37)           119.9812         calculate D2E/DX2 analytically  !
 ! A60   A(2,22,21)            120.829          calculate D2E/DX2 analytically  !
 ! A61   A(2,22,38)            120.165          calculate D2E/DX2 analytically  !
 ! A62   A(21,22,38)           119.004          calculate D2E/DX2 analytically  !
 ! D1    D(23,1,2,3)           -30.0283         calculate D2E/DX2 analytically  !
 ! D2    D(23,1,2,22)          160.5528         calculate D2E/DX2 analytically  !
 ! D3    D(24,1,2,3)          -160.2372         calculate D2E/DX2 analytically  !
 ! D4    D(24,1,2,22)           30.3439         calculate D2E/DX2 analytically  !
 ! D5    D(1,2,3,4)           -173.6088         calculate D2E/DX2 analytically  !
 ! D6    D(1,2,3,25)             6.1225         calculate D2E/DX2 analytically  !
 ! D7    D(22,2,3,4)            -4.0327         calculate D2E/DX2 analytically  !
 ! D8    D(22,2,3,25)          175.6986         calculate D2E/DX2 analytically  !
 ! D9    D(1,2,22,21)          174.8286         calculate D2E/DX2 analytically  !
 ! D10   D(1,2,22,38)           -5.6934         calculate D2E/DX2 analytically  !
 ! D11   D(3,2,22,21)            5.2406         calculate D2E/DX2 analytically  !
 ! D12   D(3,2,22,38)         -175.2814         calculate D2E/DX2 analytically  !
 ! D13   D(2,3,4,5)           -177.1203         calculate D2E/DX2 analytically  !
 ! D14   D(2,3,4,20)             0.0287         calculate D2E/DX2 analytically  !
 ! D15   D(25,3,4,5)             3.1451         calculate D2E/DX2 analytically  !
 ! D16   D(25,3,4,20)         -179.7059         calculate D2E/DX2 analytically  !
 ! D17   D(3,4,5,6)           -132.5051         calculate D2E/DX2 analytically  !
 ! D18   D(20,4,5,6)            50.4096         calculate D2E/DX2 analytically  !
 ! D19   D(3,4,20,21)            2.8464         calculate D2E/DX2 analytically  !
 ! D20   D(3,4,20,36)         -178.038          calculate D2E/DX2 analytically  !
 ! D21   D(5,4,20,21)          179.8381         calculate D2E/DX2 analytically  !
 ! D22   D(5,4,20,36)           -1.0463         calculate D2E/DX2 analytically  !
 ! D23   D(4,5,6,7)           -135.9218         calculate D2E/DX2 analytically  !
 ! D24   D(4,5,6,19)            47.4344         calculate D2E/DX2 analytically  !
 ! D25   D(5,6,7,8)           -177.8395         calculate D2E/DX2 analytically  !
 ! D26   D(5,6,7,26)             2.1601         calculate D2E/DX2 analytically  !
 ! D27   D(19,6,7,8)            -1.1104         calculate D2E/DX2 analytically  !
 ! D28   D(19,6,7,26)          178.8892         calculate D2E/DX2 analytically  !
 ! D29   D(5,6,19,18)          178.7523         calculate D2E/DX2 analytically  !
 ! D30   D(5,6,19,35)           -1.3472         calculate D2E/DX2 analytically  !
 ! D31   D(7,6,19,18)            2.2183         calculate D2E/DX2 analytically  !
 ! D32   D(7,6,19,35)         -177.8812         calculate D2E/DX2 analytically  !
 ! D33   D(6,7,8,9)           -177.8403         calculate D2E/DX2 analytically  !
 ! D34   D(6,7,8,17)            -1.1108         calculate D2E/DX2 analytically  !
 ! D35   D(26,7,8,9)             2.16           calculate D2E/DX2 analytically  !
 ! D36   D(26,7,8,17)          178.8896         calculate D2E/DX2 analytically  !
 ! D37   D(7,8,9,10)          -135.9211         calculate D2E/DX2 analytically  !
 ! D38   D(17,8,9,10)           47.4346         calculate D2E/DX2 analytically  !
 ! D39   D(7,8,17,18)            2.2185         calculate D2E/DX2 analytically  !
 ! D40   D(7,8,17,33)         -177.8813         calculate D2E/DX2 analytically  !
 ! D41   D(9,8,17,18)          178.753          calculate D2E/DX2 analytically  !
 ! D42   D(9,8,17,33)           -1.3469         calculate D2E/DX2 analytically  !
 ! D43   D(8,9,10,11)           50.4087         calculate D2E/DX2 analytically  !
 ! D44   D(8,9,10,16)         -132.5061         calculate D2E/DX2 analytically  !
 ! D45   D(9,10,11,12)         179.838          calculate D2E/DX2 analytically  !
 ! D46   D(9,10,11,27)          -1.046          calculate D2E/DX2 analytically  !
 ! D47   D(16,10,11,12)          2.8463         calculate D2E/DX2 analytically  !
 ! D48   D(16,10,11,27)       -178.0377         calculate D2E/DX2 analytically  !
 ! D49   D(9,10,16,14)        -177.1206         calculate D2E/DX2 analytically  !
 ! D50   D(9,10,16,32)           3.1447         calculate D2E/DX2 analytically  !
 ! D51   D(11,10,16,14)          0.0283         calculate D2E/DX2 analytically  !
 ! D52   D(11,10,16,32)       -179.7064         calculate D2E/DX2 analytically  !
 ! D53   D(10,11,12,13)         -1.6547         calculate D2E/DX2 analytically  !
 ! D54   D(10,11,12,28)        177.8394         calculate D2E/DX2 analytically  !
 ! D55   D(27,11,12,13)        179.221          calculate D2E/DX2 analytically  !
 ! D56   D(27,11,12,28)         -1.2849         calculate D2E/DX2 analytically  !
 ! D57   D(11,12,13,14)         -2.4266         calculate D2E/DX2 analytically  !
 ! D58   D(11,12,13,29)        178.0892         calculate D2E/DX2 analytically  !
 ! D59   D(28,12,13,14)        178.0791         calculate D2E/DX2 analytically  !
 ! D60   D(28,12,13,29)         -1.4052         calculate D2E/DX2 analytically  !
 ! D61   D(12,13,14,15)        174.8285         calculate D2E/DX2 analytically  !
 ! D62   D(12,13,14,16)          5.2402         calculate D2E/DX2 analytically  !
 ! D63   D(29,13,14,15)         -5.6932         calculate D2E/DX2 analytically  !
 ! D64   D(29,13,14,16)       -175.2815         calculate D2E/DX2 analytically  !
 ! D65   D(13,14,15,30)        160.5543         calculate D2E/DX2 analytically  !
 ! D66   D(13,14,15,31)         30.3445         calculate D2E/DX2 analytically  !
 ! D67   D(16,14,15,30)        -30.0265         calculate D2E/DX2 analytically  !
 ! D68   D(16,14,15,31)       -160.2363         calculate D2E/DX2 analytically  !
 ! D69   D(13,14,16,10)         -4.0321         calculate D2E/DX2 analytically  !
 ! D70   D(13,14,16,32)        175.6993         calculate D2E/DX2 analytically  !
 ! D71   D(15,14,16,10)       -173.6085         calculate D2E/DX2 analytically  !
 ! D72   D(15,14,16,32)          6.1229         calculate D2E/DX2 analytically  !
 ! D73   D(8,17,18,19)          -1.1025         calculate D2E/DX2 analytically  !
 ! D74   D(8,17,18,34)         178.8973         calculate D2E/DX2 analytically  !
 ! D75   D(33,17,18,19)        178.9962         calculate D2E/DX2 analytically  !
 ! D76   D(33,17,18,34)         -1.004          calculate D2E/DX2 analytically  !
 ! D77   D(17,18,19,6)          -1.1025         calculate D2E/DX2 analytically  !
 ! D78   D(17,18,19,35)        178.9959         calculate D2E/DX2 analytically  !
 ! D79   D(34,18,19,6)         178.8977         calculate D2E/DX2 analytically  !
 ! D80   D(34,18,19,35)         -1.0039         calculate D2E/DX2 analytically  !
 ! D81   D(4,20,21,22)          -1.6549         calculate D2E/DX2 analytically  !
 ! D82   D(4,20,21,37)         177.8393         calculate D2E/DX2 analytically  !
 ! D83   D(36,20,21,22)        179.2213         calculate D2E/DX2 analytically  !
 ! D84   D(36,20,21,37)         -1.2845         calculate D2E/DX2 analytically  !
 ! D85   D(20,21,22,2)          -2.4266         calculate D2E/DX2 analytically  !
 ! D86   D(20,21,22,38)        178.0895         calculate D2E/DX2 analytically  !
 ! D87   D(37,21,22,2)         178.0789         calculate D2E/DX2 analytically  !
 ! D88   D(37,21,22,38)         -1.405          calculate D2E/DX2 analytically  !
 --------------------------------------------------------------------------------
 Trust Radius=3.00D-01 FncErr=1.00D-07 GrdErr=1.00D-06 EigMax=2.50D+02 EigMin=1.00D-04
 Number of steps in this run=    200 maximum allowed number of steps=    228.
 GradGradGradGradGradGradGradGradGradGradGradGradGradGradGradGradGradGrad

                          Input orientation:                          
 ---------------------------------------------------------------------
 Center     Atomic      Atomic             Coordinates (Angstroms)
 Number     Number       Type             X           Y           Z
 ---------------------------------------------------------------------
      1          7           0        6.717199    2.075688   -0.216682
      2          6           0        5.762094    1.052863   -0.160313
      3          6           0        4.482403    1.254133   -0.682727
      4          6           0        3.487462    0.288577   -0.511197
      5          8           0        2.269745    0.530432   -1.106359
      6          6           0        1.144674    0.346444   -0.334074
      7          6           0        0.075866   -0.325960   -0.925704
      8          6           0       -1.108057   -0.503797   -0.210717
      9          8           0       -2.110399   -1.215081   -0.831560
     10          6           0       -3.388781   -0.712545   -0.738063
     11          6           0       -3.695774    0.614583   -1.040931
     12          6           0       -5.012244    1.055793   -0.927680
     13          6           0       -6.017929    0.162773   -0.547042
     14          6           0       -5.730747   -1.187571   -0.324830
     15          7           0       -6.723621   -2.048181    0.160064
     16          6           0       -4.400008   -1.608190   -0.381879
     17          6           0       -1.217625   -0.031936    1.100923
     18          6           0       -0.153793    0.660729    1.681086
     19          6           0        1.024638    0.861040    0.960468
     20          6           0        3.759804   -0.889585    0.185229
     21          6           0        5.015622   -1.070179    0.760461
     22          6           0        6.001200   -0.090835    0.607842
     23          1           0        6.606486    2.694476   -1.014138
     24          1           0        7.672899    1.749360   -0.113038
     25          1           0        4.247343    2.165865   -1.223925
     26          1           0        0.165029   -0.709038   -1.937789
     27          1           0       -2.918430    1.307775   -1.349189
     28          1           0       -5.256417    2.095723   -1.127113
     29          1           0       -7.034226    0.530931   -0.433188
     30          1           0       -6.528185   -3.030993   -0.004188
     31          1           0       -7.663385   -1.790292   -0.124422
     32          1           0       -4.138115   -2.635281   -0.145457
     33          1           0       -2.125603   -0.197778    1.674832
     34          1           0       -0.243052    1.044213    2.694228
     35          1           0        1.842122    1.415663    1.413691
     36          1           0        2.999980   -1.658006    0.294767
     37          1           0        5.226795   -1.968248    1.334680
     38          1           0        6.965034   -0.233566    1.089520
 ---------------------------------------------------------------------
                    Distance matrix (angstroms):
                    1          2          3          4          5
     1  N    0.000000
     2  C    1.400562   0.000000
     3  C    2.426204   1.396795   0.000000
     4  C    3.702932   2.425120   1.397007   0.000000
     5  O    4.791575   3.655741   2.366234   1.376788   0.000000
     6  C    5.835846   4.674376   3.476477   2.350186   1.376976
     7  C    7.097742   5.900862   4.687569   3.491197   2.362023
     8  C    8.239442   7.044480   5.879315   4.673000   3.644359
     9  O    9.441066   8.220115   7.041605   5.805141   4.723134
    10  C   10.496519   9.337503   8.113348   6.952440   5.805131
    11  C   10.547238   9.508882   8.210963   7.210116   5.966471
    12  C   11.795149  10.801630   9.499877   8.544418   7.303102
    13  C   12.882231  11.819931  10.557767   9.506291   8.314659
    14  C   12.869029  11.710337  10.507066   9.337511   8.220109
    15  N   14.064276  12.869040  11.712837  10.496534   9.441065
    16  C   11.712837  10.507075   9.337057   8.113361   7.041604
    17  C    8.315022   7.175234   6.109476   4.983924   4.165345
    18  C    7.267336   6.208240   5.237753   4.266537   3.695993
    19  C    5.938544   4.872005   3.848474   2.925579   2.435440
    20  C    4.207204   2.810991   2.423020   1.395437   2.430005
    21  C    3.707648   2.431533   2.787390   2.408029   3.686030
    22  C    2.426173   1.398313   2.404424   2.777604   4.153097
    23  H    1.015427   2.033939   2.587692   3.971097   4.847567
    24  H    1.015182   2.034335   3.278577   4.450877   5.627304
    25  H    2.668869   2.159749   1.086003   2.147000   2.568921
    26  H    7.324468   6.131138   4.906010   3.750861   2.580192
    27  H    9.732297   8.765267   7.430974   6.540370   5.251703
    28  H   12.008196  11.109899   9.785212   8.949891   7.687242
    29  H   13.839611  12.809866  11.542011  10.524767   9.328292
    30  H   14.197307  12.951958  11.834516  10.563606   9.555213
    31  H   14.891458  13.723276  12.533969  11.349567  10.247782
    32  H   11.833687  10.564884   9.472568   8.175093   7.211501
    33  H    9.324249   8.194366   7.164627   6.043324   5.252086
    34  H    7.614620   6.649080   5.811869   4.976190   4.585039
    35  H    5.182676   4.239728   3.375225   2.771761   2.705023
    36  H    5.293370   3.896817   3.410810   2.162499   2.699196
    37  H    4.580551   3.413013   3.873989   3.394967   4.576704
    38  H    2.664627   2.159640   3.393754   3.863734   5.239401
                    6          7          8          9         10
     6  C    0.000000
     7  C    1.394455   0.000000
     8  C    2.411000   1.394455   0.000000
     9  O    3.644359   2.362023   1.376976   0.000000
    10  C    4.672994   3.491193   2.350185   1.376787   0.000000
    11  C    4.899131   3.888851   2.938760   2.430004   1.395436
    12  C    6.226009   5.272391   4.264861   3.686030   2.408030
    13  C    7.168122   6.125078   4.966314   4.153098   2.777606
    14  C    7.044479   5.900862   4.674380   3.655742   2.425122
    15  N    8.239446   7.097743   5.835851   4.791575   3.702933
    16  C    5.879318   4.687569   3.476482   2.366233   1.397007
    17  C    2.789774   2.422145   1.398233   2.435440   2.925579
    18  C    2.417780   2.796723   2.417780   3.695993   4.266534
    19  C    1.398233   2.422145   2.789774   4.165346   4.983918
    20  C    2.938766   3.888861   4.899150   5.966497   7.210136
    21  C    4.264864   5.272400   6.226027   7.303130   8.544440
    22  C    4.966313   6.125082   7.168131   8.314677   9.506299
    23  H    5.983906   7.195822   8.389791   9.555211  10.563586
    24  H    6.680925   7.917216   9.065950  10.247786  11.349555
    25  H    3.705224   4.868198   6.069101   7.211493   8.175065
    26  H    2.155377   1.085824   2.155377   2.580193   3.750855
    27  H    4.296910   3.437185   2.802743   2.699196   2.162498
    28  H    6.683028   5.859894   4.980580   4.576703   3.394967
    29  H    8.181580   7.178456   6.019936   5.239401   3.863736
    30  H    8.389795   7.195824   5.983909   4.847567   3.971100
    31  H    9.065953   7.917217   6.680931   5.627305   4.450880
    32  H    6.069112   4.868202   3.705232   2.568918   2.146998
    33  H    3.876415   3.409646   2.164335   2.705021   2.771762
    34  H    3.403421   3.883683   3.403420   4.585038   4.976186
    35  H    2.164334   3.409646   3.876414   5.252085   6.043315
    36  H    2.802752   3.437199   4.296938   5.251740   6.540405
    37  H    4.980587   5.859907   6.683054   7.687280   8.949927
    38  H    6.019936   7.178461   8.181591   9.328312  10.524778
                   11         12         13         14         15
    11  C    0.000000
    12  C    1.393049   0.000000
    13  C    2.416705   1.397775   0.000000
    14  C    2.810991   2.431534   1.398313   0.000000
    15  N    4.207203   3.707648   2.426173   1.400561   0.000000
    16  C    2.423017   2.787389   2.404424   1.396796   2.426205
    17  C    3.338674   4.438188   5.079037   4.872015   5.938556
    18  C    4.467341   5.528678   6.292901   6.208246   7.267348
    19  C    5.133091   6.328268   7.235877   7.175236   8.315031
    20  C    7.704000   9.053832   9.861427   9.508917  10.547282
    21  C    9.053831  10.388824  11.178952  10.801670  11.795201
    22  C    9.861408  11.178932  12.077149  11.819952  12.882266
    23  H   10.510149  11.734037  12.884236  12.951939  14.197298
    24  H   11.462785  12.730182  13.789286  13.723270  14.891464
    25  H    8.095250   9.330593  10.480761  10.564855  11.833666
    26  H    4.178771   5.562293   6.397125   6.131134   7.324465
    27  H    1.086187   2.150633   3.400201   3.896818   5.293370
    28  H    2.153326   1.086668   2.157007   3.413014   4.580552
    29  H    3.394350   2.146721   1.086905   2.159641   2.664628
    30  H    4.731555   4.455641   3.279511   2.033943   1.015427
    31  H    4.729202   3.971646   2.588551   2.034337   1.015183
    32  H    3.399876   3.872984   3.394713   2.159749   2.668870
    33  H    3.240484   4.083773   4.496323   4.239740   5.182691
    34  H    5.104633   5.988617   6.680716   6.649087   7.614634
    35  H    6.110253   7.252162   8.197232   8.194365   9.324256
    36  H    7.195962   8.547211   9.238320   8.765318   9.732358
    37  H    9.587845  10.913341  11.598532  11.109957  12.008270
    38  H   10.904632  12.214202  13.091706  12.809893  13.839653
                   16         17         18         19         20
    16  C    0.000000
    17  C    3.848485   0.000000
    18  C    5.237763   1.395748   0.000000
    19  C    6.109483   2.417618   1.395749   0.000000
    20  C    8.211001   5.133113   4.467360   3.338685   0.000000
    21  C    9.499920   6.328288   5.528693   4.438193   1.393049
    22  C   10.557795   7.235885   6.292904   5.079033   2.416705
    23  H   11.834509   8.551229   7.556569   6.198191   4.731551
    24  H   12.533975   9.148122   8.103155   6.792710   4.729198
    25  H    9.472551   6.332545   5.484024   4.106089   3.399880
    26  H    4.906006   3.406459   3.882546   3.406459   4.178780
    27  H    3.410809   3.269650   4.152645   4.591500   7.195946
    28  H    3.873988   5.079657   5.998497   6.733060   9.587833
    29  H    3.393755   6.041784   7.199122   8.185141  10.904649
    30  H    2.587693   6.198198   7.556575   8.551235  10.510196
    31  H    3.278578   6.792724   8.103168   9.148131  11.462827
    32  H    1.086002   4.106109   5.484047   6.332563   8.095303
    33  H    3.375240   1.086876   2.150607   3.399328   6.110281
    34  H    5.811881   2.155577   1.086960   2.155578   5.104656
    35  H    7.164632   3.399327   2.150605   1.086875   3.240493
    36  H    7.431027   4.591533   4.152673   3.269667   1.086187
    37  H    9.785272   6.733089   5.998520   5.079668   2.153326
    38  H   11.542045   8.185151   7.199126   6.041781   3.394349
                   21         22         23         24         25
    21  C    0.000000
    22  C    1.397774   0.000000
    23  H    4.455634   3.279504   0.000000
    24  H    3.971640   2.588545   1.685961   0.000000
    25  H    3.872986   3.394713   2.426725   3.625188   0.000000
    26  H    5.562304   6.397132   7.343664   8.108117   5.043804
    27  H    8.547191   9.238284   9.631159  10.672363   7.218055
    28  H   10.913325  11.598493  11.878541  12.973648   9.504512
    29  H   12.214220  13.091702  13.823438  14.760982  11.426813
    30  H   11.734093  12.884277  14.363863  14.984472  12.025269
    31  H   12.730231  13.789316  14.984457  15.739469  12.598632
    32  H    9.330656  10.480810  12.025281  12.598659   9.722654
    33  H    7.252189   8.197246   9.583583  10.148817   7.389455
    34  H    5.988636   6.680720   7.961879   8.428539   6.064130
    35  H    4.083775   4.496316   5.498079   6.036573   3.647589
    36  H    2.150633   3.400200   5.802087   5.797640   4.299340
    37  H    1.086669   2.157006   5.400137   4.679735   4.959503
    38  H    2.146721   1.086905   3.623170   2.424709   4.300598
                   26         27         28         29         30
    26  H    0.000000
    27  H    3.731180   0.000000
    28  H    6.157594   2.477169   0.000000
    29  H    7.458593   4.287460   2.467936   0.000000
    30  H    7.343664   5.802092   5.400146   3.623179   0.000000
    31  H    8.108112   5.797644   4.679743   2.424718   1.685964
    32  H    5.043800   4.299337   4.959501   4.300598   2.426721
    33  H    4.308064   3.469866   4.786757   5.391599   5.498085
    34  H    4.969507   4.855547   6.390786   7.494279   7.961887
    35  H    4.308063   5.505270   7.570167   9.109515   9.583588
    36  H    3.731192   6.820999   9.180431  10.295953   9.631219
    37  H    6.157607   9.180423  11.509736  12.637400  11.878617
    38  H    7.458602  10.295917  12.637362  14.102566  13.823486
                   31         32         33         34         35
    31  H    0.000000
    32  H    3.625186   0.000000
    33  H    6.036592   3.647613   0.000000
    34  H    8.428555   6.064157   2.475016   0.000000
    35  H   10.148823   7.389475   4.291181   2.475016   0.000000
    36  H   10.672421   7.218121   5.505311   4.855580   3.469880
    37  H   12.973719   9.504592   7.570206   6.390815   4.786764
    38  H   14.761020  11.426869   9.109531   7.494286   5.391593
                   36         37         38
    36  H    0.000000
    37  H    2.477170   0.000000
    38  H    4.287460   2.467935   0.000000
 Stoichiometry    C18H16N2O2
 Framework group  C1[X(C18H16N2O2)]
 Deg. of freedom   108
 Full point group                 C1      NOp   1
 Largest Abelian subgroup         C1      NOp   1
 Largest concise Abelian subgroup C1      NOp   1
                         Standard orientation:                         
 ---------------------------------------------------------------------
 Center     Atomic      Atomic             Coordinates (Angstroms)
 Number     Number       Type             X           Y           Z
 ---------------------------------------------------------------------
      1          7           0        6.919845    1.251645    0.135478
      2          6           0        5.842368    0.386906   -0.094397
      3          6           0        4.580953    0.899979   -0.405244
      4          6           0        3.475844    0.051126   -0.504303
      5          8           0        2.278362    0.621308   -0.873727
      6          6           0        1.169019    0.294296   -0.126410
      7          6           0       -0.000002   -0.000026   -0.827316
      8          6           0       -1.169022   -0.294333   -0.126403
      9          8           0       -2.278370   -0.621344   -0.873713
     10          6           0       -3.475844   -0.051140   -0.504296
     11          6           0       -3.618451    1.320843   -0.293184
     12          6           0       -4.860906    1.831227    0.076138
     13          6           0       -5.959270    0.975419    0.198458
     14          6           0       -5.842376   -0.386878   -0.094396
     15          7           0       -6.919868   -1.251598    0.135482
     16          6           0       -4.580968   -0.899972   -0.405240
     17          6           0       -1.166297   -0.317767    1.271631
     18          6           0        0.000000   -0.000003    1.969406
     19          6           0        1.166297    0.317751    1.271624
     20          6           0        3.618473   -1.320854   -0.293183
     21          6           0        4.860935   -1.831214    0.076149
     22          6           0        5.959283   -0.975386    0.198468
     23          1           0        6.860584    2.124240   -0.380426
     24          1           0        7.828079    0.808590    0.038478
     25          1           0        4.446412    1.965142   -0.568732
     26          1           0       -0.000004   -0.000031   -1.913140
     27          1           0       -2.769622    1.990116   -0.399787
     28          1           0       -4.974796    2.893046    0.277180
     29          1           0       -6.913834    1.385436    0.517920
     30          1           0       -6.860612   -2.124211   -0.380395
     31          1           0       -7.828096   -0.808534    0.038467
     32          1           0       -4.446446   -1.965136   -0.568731
     33          1           0       -2.065717   -0.579980    1.822620
     34          1           0        0.000000    0.000009    3.056367
     35          1           0        2.065715    0.579978    1.822607
     36          1           0        2.769654   -1.990141   -0.399784
     37          1           0        4.974844   -2.893030    0.277198
     38          1           0        6.913853   -1.385386    0.517934
 ---------------------------------------------------------------------
 Rotational constants (GHZ):           1.1736444           0.0918614           0.0898590
 Standard basis: 6-31G(d,p) (6D, 7F)
 There are   410 symmetry adapted cartesian basis functions of A   symmetry.
 There are   410 symmetry adapted basis functions of A   symmetry.
   410 basis functions,   728 primitive gaussians,   410 cartesian basis functions
    77 alpha electrons       77 beta electrons
       nuclear repulsion energy      1579.6466376188 Hartrees.
 NAtoms=   38 NActive=   38 NUniq=   38 SFac= 1.00D+00 NAtFMM=   60 NAOKFM=F Big=F
 Integral buffers will be    131072 words long.
 Raffenetti 2 integral format.
 Two-electron integral symmetry is turned on.
 Force inversion solution in PCM.
 ------------------------------------------------------------------------------
 Polarizable Continuum Model (PCM)
 =================================
 Model                : PCM.
 Atomic radii         : UFF (Universal Force Field).
 Polarization charges : Total charges.
 Charge compensation  : None.
 Solution method      : Matrix inversion.
 Cavity type          : Scaled VdW (van der Waals Surface) (Alpha=1.100).
 Cavity algorithm     : GePol (No added spheres)
                        Default sphere list used, NSphG=   38.
                        Lebedev-Laikov grids with approx.  5.0 points / Ang**2.
                        Smoothing algorithm: York/Karplus (Gamma=1.0000).
                        Polarization charges: spherical gaussians, with
                                              point-specific exponents (IZeta= 3).
                        Self-potential: point-specific (ISelfS= 7).
                        Self-field    : sphere-specific E.n sum rule (ISelfD= 2).
 1st derivatives      : Analytical E(r).r(x)/FMM algorithm (CHGder, D1EAlg=3).
                        Cavity 1st derivative terms included.
 2nd derivatives      : Analytical E(r).r(xy)/FMM algorithm (CHGder, D2EAlg=3).
                        Cavity 2nd derivative terms included.
 Solvent              : Water, Eps=  78.355300 Eps(inf)=   1.777849
 ------------------------------------------------------------------------------
 One-electron integrals computed using PRISM.
 NBasis=   410 RedAO= T EigKep=  4.17D-04  NBF=   410
 NBsUse=   410 1.00D-06 EigRej= -1.00D+00 NBFU=   410
 ExpMin= 1.61D-01 ExpMax= 5.48D+03 ExpMxC= 8.25D+02 IAcc=3 IRadAn=         5 AccDes= 0.00D+00
 Harris functional with IExCor=  402 and IRadAn=       5 diagonalized for initial guess.
 HarFok:  IExCor=  402 AccDes= 0.00D+00 IRadAn=         5 IDoV= 1 UseB2=F ITyADJ=14
 ICtDFT=  3500011 ScaDFX=  1.000000  1.000000  1.000000  1.000000
 FoFCou: FMM=F IPFlag=           0 FMFlag=      100000 FMFlg1=           0
         NFxFlg=           0 DoJE=T BraDBF=F KetDBF=T FulRan=T
         wScrn=  0.000000 ICntrl=       500 IOpCl=  0 I1Cent=   200000004 NGrid=           0
         NMat0=    1 NMatS0=      1 NMatT0=    0 NMatD0=    1 NMtDS0=    0 NMtDT0=    0
 Petite list used in FoFCou.
 Requested convergence on RMS density matrix=1.00D-08 within  32 cycles.
 Requested convergence on MAX density matrix=1.00D-06.
 Requested convergence on             energy=1.00D-06.
 No special actions if energy rises.
 Inv3:  Mode=1 IEnd=    27000000.
 Iteration    1 A*A^-1 deviation from unit magnitude is 3.11D-15 for   1130.
 Iteration    1 A*A^-1 deviation from orthogonality  is 2.12D-15 for   1714    853.
 Iteration    1 A^-1*A deviation from unit magnitude is 3.11D-15 for   1130.
 Iteration    1 A^-1*A deviation from orthogonality  is 2.43D-15 for   2017    978.
 Error on total polarization charges =  0.01082
 SCF Done:  E(RB3LYP) =  -955.526118654     A.U. after   12 cycles
            NFock= 12  Conv=0.60D-08     -V/T= 2.0094
 QCSCF skips out because SCF is already converged.
 DoSCS=F DFT=T ScalE2(SS,OS)=  1.000000  1.000000
 Range of M.O.s used for correlation:     1   410
 NBasis=   410 NAE=    77 NBE=    77 NFC=     0 NFV=     0
 NROrb=    410 NOA=    77 NOB=    77 NVA=   333 NVB=   333
 Symmetrizing basis deriv contribution to polar:
 IMax=3 JMax=2 DiffMx= 0.00D+00
 G2DrvN: will do    39 centers at a time, making    1 passes.
 Calling FoFCou, ICntrl=  3107 FMM=F I1Cent=   0 AccDes= 0.00D+00.
 NEqPCM:  Using equilibrium solvation (IEInf=0, Eps=  78.3553, EpsInf=   1.7778)
 G2PCM: DoFxE=T DoFxN=T DoGrad=T DoDP/DQ/DG/TGxP=FFFF NFrqRd=   0 IEInf=0 SqF1=F DoCFld=F IF1Alg=4.
 End of G2Drv F.D. properties file   721 does not exist.
 End of G2Drv F.D. properties file   722 does not exist.
 End of G2Drv F.D. properties file   788 does not exist.
          IDoAtm=11111111111111111111111111111111111111
 NEqPCM:  Using equilibrium solvation (IEInf=0, Eps=  78.3553, EpsInf=   1.7778)
          Differentiating once with respect to nuclear coordinates.
 CalDSu exits because no D1Ps are significant.
          There are   117 degrees of freedom in the 1st order CPHF.  IDoFFX=6 NUNeed=     0.
    111 vectors produced by pass  0 Test12= 2.56D-14 1.00D-09 XBig12= 1.33D-01 8.98D-02.
 AX will form   111 AO Fock derivatives at one time.
    111 vectors produced by pass  1 Test12= 2.56D-14 1.00D-09 XBig12= 1.96D-02 2.56D-02.
    111 vectors produced by pass  2 Test12= 2.56D-14 1.00D-09 XBig12= 2.09D-04 1.52D-03.
    111 vectors produced by pass  3 Test12= 2.56D-14 1.00D-09 XBig12= 6.26D-07 8.38D-05.
    111 vectors produced by pass  4 Test12= 2.56D-14 1.00D-09 XBig12= 9.68D-10 2.78D-06.
     83 vectors produced by pass  5 Test12= 2.56D-14 1.00D-09 XBig12= 1.09D-12 9.54D-08.
     21 vectors produced by pass  6 Test12= 2.56D-14 1.00D-09 XBig12= 1.13D-15 2.76D-09.
 InvSVY:  IOpt=1 It=  1 EMax= 6.66D-16
 Solved reduced A of dimension   659 with   117 vectors.
 End of Minotr F.D. properties file   721 does not exist.
 End of Minotr F.D. properties file   722 does not exist.
 End of Minotr F.D. properties file   788 does not exist.

 **********************************************************************

            Population analysis using the SCF density.

 **********************************************************************

 Orbital symmetries:
       Occupied  (A) (A) (A) (A) (A) (A) (A) (A) (A) (A) (A) (A)
                 (A) (A) (A) (A) (A) (A) (A) (A) (A) (A) (A) (A)
                 (A) (A) (A) (A) (A) (A) (A) (A) (A) (A) (A) (A)
                 (A) (A) (A) (A) (A) (A) (A) (A) (A) (A) (A) (A)
                 (A) (A) (A) (A) (A) (A) (A) (A) (A) (A) (A) (A)
                 (A) (A) (A) (A) (A) (A) (A) (A) (A) (A) (A) (A)
                 (A) (A) (A) (A) (A)
       Virtual   (A) (A) (A) (A) (A) (A) (A) (A) (A) (A) (A) (A)
                 (A) (A) (A) (A) (A) (A) (A) (A) (A) (A) (A) (A)
                 (A) (A) (A) (A) (A) (A) (A) (A) (A) (A) (A) (A)
                 (A) (A) (A) (A) (A) (A) (A) (A) (A) (A) (A) (A)
                 (A) (A) (A) (A) (A) (A) (A) (A) (A) (A) (A) (A)
                 (A) (A) (A) (A) (A) (A) (A) (A) (A) (A) (A) (A)
                 (A) (A) (A) (A) (A) (A) (A) (A) (A) (A) (A) (A)
                 (A) (A) (A) (A) (A) (A) (A) (A) (A) (A) (A) (A)
                 (A) (A) (A) (A) (A) (A) (A) (A) (A) (A) (A) (A)
                 (A) (A) (A) (A) (A) (A) (A) (A) (A) (A) (A) (A)
                 (A) (A) (A) (A) (A) (A) (A) (A) (A) (A) (A) (A)
                 (A) (A) (A) (A) (A) (A) (A) (A) (A) (A) (A) (A)
                 (A) (A) (A) (A) (A) (A) (A) (A) (A) (A) (A) (A)
                 (A) (A) (A) (A) (A) (A) (A) (A) (A) (A) (A) (A)
                 (A) (A) (A) (A) (A) (A) (A) (A) (A) (A) (A) (A)
                 (A) (A) (A) (A) (A) (A) (A) (A) (A) (A) (A) (A)
                 (A) (A) (A) (A) (A) (A) (A) (A) (A) (A) (A) (A)
                 (A) (A) (A) (A) (A) (A) (A) (A) (A) (A) (A) (A)
                 (A) (A) (A) (A) (A) (A) (A) (A) (A) (A) (A) (A)
                 (A) (A) (A) (A) (A) (A) (A) (A) (A) (A) (A) (A)
                 (A) (A) (A) (A) (A) (A) (A) (A) (A) (A) (A) (A)
                 (A) (A) (A) (A) (A) (A) (A) (A) (A) (A) (A) (A)
                 (A) (A) (A) (A) (A) (A) (A) (A) (A) (A) (A) (A)
                 (A) (A) (A) (A) (A) (A) (A) (A) (A) (A) (A) (A)
                 (A) (A) (A) (A) (A) (A) (A) (A) (A) (A) (A) (A)
                 (A) (A) (A) (A) (A) (A) (A) (A) (A) (A) (A) (A)
                 (A) (A) (A) (A) (A) (A) (A) (A) (A) (A) (A) (A)
                 (A) (A) (A) (A) (A) (A) (A) (A) (A)
 The electronic state is 1-A.
 Alpha  occ. eigenvalues --  -19.19109 -19.19109 -14.33859 -14.33859 -10.25747
 Alpha  occ. eigenvalues --  -10.25747 -10.25075 -10.25075 -10.23081 -10.23081
 Alpha  occ. eigenvalues --  -10.20053 -10.19307 -10.19307 -10.19259 -10.19257
 Alpha  occ. eigenvalues --  -10.19250 -10.18338 -10.18338 -10.18186 -10.18186
 Alpha  occ. eigenvalues --  -10.18126 -10.18126  -1.08539  -1.08400  -0.91603
 Alpha  occ. eigenvalues --   -0.91596  -0.86271  -0.83846  -0.83349  -0.76592
 Alpha  occ. eigenvalues --   -0.76567  -0.73667  -0.73284  -0.72339  -0.72272
 Alpha  occ. eigenvalues --   -0.64738  -0.62806  -0.61470  -0.61181  -0.60764
 Alpha  occ. eigenvalues --   -0.57417  -0.55398  -0.51868  -0.51161  -0.51105
 Alpha  occ. eigenvalues --   -0.50746  -0.49397  -0.49012  -0.48449  -0.46670
 Alpha  occ. eigenvalues --   -0.46374  -0.45328  -0.45015  -0.44016  -0.42456
 Alpha  occ. eigenvalues --   -0.42456  -0.42189  -0.41267  -0.38717  -0.38598
 Alpha  occ. eigenvalues --   -0.37821  -0.37769  -0.37074  -0.36584  -0.36421
 Alpha  occ. eigenvalues --   -0.35268  -0.34971  -0.34846  -0.32617  -0.30495
 Alpha  occ. eigenvalues --   -0.29777  -0.25294  -0.25131  -0.23634  -0.22823
 Alpha  occ. eigenvalues --   -0.20780  -0.20394
 Alpha virt. eigenvalues --   -0.01516  -0.00682   0.00323   0.00931   0.01335
 Alpha virt. eigenvalues --    0.01501   0.09018   0.09151   0.09622   0.10612
 Alpha virt. eigenvalues --    0.10837   0.13189   0.13213   0.14798   0.15210
 Alpha virt. eigenvalues --    0.15591   0.15982   0.16082   0.16339   0.16560
 Alpha virt. eigenvalues --    0.17244   0.18055   0.18145   0.18881   0.19443
 Alpha virt. eigenvalues --    0.20162   0.20392   0.25948   0.26667   0.27005
 Alpha virt. eigenvalues --    0.27969   0.29016   0.29166   0.29447   0.30120
 Alpha virt. eigenvalues --    0.32243   0.32263   0.36513   0.36904   0.37695
 Alpha virt. eigenvalues --    0.37703   0.39479   0.39727   0.43900   0.45012
 Alpha virt. eigenvalues --    0.45135   0.48317   0.50074   0.51024   0.51076
 Alpha virt. eigenvalues --    0.51819   0.52736   0.53580   0.54476   0.54540
 Alpha virt. eigenvalues --    0.56068   0.56359   0.57204   0.57773   0.57998
 Alpha virt. eigenvalues --    0.58584   0.58613   0.59003   0.59364   0.60083
 Alpha virt. eigenvalues --    0.60235   0.60444   0.60855   0.61110   0.61174
 Alpha virt. eigenvalues --    0.61810   0.62228   0.62326   0.62964   0.63159
 Alpha virt. eigenvalues --    0.63965   0.65804   0.66996   0.67496   0.67700
 Alpha virt. eigenvalues --    0.69367   0.69385   0.70387   0.70887   0.71902
 Alpha virt. eigenvalues --    0.75467   0.76817   0.77427   0.77575   0.77642
 Alpha virt. eigenvalues --    0.79237   0.79601   0.82028   0.82266   0.82647
 Alpha virt. eigenvalues --    0.83571   0.83576   0.83908   0.84086   0.84665
 Alpha virt. eigenvalues --    0.85495   0.85884   0.86935   0.87769   0.87854
 Alpha virt. eigenvalues --    0.88860   0.88925   0.89237   0.89480   0.90366
 Alpha virt. eigenvalues --    0.92479   0.93211   0.93709   0.95490   0.97756
 Alpha virt. eigenvalues --    0.98351   0.98896   1.00727   1.00934   1.01126
 Alpha virt. eigenvalues --    1.01629   1.04295   1.04608   1.04964   1.06526
 Alpha virt. eigenvalues --    1.12577   1.12950   1.13569   1.13838   1.14780
 Alpha virt. eigenvalues --    1.15020   1.15055   1.15782   1.17525   1.20194
 Alpha virt. eigenvalues --    1.22063   1.23222   1.24861   1.26954   1.27331
 Alpha virt. eigenvalues --    1.29729   1.29999   1.31784   1.32574   1.33944
 Alpha virt. eigenvalues --    1.34694   1.34949   1.36019   1.37065   1.37548
 Alpha virt. eigenvalues --    1.38388   1.39065   1.39099   1.41680   1.41943
 Alpha virt. eigenvalues --    1.42399   1.42716   1.42919   1.43508   1.43571
 Alpha virt. eigenvalues --    1.48811   1.50053   1.51237   1.54394   1.67850
 Alpha virt. eigenvalues --    1.68671   1.69379   1.74199   1.74969   1.75483
 Alpha virt. eigenvalues --    1.76392   1.76679   1.77858   1.78325   1.79465
 Alpha virt. eigenvalues --    1.79968   1.80679   1.81895   1.82225   1.85546
 Alpha virt. eigenvalues --    1.85942   1.87310   1.87758   1.88445   1.88596
 Alpha virt. eigenvalues --    1.89623   1.90280   1.90571   1.91249   1.91260
 Alpha virt. eigenvalues --    1.91813   1.92223   1.93928   1.94326   1.95652
 Alpha virt. eigenvalues --    1.97327   1.98204   1.98384   1.98725   1.99120
 Alpha virt. eigenvalues --    1.99664   2.00863   2.01091   2.03802   2.05455
 Alpha virt. eigenvalues --    2.05616   2.06552   2.09616   2.09739   2.11935
 Alpha virt. eigenvalues --    2.12745   2.16475   2.16485   2.21588   2.22761
 Alpha virt. eigenvalues --    2.24153   2.25102   2.25754   2.26120   2.26494
 Alpha virt. eigenvalues --    2.27542   2.29134   2.30811   2.30888   2.31226
 Alpha virt. eigenvalues --    2.33521   2.33556   2.35632   2.36527   2.36876
 Alpha virt. eigenvalues --    2.37504   2.38780   2.39554   2.40021   2.40173
 Alpha virt. eigenvalues --    2.41068   2.41153   2.41288   2.42771   2.42828
 Alpha virt. eigenvalues --    2.46160   2.46230   2.46530   2.46630   2.47497
 Alpha virt. eigenvalues --    2.48728   2.49499   2.52236   2.52457   2.53463
 Alpha virt. eigenvalues --    2.54413   2.55239   2.55479   2.56689   2.58141
 Alpha virt. eigenvalues --    2.58397   2.59786   2.59786   2.60978   2.63489
 Alpha virt. eigenvalues --    2.65357   2.65741   2.66790   2.67049   2.69145
 Alpha virt. eigenvalues --    2.70844   2.71462   2.71645   2.73154   2.75827
 Alpha virt. eigenvalues --    2.77040   2.77573   2.78575   2.81249   2.84997
 Alpha virt. eigenvalues --    2.85799   2.86643   2.90459   2.93183   2.97879
 Alpha virt. eigenvalues --    2.98278   2.98358   2.98829   3.06559   3.08430
 Alpha virt. eigenvalues --    3.09312   3.09432   3.10546   3.12903   3.18232
 Alpha virt. eigenvalues --    3.19308   3.20754   3.23960   3.24509   3.24525
 Alpha virt. eigenvalues --    3.28816   3.28822   3.31587   3.33908   3.37965
 Alpha virt. eigenvalues --    3.40982   3.40991   3.41591   3.45517   3.46454
 Alpha virt. eigenvalues --    3.46886   3.52380   3.52398   3.81365   3.83942
 Alpha virt. eigenvalues --    3.84899   4.03813   4.04029   4.13509   4.13557
 Alpha virt. eigenvalues --    4.13593   4.14255   4.15789   4.16482   4.16708
 Alpha virt. eigenvalues --    4.18365   4.20593   4.41180   4.41347   4.43602
 Alpha virt. eigenvalues --    4.44549   4.45475   4.46418   4.56108   4.71961
 Alpha virt. eigenvalues --    4.82841   4.85934   4.87377
          Condensed to atoms (all electrons):
               1          2          3          4          5          6
     1  N    6.825598   0.296522  -0.061739   0.003426  -0.000030   0.000000
     2  C    0.296522   4.602300   0.486917  -0.003235   0.003746  -0.000003
     3  C   -0.061739   0.486917   5.069700   0.532980  -0.046614  -0.002599
     4  C    0.003426  -0.003235   0.532980   4.586171   0.217314  -0.029043
     5  O   -0.000030   0.003746  -0.046614   0.217314   8.346007   0.222972
     6  C    0.000000  -0.000003  -0.002599  -0.029043   0.222972   4.613274
     7  C   -0.000000   0.000006  -0.000132  -0.001795  -0.043982   0.499035
     8  C    0.000000  -0.000000   0.000006  -0.000069   0.003377  -0.004911
     9  O   -0.000000   0.000000  -0.000000  -0.000000  -0.000013   0.003377
    10  C    0.000000  -0.000000   0.000000   0.000000  -0.000000  -0.000069
    11  C   -0.000000   0.000000  -0.000000   0.000000   0.000000  -0.000027
    12  C   -0.000000  -0.000000  -0.000000   0.000000  -0.000000   0.000001
    13  C    0.000000  -0.000000   0.000000  -0.000000  -0.000000  -0.000000
    14  C    0.000000   0.000000   0.000000  -0.000000   0.000000  -0.000000
    15  N    0.000000   0.000000  -0.000000   0.000000  -0.000000   0.000000
    16  C   -0.000000   0.000000  -0.000000   0.000000  -0.000000   0.000006
    17  C   -0.000000  -0.000000   0.000000   0.000050   0.000192  -0.035132
    18  C   -0.000000   0.000002  -0.000008  -0.000156   0.004204  -0.007331
    19  C    0.000000  -0.000048   0.000513   0.002478  -0.055665   0.495316
    20  C    0.000686  -0.035106  -0.080517   0.500938  -0.055378   0.001660
    21  C    0.004230  -0.012781  -0.040267  -0.008115   0.004328  -0.000155
    22  C   -0.070719   0.537494  -0.061845  -0.038701   0.000242   0.000036
    23  H    0.342669  -0.023986  -0.009594  -0.000059   0.000000   0.000000
    24  H    0.344322  -0.025140   0.005270  -0.000143   0.000000  -0.000000
    25  H   -0.007705  -0.041362   0.357028  -0.035681  -0.001395   0.000354
    26  H   -0.000000  -0.000000  -0.000018   0.000346  -0.001446  -0.037048
    27  H   -0.000000   0.000000   0.000000   0.000000  -0.000001   0.000059
    28  H    0.000000   0.000000  -0.000000   0.000000  -0.000000  -0.000000
    29  H    0.000000   0.000000   0.000000   0.000000   0.000000   0.000000
    30  H    0.000000   0.000000  -0.000000  -0.000000  -0.000000  -0.000000
    31  H    0.000000   0.000000  -0.000000  -0.000000   0.000000  -0.000000
    32  H   -0.000000   0.000000   0.000000   0.000000  -0.000000  -0.000000
    33  H    0.000000   0.000000   0.000000  -0.000000   0.000002   0.000396
    34  H   -0.000000  -0.000000  -0.000000  -0.000004  -0.000053   0.002960
    35  H   -0.000005   0.000036   0.001691   0.006323  -0.006973  -0.040951
    36  H    0.000004   0.000416   0.005726  -0.041609  -0.006862   0.005677
    37  H   -0.000116   0.003484   0.000916   0.003216  -0.000056  -0.000006
    38  H   -0.007295  -0.043269   0.005500   0.000555   0.000002  -0.000000
               7          8          9         10         11         12
     1  N   -0.000000   0.000000  -0.000000   0.000000  -0.000000  -0.000000
     2  C    0.000006  -0.000000   0.000000  -0.000000   0.000000  -0.000000
     3  C   -0.000132   0.000006  -0.000000   0.000000  -0.000000  -0.000000
     4  C   -0.001795  -0.000069  -0.000000   0.000000   0.000000   0.000000
     5  O   -0.043982   0.003377  -0.000013  -0.000000   0.000000  -0.000000
     6  C    0.499035  -0.004911   0.003377  -0.000069  -0.000027   0.000001
     7  C    5.077960   0.499035  -0.043982  -0.001795   0.000461  -0.000010
     8  C    0.499035   4.613275   0.222972  -0.029044   0.001660  -0.000155
     9  O   -0.043982   0.222972   8.346006   0.217315  -0.055379   0.004328
    10  C   -0.001795  -0.029044   0.217315   4.586170   0.500937  -0.008115
    11  C    0.000461   0.001660  -0.055379   0.500937   5.003624   0.502681
    12  C   -0.000010  -0.000155   0.004328  -0.008115   0.502681   4.832990
    13  C    0.000000   0.000036   0.000242  -0.038701  -0.052111   0.537798
    14  C    0.000006  -0.000003   0.003746  -0.003235  -0.035106  -0.012781
    15  N   -0.000000   0.000000  -0.000030   0.003426   0.000686   0.004230
    16  C   -0.000132  -0.002598  -0.046614   0.532980  -0.080517  -0.040267
    17  C   -0.077821   0.495316  -0.055664   0.002477   0.000463  -0.000377
    18  C   -0.035605  -0.007331   0.004204  -0.000156  -0.000373  -0.000001
    19  C   -0.077821  -0.035132   0.000192   0.000050   0.000005   0.000000
    20  C    0.000461  -0.000027   0.000000   0.000000   0.000000  -0.000000
    21  C   -0.000010   0.000001  -0.000000   0.000000  -0.000000  -0.000000
    22  C    0.000000  -0.000000  -0.000000  -0.000000   0.000000   0.000000
    23  H   -0.000000  -0.000000  -0.000000  -0.000000   0.000000  -0.000000
    24  H    0.000000  -0.000000   0.000000  -0.000000   0.000000   0.000000
    25  H   -0.000022  -0.000000  -0.000000   0.000000   0.000000   0.000000
    26  H    0.354508  -0.037048  -0.001446   0.000346  -0.000013  -0.000001
    27  H    0.001042   0.005677  -0.006862  -0.041609   0.366146  -0.039353
    28  H   -0.000000  -0.000006  -0.000056   0.003216  -0.034383   0.368119
    29  H    0.000000  -0.000000   0.000002   0.000555   0.005143  -0.037470
    30  H   -0.000000   0.000000   0.000000  -0.000059  -0.000003  -0.000175
    31  H    0.000000  -0.000000   0.000000  -0.000143   0.000012  -0.000041
    32  H   -0.000022   0.000354  -0.001394  -0.035682   0.006791  -0.000087
    33  H    0.005384  -0.040951  -0.006973   0.006323   0.001053  -0.000250
    34  H    0.000827   0.002960  -0.000053  -0.000004   0.000004  -0.000000
    35  H    0.005384   0.000396   0.000002  -0.000000   0.000000   0.000000
    36  H    0.001042   0.000059  -0.000001   0.000000  -0.000000   0.000000
    37  H   -0.000000  -0.000000  -0.000000   0.000000   0.000000  -0.000000
    38  H    0.000000   0.000000   0.000000   0.000000  -0.000000  -0.000000
              13         14         15         16         17         18
     1  N    0.000000   0.000000   0.000000  -0.000000  -0.000000  -0.000000
     2  C   -0.000000   0.000000   0.000000   0.000000  -0.000000   0.000002
     3  C    0.000000   0.000000  -0.000000  -0.000000   0.000000  -0.000008
     4  C   -0.000000  -0.000000   0.000000   0.000000   0.000050  -0.000156
     5  O   -0.000000   0.000000  -0.000000  -0.000000   0.000192   0.004204
     6  C   -0.000000  -0.000000   0.000000   0.000006  -0.035132  -0.007331
     7  C    0.000000   0.000006  -0.000000  -0.000132  -0.077821  -0.035605
     8  C    0.000036  -0.000003   0.000000  -0.002598   0.495316  -0.007331
     9  O    0.000242   0.003746  -0.000030  -0.046614  -0.055664   0.004204
    10  C   -0.038701  -0.003235   0.003426   0.532980   0.002477  -0.000156
    11  C   -0.052111  -0.035106   0.000686  -0.080517   0.000463  -0.000373
    12  C    0.537798  -0.012781   0.004230  -0.040267  -0.000377  -0.000001
    13  C    4.945052   0.537494  -0.070720  -0.061845   0.000007  -0.000000
    14  C    0.537494   4.602297   0.296523   0.486918  -0.000048   0.000002
    15  N   -0.070720   0.296523   6.825598  -0.061739   0.000000  -0.000000
    16  C   -0.061845   0.486918  -0.061739   5.069700   0.000513  -0.000008
    17  C    0.000007  -0.000048   0.000000   0.000513   4.984264   0.500683
    18  C   -0.000000   0.000002  -0.000000  -0.000008   0.500683   4.863635
    19  C    0.000000  -0.000000  -0.000000   0.000000  -0.047350   0.500683
    20  C    0.000000   0.000000  -0.000000  -0.000000   0.000005  -0.000373
    21  C    0.000000  -0.000000  -0.000000  -0.000000   0.000000  -0.000001
    22  C   -0.000000  -0.000000   0.000000   0.000000   0.000000  -0.000000
    23  H    0.000000   0.000000   0.000000  -0.000000   0.000000   0.000000
    24  H    0.000000   0.000000   0.000000  -0.000000   0.000000   0.000000
    25  H   -0.000000   0.000000  -0.000000   0.000000   0.000000  -0.000002
    26  H    0.000000  -0.000000  -0.000000  -0.000018   0.006786  -0.000389
    27  H    0.004970   0.000416   0.000004   0.005726   0.001213  -0.000214
    28  H   -0.035843   0.003484  -0.000116   0.000916   0.000004  -0.000000
    29  H    0.366957  -0.043269  -0.007295   0.005500   0.000000  -0.000000
    30  H    0.005523  -0.023987   0.342669  -0.009594  -0.000000   0.000000
    31  H   -0.009107  -0.025140   0.344322   0.005270  -0.000000   0.000000
    32  H    0.005779  -0.041362  -0.007706   0.357028  -0.000016  -0.000002
    33  H    0.000003   0.000036  -0.000005   0.001690   0.367762  -0.038529
    34  H   -0.000000  -0.000000  -0.000000  -0.000000  -0.033069   0.369672
    35  H   -0.000000   0.000000   0.000000   0.000000   0.004908  -0.038529
    36  H   -0.000000   0.000000  -0.000000   0.000000  -0.000008  -0.000214
    37  H   -0.000000   0.000000   0.000000  -0.000000  -0.000000  -0.000000
    38  H    0.000000   0.000000   0.000000   0.000000  -0.000000  -0.000000
              19         20         21         22         23         24
     1  N    0.000000   0.000686   0.004230  -0.070719   0.342669   0.344322
     2  C   -0.000048  -0.035106  -0.012781   0.537494  -0.023986  -0.025140
     3  C    0.000513  -0.080517  -0.040267  -0.061845  -0.009594   0.005270
     4  C    0.002478   0.500938  -0.008115  -0.038701  -0.000059  -0.000143
     5  O   -0.055665  -0.055378   0.004328   0.000242   0.000000   0.000000
     6  C    0.495316   0.001660  -0.000155   0.000036   0.000000  -0.000000
     7  C   -0.077821   0.000461  -0.000010   0.000000  -0.000000   0.000000
     8  C   -0.035132  -0.000027   0.000001  -0.000000  -0.000000  -0.000000
     9  O    0.000192   0.000000  -0.000000  -0.000000  -0.000000   0.000000
    10  C    0.000050   0.000000   0.000000  -0.000000  -0.000000  -0.000000
    11  C    0.000005   0.000000  -0.000000   0.000000   0.000000   0.000000
    12  C    0.000000  -0.000000  -0.000000   0.000000  -0.000000   0.000000
    13  C    0.000000   0.000000   0.000000  -0.000000   0.000000   0.000000
    14  C   -0.000000   0.000000  -0.000000  -0.000000   0.000000   0.000000
    15  N   -0.000000  -0.000000  -0.000000   0.000000   0.000000   0.000000
    16  C    0.000000  -0.000000  -0.000000   0.000000  -0.000000  -0.000000
    17  C   -0.047350   0.000005   0.000000   0.000000   0.000000   0.000000
    18  C    0.500683  -0.000373  -0.000001  -0.000000   0.000000   0.000000
    19  C    4.984264   0.000463  -0.000377   0.000007  -0.000000  -0.000000
    20  C    0.000463   5.003622   0.502681  -0.052111  -0.000003   0.000012
    21  C   -0.000377   0.502681   4.832990   0.537798  -0.000175  -0.000041
    22  C    0.000007  -0.052111   0.537798   4.945051   0.005523  -0.009107
    23  H   -0.000000  -0.000003  -0.000175   0.005523   0.430231  -0.028015
    24  H   -0.000000   0.000012  -0.000041  -0.009107  -0.028015   0.428565
    25  H   -0.000016   0.006791  -0.000087   0.005779   0.004368  -0.000014
    26  H    0.006786  -0.000013  -0.000001   0.000000  -0.000000   0.000000
    27  H   -0.000008  -0.000000   0.000000  -0.000000  -0.000000   0.000000
    28  H   -0.000000   0.000000  -0.000000  -0.000000   0.000000   0.000000
    29  H   -0.000000  -0.000000  -0.000000   0.000000   0.000000   0.000000
    30  H    0.000000   0.000000  -0.000000   0.000000   0.000000   0.000000
    31  H    0.000000   0.000000   0.000000   0.000000   0.000000   0.000000
    32  H    0.000000   0.000000   0.000000  -0.000000   0.000000   0.000000
    33  H    0.004908   0.000000   0.000000  -0.000000   0.000000  -0.000000
    34  H   -0.033069   0.000004  -0.000000  -0.000000  -0.000000   0.000000
    35  H    0.367763   0.001053  -0.000250   0.000003   0.000000   0.000000
    36  H    0.001213   0.366147  -0.039353   0.004970  -0.000000  -0.000000
    37  H    0.000004  -0.034383   0.368119  -0.035843   0.000003  -0.000004
    38  H    0.000000   0.005143  -0.037470   0.366957  -0.000040   0.004553
              25         26         27         28         29         30
     1  N   -0.007705  -0.000000  -0.000000   0.000000   0.000000   0.000000
     2  C   -0.041362  -0.000000   0.000000   0.000000   0.000000   0.000000
     3  C    0.357028  -0.000018   0.000000  -0.000000   0.000000  -0.000000
     4  C   -0.035681   0.000346   0.000000   0.000000   0.000000  -0.000000
     5  O   -0.001395  -0.001446  -0.000001  -0.000000   0.000000  -0.000000
     6  C    0.000354  -0.037048   0.000059  -0.000000   0.000000  -0.000000
     7  C   -0.000022   0.354508   0.001042  -0.000000   0.000000  -0.000000
     8  C   -0.000000  -0.037048   0.005677  -0.000006  -0.000000   0.000000
     9  O   -0.000000  -0.001446  -0.006862  -0.000056   0.000002   0.000000
    10  C    0.000000   0.000346  -0.041609   0.003216   0.000555  -0.000059
    11  C    0.000000  -0.000013   0.366146  -0.034383   0.005143  -0.000003
    12  C    0.000000  -0.000001  -0.039353   0.368119  -0.037470  -0.000175
    13  C   -0.000000   0.000000   0.004970  -0.035843   0.366957   0.005523
    14  C    0.000000  -0.000000   0.000416   0.003484  -0.043269  -0.023987
    15  N   -0.000000  -0.000000   0.000004  -0.000116  -0.007295   0.342669
    16  C    0.000000  -0.000018   0.005726   0.000916   0.005500  -0.009594
    17  C    0.000000   0.006786   0.001213   0.000004   0.000000  -0.000000
    18  C   -0.000002  -0.000389  -0.000214  -0.000000  -0.000000   0.000000
    19  C   -0.000016   0.006786  -0.000008  -0.000000  -0.000000   0.000000
    20  C    0.006791  -0.000013  -0.000000   0.000000  -0.000000   0.000000
    21  C   -0.000087  -0.000001   0.000000  -0.000000  -0.000000  -0.000000
    22  C    0.005779   0.000000  -0.000000  -0.000000   0.000000   0.000000
    23  H    0.004368  -0.000000  -0.000000   0.000000   0.000000   0.000000
    24  H   -0.000014   0.000000   0.000000   0.000000   0.000000   0.000000
    25  H    0.614030   0.000003  -0.000000   0.000000  -0.000000   0.000000
    26  H    0.000003   0.597956   0.000074   0.000000   0.000000  -0.000000
    27  H   -0.000000   0.000074   0.610418  -0.005759  -0.000169  -0.000000
    28  H    0.000000   0.000000  -0.005759   0.600265  -0.005914   0.000003
    29  H   -0.000000   0.000000  -0.000169  -0.005914   0.618876  -0.000040
    30  H    0.000000  -0.000000  -0.000000   0.000003  -0.000040   0.430230
    31  H    0.000000   0.000000  -0.000000  -0.000004   0.004553  -0.028015
    32  H   -0.000000   0.000003  -0.000145   0.000014  -0.000162   0.004368
    33  H   -0.000000  -0.000126   0.000058  -0.000001  -0.000000   0.000000
    34  H    0.000000   0.000013  -0.000001  -0.000000   0.000000  -0.000000
    35  H    0.000096  -0.000126  -0.000000   0.000000  -0.000000   0.000000
    36  H   -0.000145   0.000074  -0.000000  -0.000000  -0.000000  -0.000000
    37  H    0.000014   0.000000  -0.000000   0.000000   0.000000   0.000000
    38  H   -0.000162   0.000000  -0.000000   0.000000   0.000000   0.000000
              31         32         33         34         35         36
     1  N    0.000000  -0.000000   0.000000  -0.000000  -0.000005   0.000004
     2  C    0.000000   0.000000   0.000000  -0.000000   0.000036   0.000416
     3  C   -0.000000   0.000000   0.000000  -0.000000   0.001691   0.005726
     4  C   -0.000000   0.000000  -0.000000  -0.000004   0.006323  -0.041609
     5  O    0.000000  -0.000000   0.000002  -0.000053  -0.006973  -0.006862
     6  C   -0.000000  -0.000000   0.000396   0.002960  -0.040951   0.005677
     7  C    0.000000  -0.000022   0.005384   0.000827   0.005384   0.001042
     8  C   -0.000000   0.000354  -0.040951   0.002960   0.000396   0.000059
     9  O    0.000000  -0.001394  -0.006973  -0.000053   0.000002  -0.000001
    10  C   -0.000143  -0.035682   0.006323  -0.000004  -0.000000   0.000000
    11  C    0.000012   0.006791   0.001053   0.000004   0.000000  -0.000000
    12  C   -0.000041  -0.000087  -0.000250  -0.000000   0.000000   0.000000
    13  C   -0.009107   0.005779   0.000003  -0.000000  -0.000000  -0.000000
    14  C   -0.025140  -0.041362   0.000036  -0.000000   0.000000   0.000000
    15  N    0.344322  -0.007706  -0.000005  -0.000000   0.000000  -0.000000
    16  C    0.005270   0.357028   0.001690  -0.000000   0.000000   0.000000
    17  C   -0.000000  -0.000016   0.367762  -0.033069   0.004908  -0.000008
    18  C    0.000000  -0.000002  -0.038529   0.369672  -0.038529  -0.000214
    19  C    0.000000   0.000000   0.004908  -0.033069   0.367763   0.001213
    20  C    0.000000   0.000000   0.000000   0.000004   0.001053   0.366147
    21  C    0.000000   0.000000   0.000000  -0.000000  -0.000250  -0.039353
    22  C    0.000000  -0.000000  -0.000000  -0.000000   0.000003   0.004970
    23  H    0.000000   0.000000   0.000000  -0.000000   0.000000  -0.000000
    24  H    0.000000   0.000000  -0.000000   0.000000   0.000000  -0.000000
    25  H    0.000000  -0.000000  -0.000000   0.000000   0.000096  -0.000145
    26  H    0.000000   0.000003  -0.000126   0.000013  -0.000126   0.000074
    27  H   -0.000000  -0.000145   0.000058  -0.000001  -0.000000  -0.000000
    28  H   -0.000004   0.000014  -0.000001  -0.000000   0.000000  -0.000000
    29  H    0.004553  -0.000162  -0.000000   0.000000  -0.000000  -0.000000
    30  H   -0.028015   0.004368   0.000000  -0.000000   0.000000  -0.000000
    31  H    0.428565  -0.000014   0.000000   0.000000  -0.000000   0.000000
    32  H   -0.000014   0.614030   0.000096   0.000000  -0.000000  -0.000000
    33  H    0.000000   0.000096   0.595399  -0.005453  -0.000152  -0.000000
    34  H    0.000000   0.000000  -0.005453   0.583971  -0.005452  -0.000001
    35  H   -0.000000  -0.000000  -0.000152  -0.005452   0.595399   0.000058
    36  H    0.000000  -0.000000  -0.000000  -0.000001   0.000058   0.610418
    37  H    0.000000   0.000000   0.000000  -0.000000  -0.000001  -0.005759
    38  H    0.000000  -0.000000  -0.000000   0.000000  -0.000000  -0.000169
              37         38
     1  N   -0.000116  -0.007295
     2  C    0.003484  -0.043269
     3  C    0.000916   0.005500
     4  C    0.003216   0.000555
     5  O   -0.000056   0.000002
     6  C   -0.000006  -0.000000
     7  C   -0.000000   0.000000
     8  C   -0.000000   0.000000
     9  O   -0.000000   0.000000
    10  C    0.000000   0.000000
    11  C    0.000000  -0.000000
    12  C   -0.000000  -0.000000
    13  C   -0.000000   0.000000
    14  C    0.000000   0.000000
    15  N    0.000000   0.000000
    16  C   -0.000000   0.000000
    17  C   -0.000000  -0.000000
    18  C   -0.000000  -0.000000
    19  C    0.000004   0.000000
    20  C   -0.034383   0.005143
    21  C    0.368119  -0.037470
    22  C   -0.035843   0.366957
    23  H    0.000003  -0.000040
    24  H   -0.000004   0.004553
    25  H    0.000014  -0.000162
    26  H    0.000000   0.000000
    27  H   -0.000000  -0.000000
    28  H    0.000000   0.000000
    29  H    0.000000   0.000000
    30  H    0.000000   0.000000
    31  H    0.000000   0.000000
    32  H    0.000000  -0.000000
    33  H    0.000000  -0.000000
    34  H   -0.000000   0.000000
    35  H   -0.000001  -0.000000
    36  H   -0.005759  -0.000169
    37  H    0.600265  -0.005914
    38  H   -0.005914   0.618876
 Mulliken charges:
               1
     1  N   -0.669848
     2  C    0.254008
     3  C   -0.162916
     4  C    0.304814
     5  O   -0.583918
     6  C    0.312153
     7  C   -0.162025
     8  C    0.312152
     9  O   -0.583918
    10  C    0.304815
    11  C   -0.131754
    12  C   -0.111065
    13  C   -0.135535
    14  C    0.254011
    15  N   -0.669849
    16  C   -0.162918
    17  C   -0.115159
    18  C   -0.113863
    19  C   -0.115159
    20  C   -0.131753
    21  C   -0.111065
    22  C   -0.135534
    23  H    0.279080
    24  H    0.279742
    25  H    0.098129
    26  H    0.110796
    27  H    0.098318
    28  H    0.106060
    29  H    0.092733
    30  H    0.279080
    31  H    0.279742
    32  H    0.098129
    33  H    0.109329
    34  H    0.116749
    35  H    0.109329
    36  H    0.098318
    37  H    0.106060
    38  H    0.092733
 Sum of Mulliken charges =  -0.00000
 Mulliken charges with hydrogens summed into heavy atoms:
               1
     1  N   -0.111026
     2  C    0.254008
     3  C   -0.064787
     4  C    0.304814
     5  O   -0.583918
     6  C    0.312153
     7  C   -0.051229
     8  C    0.312152
     9  O   -0.583918
    10  C    0.304815
    11  C   -0.033435
    12  C   -0.005005
    13  C   -0.042802
    14  C    0.254011
    15  N   -0.111027
    16  C   -0.064789
    17  C   -0.005830
    18  C    0.002886
    19  C   -0.005831
    20  C   -0.033435
    21  C   -0.005005
    22  C   -0.042801
 APT charges:
               1
     1  N   -1.705468
     2  C    0.453000
     3  C   -0.304502
     4  C   -0.800843
     5  O   -0.395452
     6  C   -0.037509
     7  C   -0.531517
     8  C   -0.037507
     9  O   -0.395450
    10  C   -0.800839
    11  C   -0.517244
    12  C   -0.503225
    13  C   -0.419449
    14  C    0.453001
    15  N   -1.705465
    16  C   -0.304507
    17  C   -0.518268
    18  C   -0.468831
    19  C   -0.518268
    20  C   -0.517239
    21  C   -0.503225
    22  C   -0.419453
    23  H    0.558894
    24  H    1.479252
    25  H    0.331144
    26  H    0.413817
    27  H    0.006055
    28  H    0.669073
    29  H    1.125559
    30  H    0.558902
    31  H    1.479254
    32  H    0.331153
    33  H    0.556966
    34  H    0.630516
    35  H    0.556964
    36  H    0.006061
    37  H    0.669085
    38  H    1.125564
 Sum of APT charges =  -0.00000
 APT charges with hydrogens summed into heavy atoms:
               1
     1  N    0.332678
     2  C    0.453000
     3  C    0.026642
     4  C   -0.800843
     5  O   -0.395452
     6  C   -0.037509
     7  C   -0.117700
     8  C   -0.037507
     9  O   -0.395450
    10  C   -0.800839
    11  C   -0.511189
    12  C    0.165848
    13  C    0.706111
    14  C    0.453001
    15  N    0.332690
    16  C    0.026647
    17  C    0.038698
    18  C    0.161684
    19  C    0.038696
    20  C   -0.511178
    21  C    0.165860
    22  C    0.706112
 Electronic spatial extent (au):  <R**2>=          11421.7297
 Charge=             -0.0000 electrons
 Dipole moment (field-independent basis, Debye):
    X=              0.0000    Y=              0.0000    Z=              0.0582  Tot=              0.0582
 Quadrupole moment (field-independent basis, Debye-Ang):
   XX=            -64.2271   YY=           -116.0994   ZZ=           -128.7670
   XY=              8.1868   XZ=             -0.0000   YZ=             -0.0001
 Traceless Quadrupole moment (field-independent basis, Debye-Ang):
   XX=             38.8041   YY=            -13.0682   ZZ=            -25.7358
   XY=              8.1868   XZ=             -0.0000   YZ=             -0.0001
 Octapole moment (field-independent basis, Debye-Ang**2):
  XXX=             -0.0012  YYY=              0.0001  ZZZ=              6.1083  XYY=             -0.0004
  XXY=             -0.0004  XXZ=            -75.4300  XZZ=              0.0003  YZZ=              0.0001
  YYZ=            -10.0171  XYZ=            -37.5826
 Hexadecapole moment (field-independent basis, Debye-Ang**3):
 XXXX=          -8811.2296 YYYY=           -779.4000 ZZZZ=           -504.7349 XXXY=            587.7652
 XXXZ=              0.0049 YYYX=            100.8912 YYYZ=             -0.0011 ZZZX=             -0.0003
 ZZZY=              0.0004 XXYY=          -2092.3066 XXZZ=          -2627.2648 YYZZ=           -254.9889
 XXYZ=             -0.0057 YYXZ=             -0.0027 ZZXY=             24.9434
 N-N= 1.579646637619D+03 E-N=-5.381475254093D+03  KE= 9.466193779592D+02
  Exact polarizability:   0.000   0.000   0.000   0.000   0.000   0.000
 Approx polarizability: 442.407  42.636 308.480   0.000   0.000 215.450
 D2PCM: PCM CHGder 2nd derivatives, FixD1E=F FixD2E=F DoIter=F DoCFld=F I1PDM=0
 Calling FoFJK, ICntrl=    100147 FMM=F ISym2X=0 I1Cent= 0 IOpClX= 0 NMat=1 NMatS=1 NMatT=0.
 ***** Axes restored to original set *****
 -------------------------------------------------------------------
 Center     Atomic                   Forces (Hartrees/Bohr)
 Number     Number              X              Y              Z
 -------------------------------------------------------------------
      1        7          -0.001104077   -0.003317337   -0.004302442
      2        6           0.002808673    0.010379564    0.011403757
      3        6          -0.008694473   -0.000151249   -0.006912553
      4        6           0.017337609    0.004061521    0.001494794
      5        8          -0.002979467    0.000772514   -0.002108959
      6        6          -0.009289566   -0.002326445    0.002778353
      7        6           0.000329221   -0.001415007   -0.003738908
      8        6           0.008873897    0.004113039    0.001941111
[...]
   167    C   12  S      Val( 2S)     0.95964
   168    C   12  S      Ryd( 3S)     0.00063
   169    C   12  S      Ryd( 4S)     0.00003
   170    C   12  px     Val( 2p)     1.05600
   171    C   12  px     Ryd( 3p)     0.00498
   172    C   12  py     Val( 2p)     1.18029
   173    C   12  py     Ryd( 3p)     0.00491
   174    C   12  pz     Val( 2p)     1.05216
   175    C   12  pz     Ryd( 3p)     0.00274
   176    C   12  dxy    Ryd( 3d)     0.00060
   177    C   12  dxz    Ryd( 3d)     0.00059
   178    C   12  dyz    Ryd( 3d)     0.00044
   179    C   12  dx2y2  Ryd( 3d)     0.00066
   180    C   12  dz2    Ryd( 3d)     0.00036

   181    C   13  S      Cor( 1S)     1.99904
   182    C   13  S      Val( 2S)     0.95973
   183    C   13  S      Ryd( 3S)     0.00058
   184    C   13  S      Ryd( 4S)     0.00003
   185    C   13  px     Val( 2p)     1.19014
   186    C   13  px     Ryd( 3p)     0.00425
   187    C   13  py     Val( 2p)     1.05753
   188    C   13  py     Ryd( 3p)     0.00393
   189    C   13  pz     Val( 2p)     1.05951
   190    C   13  pz     Ryd( 3p)     0.00242
   191    C   13  dxy    Ryd( 3d)     0.00051
   192    C   13  dxz    Ryd( 3d)     0.00044
   193    C   13  dyz    Ryd( 3d)     0.00048
   194    C   13  dx2y2  Ryd( 3d)     0.00072
   195    C   13  dz2    Ryd( 3d)     0.00038

   196    C   14  S      Cor( 1S)     1.99900
   197    C   14  S      Val( 2S)     0.84860
   198    C   14  S      Ryd( 3S)     0.00120
   199    C   14  S      Ryd( 4S)     0.00010
   200    C   14  px     Val( 2p)     0.98183
   201    C   14  px     Ryd( 3p)     0.00503
   202    C   14  py     Val( 2p)     0.99704
   203    C   14  py     Ryd( 3p)     0.00503
   204    C   14  pz     Val( 2p)     0.96642
   205    C   14  pz     Ryd( 3p)     0.00143
   206    C   14  dxy    Ryd( 3d)     0.00119
   207    C   14  dxz    Ryd( 3d)     0.00123
   208    C   14  dyz    Ryd( 3d)     0.00094
   209    C   14  dx2y2  Ryd( 3d)     0.00095
   210    C   14  dz2    Ryd( 3d)     0.00061

   211    N   15  S      Cor( 1S)     1.99949
   212    N   15  S      Val( 2S)     1.36239
   213    N   15  S      Ryd( 3S)     0.00012
   214    N   15  S      Ryd( 4S)     0.00001
   215    N   15  px     Val( 2p)     1.35261
   216    N   15  px     Ryd( 3p)     0.00204
   217    N   15  py     Val( 2p)     1.43666
   218    N   15  py     Ryd( 3p)     0.00251
   219    N   15  pz     Val( 2p)     1.63323
   220    N   15  pz     Ryd( 3p)     0.00317
   221    N   15  dxy    Ryd( 3d)     0.00067
   222    N   15  dxz    Ryd( 3d)     0.00041
   223    N   15  dyz    Ryd( 3d)     0.00110
   224    N   15  dx2y2  Ryd( 3d)     0.00035
   225    N   15  dz2    Ryd( 3d)     0.00071

   226    C   16  S      Cor( 1S)     1.99894
   227    C   16  S      Val( 2S)     0.95493
   228    C   16  S      Ryd( 3S)     0.00081
   229    C   16  S      Ryd( 4S)     0.00005
   230    C   16  px     Val( 2p)     1.06062
   231    C   16  px     Ryd( 3p)     0.00436
   232    C   16  py     Val( 2p)     1.18948
   233    C   16  py     Ryd( 3p)     0.00390
   234    C   16  pz     Val( 2p)     1.14312
   235    C   16  pz     Ryd( 3p)     0.00361
   236    C   16  dxy    Ryd( 3d)     0.00059
   237    C   16  dxz    Ryd( 3d)     0.00040
   238    C   16  dyz    Ryd( 3d)     0.00047
   239    C   16  dx2y2  Ryd( 3d)     0.00052
   240    C   16  dz2    Ryd( 3d)     0.00038

   241    C   17  S      Cor( 1S)     1.99901
   242    C   17  S      Val( 2S)     0.96253
   243    C   17  S      Ryd( 3S)     0.00066
   244    C   17  S      Ryd( 4S)     0.00004
   245    C   17  px     Val( 2p)     1.17920
   246    C   17  px     Ryd( 3p)     0.00356
   247    C   17  py     Val( 2p)     1.06063
   248    C   17  py     Ryd( 3p)     0.00220
   249    C   17  pz     Val( 2p)     1.09462
   250    C   17  pz     Ryd( 3p)     0.00415
   251    C   17  dxy    Ryd( 3d)     0.00048
   252    C   17  dxz    Ryd( 3d)     0.00054
   253    C   17  dyz    Ryd( 3d)     0.00067
   254    C   17  dx2y2  Ryd( 3d)     0.00049
   255    C   17  dz2    Ryd( 3d)     0.00062

   256    C   18  S      Cor( 1S)     1.99914
   257    C   18  S      Val( 2S)     0.94747
   258    C   18  S      Ryd( 3S)     0.00069
   259    C   18  S      Ryd( 4S)     0.00003
   260    C   18  px     Val( 2p)     1.04906
   261    C   18  px     Ryd( 3p)     0.00543
   262    C   18  py     Val( 2p)     1.11641
   263    C   18  py     Ryd( 3p)     0.00463
   264    C   18  pz     Val( 2p)     1.19428
   265    C   18  pz     Ryd( 3p)     0.00488
   266    C   18  dxy    Ryd( 3d)     0.00051
   267    C   18  dxz    Ryd( 3d)     0.00060
   268    C   18  dyz    Ryd( 3d)     0.00032
   269    C   18  dx2y2  Ryd( 3d)     0.00040
   270    C   18  dz2    Ryd( 3d)     0.00066

   271    C   19  S      Cor( 1S)     1.99901
   272    C   19  S      Val( 2S)     0.96253
   273    C   19  S      Ryd( 3S)     0.00066
   274    C   19  S      Ryd( 4S)     0.00004
   275    C   19  px     Val( 2p)     1.17920
   276    C   19  px     Ryd( 3p)     0.00356
   277    C   19  py     Val( 2p)     1.06061
   278    C   19  py     Ryd( 3p)     0.00220
   279    C   19  pz     Val( 2p)     1.09462
   280    C   19  pz     Ryd( 3p)     0.00415
   281    C   19  dxy    Ryd( 3d)     0.00048
   282    C   19  dxz    Ryd( 3d)     0.00054
   283    C   19  dyz    Ryd( 3d)     0.00067
   284    C   19  dx2y2  Ryd( 3d)     0.00049
   285    C   19  dz2    Ryd( 3d)     0.00062

   286    C   20  S      Cor( 1S)     1.99900
   287    C   20  S      Val( 2S)     0.97135
   288    C   20  S      Ryd( 3S)     0.00070
   289    C   20  S      Ryd( 4S)     0.00005
   290    C   20  px     Val( 2p)     1.15400
   291    C   20  px     Ryd( 3p)     0.00391
   292    C   20  py     Val( 2p)     1.11780
   293    C   20  py     Ryd( 3p)     0.00395
   294    C   20  pz     Val( 2p)     1.00926
   295    C   20  pz     Ryd( 3p)     0.00176
   296    C   20  dxy    Ryd( 3d)     0.00063
   297    C   20  dxz    Ryd( 3d)     0.00048
   298    C   20  dyz    Ryd( 3d)     0.00049
   299    C   20  dx2y2  Ryd( 3d)     0.00065
   300    C   20  dz2    Ryd( 3d)     0.00048

   301    C   21  S      Cor( 1S)     1.99914
   302    C   21  S      Val( 2S)     0.95964
   303    C   21  S      Ryd( 3S)     0.00063
   304    C   21  S      Ryd( 4S)     0.00003
   305    C   21  px     Val( 2p)     1.05599
   306    C   21  px     Ryd( 3p)     0.00498
   307    C   21  py     Val( 2p)     1.18029
   308    C   21  py     Ryd( 3p)     0.00491
   309    C   21  pz     Val( 2p)     1.05218
   310    C   21  pz     Ryd( 3p)     0.00274
   311    C   21  dxy    Ryd( 3d)     0.00060
   312    C   21  dxz    Ryd( 3d)     0.00059
   313    C   21  dyz    Ryd( 3d)     0.00044
   314    C   21  dx2y2  Ryd( 3d)     0.00066
   315    C   21  dz2    Ryd( 3d)     0.00036

   316    C   22  S      Cor( 1S)     1.99904
   317    C   22  S      Val( 2S)     0.95974
   318    C   22  S      Ryd( 3S)     0.00058
   319    C   22  S      Ryd( 4S)     0.00003
   320    C   22  px     Val( 2p)     1.19014
   321    C   22  px     Ryd( 3p)     0.00425
   322    C   22  py     Val( 2p)     1.05754
   323    C   22  py     Ryd( 3p)     0.00393
   324    C   22  pz     Val( 2p)     1.05950
   325    C   22  pz     Ryd( 3p)     0.00242
   326    C   22  dxy    Ryd( 3d)     0.00051
   327    C   22  dxz    Ryd( 3d)     0.00044
   328    C   22  dyz    Ryd( 3d)     0.00048
   329    C   22  dx2y2  Ryd( 3d)     0.00072
   330    C   22  dz2    Ryd( 3d)     0.00038

   331    H   23  S      Val( 1S)     0.57277
   332    H   23  S      Ryd( 2S)     0.00129
   333    H   23  px     Ryd( 2p)     0.00019
   334    H   23  py     Ryd( 2p)     0.00047
   335    H   23  pz     Ryd( 2p)     0.00058

   336    H   24  S      Val( 1S)     0.57268
   337    H   24  S      Ryd( 2S)     0.00107
   338    H   24  px     Ryd( 2p)     0.00054
   339    H   24  py     Ryd( 2p)     0.00030
   340    H   24  pz     Ryd( 2p)     0.00040

   341    H   25  S      Val( 1S)     0.74349
   342    H   25  S      Ryd( 2S)     0.00123
   343    H   25  px     Ryd( 2p)     0.00007
   344    H   25  py     Ryd( 2p)     0.00034
   345    H   25  pz     Ryd( 2p)     0.00018

   346    H   26  S      Val( 1S)     0.74940
   347    H   26  S      Ryd( 2S)     0.00135
   348    H   26  px     Ryd( 2p)     0.00005
   349    H   26  py     Ryd( 2p)     0.00019
   350    H   26  pz     Ryd( 2p)     0.00038

   351    H   27  S      Val( 1S)     0.73823
   352    H   27  S      Ryd( 2S)     0.00079
   353    H   27  px     Ryd( 2p)     0.00027
   354    H   27  py     Ryd( 2p)     0.00021
   355    H   27  pz     Ryd( 2p)     0.00012

   356    H   28  S      Val( 1S)     0.74731
   357    H   28  S      Ryd( 2S)     0.00075
   358    H   28  px     Ryd( 2p)     0.00008
   359    H   28  py     Ryd( 2p)     0.00037
   360    H   28  pz     Ryd( 2p)     0.00017

   361    H   29  S      Val( 1S)     0.74998
   362    H   29  S      Ryd( 2S)     0.00092
   363    H   29  px     Ryd( 2p)     0.00036
   364    H   29  py     Ryd( 2p)     0.00009
   365    H   29  pz     Ryd( 2p)     0.00015

   366    H   30  S      Val( 1S)     0.57277
   367    H   30  S      Ryd( 2S)     0.00129
   368    H   30  px     Ryd( 2p)     0.00019
   369    H   30  py     Ryd( 2p)     0.00047
   370    H   30  pz     Ryd( 2p)     0.00058

   371    H   31  S      Val( 1S)     0.57269
   372    H   31  S      Ryd( 2S)     0.00107
   373    H   31  px     Ryd( 2p)     0.00054
   374    H   31  py     Ryd( 2p)     0.00030
   375    H   31  pz     Ryd( 2p)     0.00040

   376    H   32  S      Val( 1S)     0.74349
   377    H   32  S      Ryd( 2S)     0.00123
   378    H   32  px     Ryd( 2p)     0.00007
   379    H   32  py     Ryd( 2p)     0.00034
   380    H   32  pz     Ryd( 2p)     0.00018

   381    H   33  S      Val( 1S)     0.74976
   382    H   33  S      Ryd( 2S)     0.00080
   383    H   33  px     Ryd( 2p)     0.00032
   384    H   33  py     Ryd( 2p)     0.00015
   385    H   33  pz     Ryd( 2p)     0.00014

   386    H   34  S      Val( 1S)     0.76033
   387    H   34  S      Ryd( 2S)     0.00067
   388    H   34  px     Ryd( 2p)     0.00007
   389    H   34  py     Ryd( 2p)     0.00018
   390    H   34  pz     Ryd( 2p)     0.00040

   391    H   35  S      Val( 1S)     0.74976
   392    H   35  S      Ryd( 2S)     0.00080
   393    H   35  px     Ryd( 2p)     0.00032
   394    H   35  py     Ryd( 2p)     0.00015
   395    H   35  pz     Ryd( 2p)     0.00014

   396    H   36  S      Val( 1S)     0.73823
   397    H   36  S      Ryd( 2S)     0.00078
   398    H   36  px     Ryd( 2p)     0.00027
   399    H   36  py     Ryd( 2p)     0.00021
   400    H   36  pz     Ryd( 2p)     0.00012

   401    H   37  S      Val( 1S)     0.74731
   402    H   37  S      Ryd( 2S)     0.00075
   403    H   37  px     Ryd( 2p)     0.00008
   404    H   37  py     Ryd( 2p)     0.00037
   405    H   37  pz     Ryd( 2p)     0.00017

   406    H   38  S      Val( 1S)     0.74998
   407    H   38  S      Ryd( 2S)     0.00092
   408    H   38  px     Ryd( 2p)     0.00036
   409    H   38  py     Ryd( 2p)     0.00009
   410    H   38  pz     Ryd( 2p)     0.00015

 WARNING:  1 low occupancy (<1.9990e) core orbital  found on  C    3
           1 low occupancy (<1.9990e) core orbital  found on  C    4
           1 low occupancy (<1.9990e) core orbital  found on  C    6
           1 low occupancy (<1.9990e) core orbital  found on  C    7
           1 low occupancy (<1.9990e) core orbital  found on  C    8
           1 low occupancy (<1.9990e) core orbital  found on  C   10
           1 low occupancy (<1.9990e) core orbital  found on  C   11
           1 low occupancy (<1.9990e) core orbital  found on  C   16
           1 low occupancy (<1.9990e) core orbital  found on  C   20


 Summary of Natural Population Analysis:                  
                                                          
                                       Natural Population 
                Natural  -----------------------------------------------
    Atom  No    Charge         Core      Valence    Rydberg      Total
 -----------------------------------------------------------------------
      N    1   -0.79544      1.99949     5.78485    0.01109     7.79544
      C    2    0.18939      1.99900     3.79390    0.01771     5.81061
      C    3   -0.36219      1.99894     4.34816    0.01508     6.36219
      C    4    0.30287      1.99875     3.67550    0.02288     5.69713
      O    5   -0.49697      1.99970     6.48568    0.01159     8.49697
      C    6    0.29877      1.99875     3.67958    0.02290     5.70123
      C    7   -0.42867      1.99895     4.41083    0.01889     6.42867
      C    8    0.29879      1.99875     3.67956    0.02290     5.70121
      O    9   -0.49698      1.99970     6.48569    0.01159     8.49698
      C   10    0.30287      1.99875     3.67550    0.02288     5.69713
      C   11   -0.26453      1.99900     4.25245    0.01308     6.26453
      C   12   -0.26316      1.99914     4.24808    0.01594     6.26316
      C   13   -0.27971      1.99904     4.26692    0.01375     6.27971
      C   14    0.18939      1.99900     3.79390    0.01771     5.81061
      N   15   -0.79547      1.99949     5.78489    0.01109     7.79547
      C   16   -0.36218      1.99894     4.34815    0.01508     6.36218
      C   17   -0.30940      1.99901     4.29697    0.01341     6.30940
      C   18   -0.32449      1.99914     4.30722    0.01813     6.32449
      C   19   -0.30938      1.99901     4.29696    0.01341     6.30938
      C   20   -0.26449      1.99900     4.25242    0.01308     6.26449
      C   21   -0.26318      1.99914     4.24809    0.01594     6.26318
      C   22   -0.27970      1.99904     4.26691    0.01375     6.27970
      H   23    0.42472      0.00000     0.57277    0.00252     0.57528
      H   24    0.42502      0.00000     0.57268    0.00230     0.57498
      H   25    0.25469      0.00000     0.74349    0.00182     0.74531
      H   26    0.24863      0.00000     0.74940    0.00197     0.75137
      H   27    0.26039      0.00000     0.73823    0.00138     0.73961
      H   28    0.25132      0.00000     0.74731    0.00137     0.74868
      H   29    0.24850      0.00000     0.74998    0.00152     0.75150
      H   30    0.42471      0.00000     0.57277    0.00252     0.57529
      H   31    0.42501      0.00000     0.57269    0.00230     0.57499
      H   32    0.25469      0.00000     0.74349    0.00182     0.74531
      H   33    0.24882      0.00000     0.74976    0.00142     0.75118
      H   34    0.23835      0.00000     0.76033    0.00132     0.76165
      H   35    0.24882      0.00000     0.74976    0.00142     0.75118
      H   36    0.26040      0.00000     0.73823    0.00138     0.73960
      H   37    0.25132      0.00000     0.74731    0.00137     0.74868
      H   38    0.24850      0.00000     0.74998    0.00152     0.75150
 =======================================================================
   * Total *   -0.00000     43.97974   109.64042    0.37984   154.00000

                                 Natural Population      
 --------------------------------------------------------
   Core                      43.97974 ( 99.9540% of  44)
   Valence                  109.64042 ( 99.6731% of 110)
   Natural Minimal Basis    153.62016 ( 99.7534% of 154)
   Natural Rydberg Basis      0.37984 (  0.2466% of 154)
 --------------------------------------------------------

    Atom  No          Natural Electron Configuration
 ----------------------------------------------------------------------------
      N    1      [core]2S( 1.36)2p( 4.42)3p( 0.01)
      C    2      [core]2S( 0.85)2p( 2.95)3p( 0.01)
      C    3      [core]2S( 0.95)2p( 3.39)3p( 0.01)
      C    4      [core]2S( 0.84)2p( 2.84)3p( 0.02)3d( 0.01)
      O    5      [core]2S( 1.57)2p( 4.92)3p( 0.01)3d( 0.01)
      C    6      [core]2S( 0.84)2p( 2.84)3p( 0.02)3d( 0.01)
      C    7      [core]2S( 0.95)2p( 3.46)3p( 0.02)
      C    8      [core]2S( 0.84)2p( 2.84)3p( 0.02)3d( 0.01)
      O    9      [core]2S( 1.57)2p( 4.92)3p( 0.01)3d( 0.01)
      C   10      [core]2S( 0.84)2p( 2.84)3p( 0.02)3d( 0.01)
      C   11      [core]2S( 0.97)2p( 3.28)3p( 0.01)
      C   12      [core]2S( 0.96)2p( 3.29)3p( 0.01)
      C   13      [core]2S( 0.96)2p( 3.31)3p( 0.01)
      C   14      [core]2S( 0.85)2p( 2.95)3p( 0.01)
      N   15      [core]2S( 1.36)2p( 4.42)3p( 0.01)
      C   16      [core]2S( 0.95)2p( 3.39)3p( 0.01)
      C   17      [core]2S( 0.96)2p( 3.33)3p( 0.01)
      C   18      [core]2S( 0.95)2p( 3.36)3p( 0.01)
      C   19      [core]2S( 0.96)2p( 3.33)3p( 0.01)
      C   20      [core]2S( 0.97)2p( 3.28)3p( 0.01)
      C   21      [core]2S( 0.96)2p( 3.29)3p( 0.01)
      C   22      [core]2S( 0.96)2p( 3.31)3p( 0.01)
      H   23            1S( 0.57)
      H   24            1S( 0.57)
      H   25            1S( 0.74)
      H   26            1S( 0.75)
      H   27            1S( 0.74)
      H   28            1S( 0.75)
      H   29            1S( 0.75)
      H   30            1S( 0.57)
      H   31            1S( 0.57)
      H   32            1S( 0.74)
      H   33            1S( 0.75)
      H   34            1S( 0.76)
      H   35            1S( 0.75)
      H   36            1S( 0.74)
      H   37            1S( 0.75)
      H   38            1S( 0.75)


 NBO analysis skipped by request.
 1\1\GINC-DRG2-W004\SP\RB3LYP TD-FC\6-31G(d,p)\C18H16N2O2\QDUEZ\17-Jul-
 2024\0\\# TD(NStates=10, Root=1) B3LYP/6-31G** SCRF=(Solvent=water) vo
 lume pop=NPA density=current Geom=AllCheck Guess=Read\\DKKYOQYISDAQER-
 UHFFFAOYSA-N_conf_1\\0,1\N,0,6.8108281415,1.9727126034,-0.6382986786\C
 ,0,5.8607326339,1.0237338879,-0.2705286176\C,0,4.5525718494,1.08998828
 33,-0.7835403878\C,0,3.5933228836,0.1730750503,-0.3634668985\O,0,2.355
 2281094,0.2455187918,-0.9897576294\C,0,1.1915078415,0.1954331652,-0.25
 040642\C,0,0.0744668562,-0.3197470096,-0.9098463579\C,0,-1.158325355,-
 0.3377502367,-0.255661598\O,0,-2.1960385552,-0.9290284995,-0.946261397
 9\C,0,-3.5091459874,-0.5346386658,-0.7213660283\C,0,-3.8858177555,0.81
 11044447,-0.7377675025\C,0,-5.2418368073,1.1118527692,-0.594554241\C,0
 ,-6.198015474,0.1093991913,-0.4487850798\C,0,-5.8093789534,-1.24408478
 72,-0.440275169\N,0,-6.7452070083,-2.2538754861,-0.2328039139\C,0,-4.4
 441395018,-1.555275171,-0.5749575175\C,0,-1.2848198761,0.1460609716,1.
 0510088989\C,0,-0.1541735709,0.6623405553,1.6849924855\C,0,1.088202745
 3,0.6986989309,1.0509443137\C,0,3.8892949491,-0.8267173543,0.567120092
 5\C,0,5.1876626665,-0.8800524296,1.0781433433\C,0,6.1668516139,0.02400
 74929,0.6727999869\H,0,6.6585171823,2.4083608972,-1.5386602591\H,0,7.7
 729280824,1.6804330397,-0.5263686131\H,0,4.2780563026,1.8480323931,-1.
 5104541804\H,0,0.1634891873,-0.7021279243,-1.9201639715\H,0,-3.1445542
 869,1.5911457109,-0.865914324\H,0,-5.560148511,2.1502940939,-0.6084854
 178\H,0,-7.2481930274,0.365908553,-0.3427917823\H,0,-6.4822867041,-3.1
 643566581,-0.5871144089\H,0,-7.6945818759,-2.0165907743,-0.4896601376\
 H,0,-4.1058437132,-2.5867451495,-0.5705974206\H,0,-2.2419252896,0.1178
 08247,1.5574429425\H,0,-0.2433547147,1.045398398,2.6970943839\H,0,1.95
 64967777,1.1084355274,1.5524485482\H,0,3.1323440588,-1.5397170496,0.87
 21015131\H,0,5.4435229143,-1.650782318,1.7995225257\H,0,7.1717621721,-
 0.0382534845,1.0804549457\\Version=ES64L-G16RevA.03\State=1-A\HF=-955.
 531221\RMSD=7.861e-09\Dipole=0.0470755,-0.1985235,-0.5240115\Quadrupol
 e=48.8370394,-19.6196336,-29.2174058,16.9201031,0.559473,-2.5214296\PG
 =C01 [X(C18H16N2O2)]\\@


 A MAN IS EXACTLY AS GREAT AS THE TIDE SURGING
 BENEATH HIM.      - BISMARCK
 Job cpu time:       0 days  1 hours 21 minutes 53.8 seconds.
 Elapsed time:       0 days  0 hours 27 minutes 23.0 seconds.
 File lengths (MBytes):  RWF=   1375 Int=      0 D2E=      0 Chk=     84 Scr=      1
 Normal termination of Gaussian 16 at Wed Jul 17 16:35:22 2024.
