 Entering Gaussian System, Link 0=g16
 Initial command:
 /opt/sw/arch/manual/gaussian/G16_A03/g16/l1.exe "/scratch/1380801/Gau-20892.inp" -scrdir="/scratch/1380801/"
 Entering Link 1 = /opt/sw/arch/manual/gaussian/G16_A03/g16/l1.exe PID=     20893.
  
 Copyright (c) 1988,1990,1992,1993,1995,1998,2003,2009,2016,
            Gaussian, Inc.  All Rights Reserved.
  
 This is part of the Gaussian(R) 16 program.  It is based on
 the Gaussian(R) 09 system (copyright 2009, Gaussian, Inc.),
 the Gaussian(R) 03 system (copyright 2003, Gaussian, Inc.),
 the Gaussian(R) 98 system (copyright 1998, Gaussian, Inc.),
 the Gaussian(R) 94 system (copyright 1995, Gaussian, Inc.),
 the Gaussian 92(TM) system (copyright 1992, Gaussian, Inc.),
 the Gaussian 90(TM) system (copyright 1990, Gaussian, Inc.),
 the Gaussian 88(TM) system (copyright 1988, Gaussian, Inc.),
 the Gaussian 86(TM) system (copyright 1986, Carnegie Mellon
 University), and the Gaussian 82(TM) system (copyright 1983,
 Carnegie Mellon University). Gaussian is a federally registered
 trademark of Gaussian, Inc.
  
 This software contains proprietary and confidential information,
 including trade secrets, belonging to Gaussian, Inc.
  
 This software is provided under written license and may be
 used, copied, transmitted, or stored only in accord with that
 written license.
  
 The following legend is applicable only to US Government
 contracts under FAR:
  
                    RESTRICTED RIGHTS LEGEND
  
 Use, reproduction and disclosure by the US Government is
 subject to restrictions as set forth in subparagraphs (a)
 and (c) of the Commercial Computer Software - Restricted
 Rights clause in FAR 52.227-19.
  
 Gaussian, Inc.
 340 Quinnipiac St., Bldg. 40, Wallingford CT 06492
  
  
 ---------------------------------------------------------------
 Warning -- This program may not be used in any manner that
 competes with the business of Gaussian, Inc. or will provide
 assistance to any competitor of Gaussian, Inc.  The licensee
 of this program is prohibited from giving any competitor of
 Gaussian, Inc. access to this program.  By using this program,
 the user acknowledges that Gaussian, Inc. is engaged in the
 business of creating and licensing software in the field of
 computational chemistry and represents and warrants to the
 licensee that it is not a competitor of Gaussian, Inc. and that
 it will not use this program in any manner prohibited above.
 ---------------------------------------------------------------
  

 Cite this work as:
 Gaussian 16, Revision A.03,
 M. J. Frisch, G. W. Trucks, H. B. Schlegel, G. E. Scuseria, 
 M. A. Robb, J. R. Cheeseman, G. Scalmani, V. Barone, 
 G. A. Petersson, H. Nakatsuji, X. Li, M. Caricato, A. V. Marenich, 
 J. Bloino, B. G. Janesko, R. Gomperts, B. Mennucci, H. P. Hratchian, 
 J. V. Ortiz, A. F. Izmaylov, J. L. Sonnenberg, D. Williams-Young, 
 F. Ding, F. Lipparini, F. Egidi, J. Goings, B. Peng, A. Petrone, 
 T. Henderson, D. Ranasinghe, V. G. Zakrzewski, J. Gao, N. Rega, 
 G. Zheng, W. Liang, M. Hada, M. Ehara, K. Toyota, R. Fukuda, 
 J. Hasegawa, M. Ishida, T. Nakajima, Y. Honda, O. Kitao, H. Nakai, 
 T. Vreven, K. Throssell, J. A. Montgomery, Jr., J. E. Peralta, 
 F. Ogliaro, M. J. Bearpark, J. J. Heyd, E. N. Brothers, K. N. Kudin, 
 V. N. Staroverov, T. A. Keith, R. Kobayashi, J. Normand, 
 K. Raghavachari, A. P. Rendell, J. C. Burant, S. S. Iyengar, 
 J. Tomasi, M. Cossi, J. M. Millam, M. Klene, C. Adamo, R. Cammi, 
 J. W. Ochterski, R. L. Martin, K. Morokuma, O. Farkas, 
 J. B. Foresman, and D. J. Fox, Gaussian, Inc., Wallingford CT, 2016.
 
 ******************************************
 Gaussian 16:  ES64L-G16RevA.03 25-Dec-2016
                17-Jul-2024 
 ******************************************
 %nprocshared=6
 Will use up to    6 processors via shared memory.
 %mem=12GB
 %Chk=DKKYOQYISDAQER-UHFFFAOYSA-N_conf_0_0.chk
 -------------------------------------------------------
 # opt=CalcFc B3LYP/6-31G** SCRF=(Solvent=water) scf=xqc
 -------------------------------------------------------
 1/10=4,18=20,19=15,26=3,38=1/1,3;
 2/9=110,12=2,17=6,18=5,40=1/2;
 3/5=1,6=6,7=101,11=2,25=1,30=1,70=2201,71=2,72=1,74=-5,140=1/1,2,3;
 4//1;
 5/5=2,8=3,13=1,38=5,53=1/2,8;
 8/6=4,10=90,11=11/1;
 11/6=1,8=1,9=11,15=111,16=1/1,2,10;
 10/6=1,13=1/2;
 6/7=2,8=2,9=2,10=2,28=1/1;
 7/10=1,18=20,25=1/1,2,3,16;
 1/10=4,18=20,19=15,26=3/3(2);
 2/9=110/2;
 99//99;
 2/9=110/2;
 3/5=1,6=6,7=101,11=2,25=1,30=1,70=2205,71=1,72=1,74=-5/1,2,3;
 4/5=5,16=3,69=1/1;
 5/5=2,8=3,13=1,38=5,53=1/2,8;
 7//1,2,3,16;
 1/18=20,19=15,26=3/3(-5);
 2/9=110/2;
 6/7=2,8=2,9=2,10=2,19=2,28=1/1;
 99/9=1/99;
 ----------------------------------
 DKKYOQYISDAQER-UHFFFAOYSA-N_conf_0
 ----------------------------------
 Symbolic Z-matrix:
 Charge =  0 Multiplicity = 1
 N                     6.66347  -0.8886    1.73306 
 C                     5.33522  -0.44885   1.68447 
 C                     4.34554  -1.25552   1.11802 
 C                     3.00401  -0.86797   1.16244 
 O                     2.08753  -1.71929   0.58702 
 C                     1.1287   -1.15728  -0.22536 
 C                    -0.18298  -1.59811  -0.05382 
 C                    -1.19487  -1.08339  -0.86351 
 O                    -2.46523  -1.57398  -0.66119 
 C                    -3.49684  -0.66265  -0.63592 
 C                    -4.6418   -0.98389  -1.36193 
 C                    -5.74229  -0.13143  -1.324 
 C                    -5.69125   1.03962  -0.56281 
 C                    -4.53351   1.38902   0.13927 
 N                    -4.5394    2.49478   0.99844 
 C                    -3.45715   0.49828   0.14413 
 C                    -0.89075  -0.16948  -1.87713 
 C                     0.42718   0.25224  -2.06036 
 C                     1.43948  -0.24399  -1.2375 
 C                     2.62748   0.29131   1.84223 
 C                     3.60226   1.06994   2.46188 
 C                     4.94574   0.6901    2.39598 
 H                     6.91917  -1.512     0.97374 
 H                     7.34003  -0.14435   1.86856 
 H                     4.61087  -2.19007   0.63242 
 H                    -0.41651  -2.33207   0.71176 
 H                    -4.68021  -1.90146  -1.94218 
 H                    -6.64669  -0.38546  -1.87007 
 H                    -6.57061   1.67648  -0.51699 
 H                    -5.17747   3.2318    0.71573 
 H                    -3.61357   2.84797   1.21942 
 H                    -2.58706   0.7041    0.75987 
 H                    -1.66974   0.20583  -2.53526 
 H                     0.66712   0.95694  -2.85232 
 H                     2.46611   0.07333  -1.39941 
 H                     1.58219   0.57652   1.91642 
 H                     3.31703   1.96135   3.01415 
 H                     5.68879   1.29024   2.91445 
 

 GradGradGradGradGradGradGradGradGradGradGradGradGradGradGradGradGradGrad
 Berny optimization.
 Initialization pass.
                           ----------------------------
                           !    Initial Parameters    !
                           ! (Angstroms and Degrees)  !
 --------------------------                            --------------------------
 ! Name  Definition              Value          Derivative Info.                !
 --------------------------------------------------------------------------------
 ! R1    R(1,2)                  1.4            calculate D2E/DX2 analytically  !
 ! R2    R(1,23)                 1.0152         calculate D2E/DX2 analytically  !
 ! R3    R(1,24)                 1.0149         calculate D2E/DX2 analytically  !
 ! R4    R(2,3)                  1.3968         calculate D2E/DX2 analytically  !
 ! R5    R(2,22)                 1.3983         calculate D2E/DX2 analytically  !
 ! R6    R(3,4)                  1.3971         calculate D2E/DX2 analytically  !
 ! R7    R(3,25)                 1.0861         calculate D2E/DX2 analytically  !
 ! R8    R(4,5)                  1.3769         calculate D2E/DX2 analytically  !
 ! R9    R(4,20)                 1.3956         calculate D2E/DX2 analytically  !
 ! R10   R(5,6)                  1.3767         calculate D2E/DX2 analytically  !
 ! R11   R(6,7)                  1.3944         calculate D2E/DX2 analytically  !
 ! R12   R(6,19)                 1.3983         calculate D2E/DX2 analytically  !
 ! R13   R(7,8)                  1.3944         calculate D2E/DX2 analytically  !
 ! R14   R(7,26)                 1.086          calculate D2E/DX2 analytically  !
 ! R15   R(8,9)                  1.3768         calculate D2E/DX2 analytically  !
 ! R16   R(8,17)                 1.3983         calculate D2E/DX2 analytically  !
 ! R17   R(9,10)                 1.3767         calculate D2E/DX2 analytically  !
 ! R18   R(10,11)                1.3933         calculate D2E/DX2 analytically  !
 ! R19   R(10,16)                1.3992         calculate D2E/DX2 analytically  !
 ! R20   R(11,12)                1.3926         calculate D2E/DX2 analytically  !
 ! R21   R(11,27)                1.0863         calculate D2E/DX2 analytically  !
 ! R22   R(12,13)                1.3976         calculate D2E/DX2 analytically  !
 ! R23   R(12,28)                1.0866         calculate D2E/DX2 analytically  !
 ! R24   R(13,14)                1.3983         calculate D2E/DX2 analytically  !
 ! R25   R(13,29)                1.0867         calculate D2E/DX2 analytically  !
 ! R26   R(14,15)                1.4003         calculate D2E/DX2 analytically  !
 ! R27   R(14,16)                1.3971         calculate D2E/DX2 analytically  !
 ! R28   R(15,30)                1.015          calculate D2E/DX2 analytically  !
 ! R29   R(15,31)                1.0153         calculate D2E/DX2 analytically  !
 ! R30   R(16,32)                1.0856         calculate D2E/DX2 analytically  !
 ! R31   R(17,18)                1.3958         calculate D2E/DX2 analytically  !
 ! R32   R(17,33)                1.0867         calculate D2E/DX2 analytically  !
 ! R33   R(18,19)                1.3957         calculate D2E/DX2 analytically  !
 ! R34   R(18,34)                1.0869         calculate D2E/DX2 analytically  !
 ! R35   R(19,35)                1.0867         calculate D2E/DX2 analytically  !
 ! R36   R(20,21)                1.393          calculate D2E/DX2 analytically  !
 ! R37   R(20,36)                1.086          calculate D2E/DX2 analytically  !
 ! R38   R(21,22)                1.3977         calculate D2E/DX2 analytically  !
 ! R39   R(21,37)                1.0867         calculate D2E/DX2 analytically  !
 ! R40   R(22,38)                1.0868         calculate D2E/DX2 analytically  !
 ! A1    A(2,1,23)             113.9481         calculate D2E/DX2 analytically  !
 ! A2    A(2,1,24)             114.0009         calculate D2E/DX2 analytically  !
 ! A3    A(23,1,24)            112.4743         calculate D2E/DX2 analytically  !
 ! A4    A(1,2,3)              120.3239         calculate D2E/DX2 analytically  !
 ! A5    A(1,2,22)             120.1635         calculate D2E/DX2 analytically  !
 ! A6    A(3,2,22)             118.647          calculate D2E/DX2 analytically  !
 ! A7    A(2,3,4)              120.4814         calculate D2E/DX2 analytically  !
 ! A8    A(2,3,25)             120.3425         calculate D2E/DX2 analytically  !
 ! A9    A(4,3,25)             119.1752         calculate D2E/DX2 analytically  !
 ! A10   A(3,4,5)              117.023          calculate D2E/DX2 analytically  !
 ! A11   A(3,4,20)             120.3286         calculate D2E/DX2 analytically  !
 ! A12   A(5,4,20)             122.5184         calculate D2E/DX2 analytically  !
 ! A13   A(4,5,6)              117.2452         calculate D2E/DX2 analytically  !
 ! A14   A(5,6,7)              116.9703         calculate D2E/DX2 analytically  !
 ! A15   A(5,6,19)             122.616          calculate D2E/DX2 analytically  !
 ! A16   A(7,6,19)             120.3068         calculate D2E/DX2 analytically  !
 ! A17   A(6,7,8)              119.6364         calculate D2E/DX2 analytically  !
 ! A18   A(6,7,26)             120.1779         calculate D2E/DX2 analytically  !
 ! A19   A(8,7,26)             120.1838         calculate D2E/DX2 analytically  !
 ! A20   A(7,8,9)              116.9182         calculate D2E/DX2 analytically  !
 ! A21   A(7,8,17)             120.2889         calculate D2E/DX2 analytically  !
 ! A22   A(9,8,17)             122.6922         calculate D2E/DX2 analytically  !
 ! A23   A(8,9,10)             117.2731         calculate D2E/DX2 analytically  !
 ! A24   A(9,10,11)            116.9744         calculate D2E/DX2 analytically  !
 ! A25   A(9,10,16)            122.5608         calculate D2E/DX2 analytically  !
 ! A26   A(11,10,16)           120.3384         calculate D2E/DX2 analytically  !
 ! A27   A(10,11,12)           119.6099         calculate D2E/DX2 analytically  !
 ! A28   A(10,11,27)           120.1412         calculate D2E/DX2 analytically  !
 ! A29   A(12,11,27)           120.2428         calculate D2E/DX2 analytically  !
 ! A30   A(11,12,13)           119.9263         calculate D2E/DX2 analytically  !
 ! A31   A(11,12,28)           120.0633         calculate D2E/DX2 analytically  !
 ! A32   A(13,12,28)           120.0            calculate D2E/DX2 analytically  !
 ! A33   A(12,13,14)           120.8668         calculate D2E/DX2 analytically  !
 ! A34   A(12,13,29)           118.9759         calculate D2E/DX2 analytically  !
 ! A35   A(14,13,29)           120.1559         calculate D2E/DX2 analytically  !
 ! A36   A(13,14,15)           120.124          calculate D2E/DX2 analytically  !
 ! A37   A(13,14,16)           118.7044         calculate D2E/DX2 analytically  !
 ! A38   A(15,14,16)           120.3013         calculate D2E/DX2 analytically  !
 ! A39   A(14,15,30)           113.8995         calculate D2E/DX2 analytically  !
 ! A40   A(14,15,31)           113.8546         calculate D2E/DX2 analytically  !
 ! A41   A(30,15,31)           112.4132         calculate D2E/DX2 analytically  !
 ! A42   A(10,16,14)           120.3432         calculate D2E/DX2 analytically  !
 ! A43   A(10,16,32)           119.7512         calculate D2E/DX2 analytically  !
 ! A44   A(14,16,32)           119.9048         calculate D2E/DX2 analytically  !
 ! A45   A(8,17,18)            119.867          calculate D2E/DX2 analytically  !
 ! A46   A(8,17,33)            120.5887         calculate D2E/DX2 analytically  !
 ! A47   A(18,17,33)           119.538          calculate D2E/DX2 analytically  !
 ! A48   A(17,18,19)           119.9992         calculate D2E/DX2 analytically  !
 ! A49   A(17,18,34)           119.998          calculate D2E/DX2 analytically  !
 ! A50   A(19,18,34)           119.9978         calculate D2E/DX2 analytically  !
 ! A51   A(6,19,18)            119.8528         calculate D2E/DX2 analytically  !
 ! A52   A(6,19,35)            120.568          calculate D2E/DX2 analytically  !
 ! A53   A(18,19,35)           119.5734         calculate D2E/DX2 analytically  !
 ! A54   A(4,20,21)            119.4843         calculate D2E/DX2 analytically  !
 ! A55   A(4,20,36)            120.7354         calculate D2E/DX2 analytically  !
 ! A56   A(21,20,36)           119.7578         calculate D2E/DX2 analytically  !
 ! A57   A(20,21,22)           119.9834         calculate D2E/DX2 analytically  !
 ! A58   A(20,21,37)           120.06           calculate D2E/DX2 analytically  !
 ! A59   A(22,21,37)           119.9443         calculate D2E/DX2 analytically  !
 ! A60   A(2,22,21)            120.8698         calculate D2E/DX2 analytically  !
 ! A61   A(2,22,38)            120.1402         calculate D2E/DX2 analytically  !
 ! A62   A(21,22,38)           118.9882         calculate D2E/DX2 analytically  !
 ! D1    D(23,1,2,3)            29.8181         calculate D2E/DX2 analytically  !
 ! D2    D(23,1,2,22)         -160.9751         calculate D2E/DX2 analytically  !
 ! D3    D(24,1,2,3)           160.7846         calculate D2E/DX2 analytically  !
 ! D4    D(24,1,2,22)          -30.0086         calculate D2E/DX2 analytically  !
 ! D5    D(1,2,3,4)            174.8983         calculate D2E/DX2 analytically  !
 ! D6    D(1,2,3,25)            -5.4381         calculate D2E/DX2 analytically  !
 ! D7    D(22,2,3,4)             5.5298         calculate D2E/DX2 analytically  !
 ! D8    D(22,2,3,25)         -174.8066         calculate D2E/DX2 analytically  !
 ! D9    D(1,2,22,21)         -173.8663         calculate D2E/DX2 analytically  !
 ! D10   D(1,2,22,38)            5.6499         calculate D2E/DX2 analytically  !
 ! D11   D(3,2,22,21)           -4.4803         calculate D2E/DX2 analytically  !
 ! D12   D(3,2,22,38)          175.0359         calculate D2E/DX2 analytically  !
 ! D13   D(2,3,4,5)           -179.7415         calculate D2E/DX2 analytically  !
 ! D14   D(2,3,4,20)            -3.7829         calculate D2E/DX2 analytically  !
 ! D15   D(25,3,4,5)             0.591          calculate D2E/DX2 analytically  !
 ! D16   D(25,3,4,20)          176.5497         calculate D2E/DX2 analytically  !
 ! D17   D(3,4,5,6)           -134.5167         calculate D2E/DX2 analytically  !
 ! D18   D(20,4,5,6)            49.6203         calculate D2E/DX2 analytically  !
 ! D19   D(3,4,20,21)            0.8544         calculate D2E/DX2 analytically  !
 ! D20   D(3,4,20,36)         -177.4179         calculate D2E/DX2 analytically  !
 ! D21   D(5,4,20,21)          176.5845         calculate D2E/DX2 analytically  !
 ! D22   D(5,4,20,36)           -1.6878         calculate D2E/DX2 analytically  !
 ! D23   D(4,5,6,7)           -135.2359         calculate D2E/DX2 analytically  !
 ! D24   D(4,5,6,19)            48.5168         calculate D2E/DX2 analytically  !
 ! D25   D(5,6,7,8)           -178.8627         calculate D2E/DX2 analytically  !
 ! D26   D(5,6,7,26)             1.6505         calculate D2E/DX2 analytically  !
 ! D27   D(19,6,7,8)            -2.5239         calculate D2E/DX2 analytically  !
 ! D28   D(19,6,7,26)          177.9894         calculate D2E/DX2 analytically  !
 ! D29   D(5,6,19,18)          177.5999         calculate D2E/DX2 analytically  !
 ! D30   D(5,6,19,35)           -1.5222         calculate D2E/DX2 analytically  !
 ! D31   D(7,6,19,18)            1.4741         calculate D2E/DX2 analytically  !
 ! D32   D(7,6,19,35)         -177.648          calculate D2E/DX2 analytically  !
 ! D33   D(6,7,8,9)            178.9483         calculate D2E/DX2 analytically  !
 ! D34   D(6,7,8,17)             2.4983         calculate D2E/DX2 analytically  !
 ! D35   D(26,7,8,9)            -1.5649         calculate D2E/DX2 analytically  !
 ! D36   D(26,7,8,17)         -178.015          calculate D2E/DX2 analytically  !
 ! D37   D(7,8,9,10)           135.989          calculate D2E/DX2 analytically  !
 ! D38   D(17,8,9,10)          -47.6535         calculate D2E/DX2 analytically  !
 ! D39   D(7,8,17,18)           -1.4236         calculate D2E/DX2 analytically  !
 ! D40   D(7,8,17,33)          177.6612         calculate D2E/DX2 analytically  !
 ! D41   D(9,8,17,18)         -177.6622         calculate D2E/DX2 analytically  !
 ! D42   D(9,8,17,33)            1.4227         calculate D2E/DX2 analytically  !
 ! D43   D(8,9,10,11)          134.5803         calculate D2E/DX2 analytically  !
 ! D44   D(8,9,10,16)          -49.4993         calculate D2E/DX2 analytically  !
 ! D45   D(9,10,11,12)         177.0022         calculate D2E/DX2 analytically  !
 ! D46   D(9,10,11,27)          -2.1007         calculate D2E/DX2 analytically  !
 ! D47   D(16,10,11,12)          0.986          calculate D2E/DX2 analytically  !
 ! D48   D(16,10,11,27)       -178.1169         calculate D2E/DX2 analytically  !
 ! D49   D(9,10,16,14)        -179.7091         calculate D2E/DX2 analytically  !
 ! D50   D(9,10,16,32)          -0.0324         calculate D2E/DX2 analytically  !
 ! D51   D(11,10,16,14)         -3.922          calculate D2E/DX2 analytically  !
 ! D52   D(11,10,16,32)        175.7547         calculate D2E/DX2 analytically  !
 ! D53   D(10,11,12,13)          0.1524         calculate D2E/DX2 analytically  !
 ! D54   D(10,11,12,28)       -178.6755         calculate D2E/DX2 analytically  !
 ! D55   D(27,11,12,13)        179.2544         calculate D2E/DX2 analytically  !
 ! D56   D(27,11,12,28)          0.4264         calculate D2E/DX2 analytically  !
 ! D57   D(11,12,13,14)          1.6361         calculate D2E/DX2 analytically  !
 ! D58   D(11,12,13,29)       -177.9323         calculate D2E/DX2 analytically  !
 ! D59   D(28,12,13,14)       -179.5352         calculate D2E/DX2 analytically  !
 ! D60   D(28,12,13,29)          0.8964         calculate D2E/DX2 analytically  !
 ! D61   D(12,13,14,15)       -173.8422         calculate D2E/DX2 analytically  !
 ! D62   D(12,13,14,16)         -4.4873         calculate D2E/DX2 analytically  !
 ! D63   D(29,13,14,15)          5.7212         calculate D2E/DX2 analytically  !
 ! D64   D(29,13,14,16)        175.0761         calculate D2E/DX2 analytically  !
 ! D65   D(13,14,15,30)        -30.3787         calculate D2E/DX2 analytically  !
 ! D66   D(13,14,15,31)       -161.067          calculate D2E/DX2 analytically  !
 ! D67   D(16,14,15,30)        160.4376         calculate D2E/DX2 analytically  !
 ! D68   D(16,14,15,31)         29.7493         calculate D2E/DX2 analytically  !
 ! D69   D(13,14,16,10)          5.6047         calculate D2E/DX2 analytically  !
 ! D70   D(13,14,16,32)       -174.0715         calculate D2E/DX2 analytically  !
 ! D71   D(15,14,16,10)        174.9402         calculate D2E/DX2 analytically  !
 ! D72   D(15,14,16,32)         -4.736          calculate D2E/DX2 analytically  !
 ! D73   D(8,17,18,19)           0.361          calculate D2E/DX2 analytically  !
 ! D74   D(8,17,18,34)         179.5479         calculate D2E/DX2 analytically  !
 ! D75   D(33,17,18,19)       -178.7336         calculate D2E/DX2 analytically  !
 ! D76   D(33,17,18,34)          0.4533         calculate D2E/DX2 analytically  !
 ! D77   D(17,18,19,6)          -0.3858         calculate D2E/DX2 analytically  !
 ! D78   D(17,18,19,35)        178.745          calculate D2E/DX2 analytically  !
 ! D79   D(34,18,19,6)        -179.5727         calculate D2E/DX2 analytically  !
 ! D80   D(34,18,19,35)         -0.4419         calculate D2E/DX2 analytically  !
 ! D81   D(4,20,21,22)           0.2075         calculate D2E/DX2 analytically  !
 ! D82   D(4,20,21,37)        -178.5152         calculate D2E/DX2 analytically  !
 ! D83   D(36,20,21,22)        178.4969         calculate D2E/DX2 analytically  !
 ! D84   D(36,20,21,37)         -0.2258         calculate D2E/DX2 analytically  !
 ! D85   D(20,21,22,2)           1.6452         calculate D2E/DX2 analytically  !
 ! D86   D(20,21,22,38)       -177.8764         calculate D2E/DX2 analytically  !
 ! D87   D(37,21,22,2)        -179.6306         calculate D2E/DX2 analytically  !
 ! D88   D(37,21,22,38)          0.8477         calculate D2E/DX2 analytically  !
 --------------------------------------------------------------------------------
 Trust Radius=3.00D-01 FncErr=1.00D-07 GrdErr=1.00D-06 EigMax=2.50D+02 EigMin=1.00D-04
 Number of steps in this run=    200 maximum allowed number of steps=    228.
 GradGradGradGradGradGradGradGradGradGradGradGradGradGradGradGradGradGrad

                          Input orientation:                          
 ---------------------------------------------------------------------
 Center     Atomic      Atomic             Coordinates (Angstroms)
 Number     Number       Type             X           Y           Z
 ---------------------------------------------------------------------
      1          7           0        6.663465   -0.888605    1.733061
      2          6           0        5.335223   -0.448847    1.684475
      3          6           0        4.345545   -1.255522    1.118024
      4          6           0        3.004008   -0.867970    1.162438
      5          8           0        2.087529   -1.719295    0.587023
      6          6           0        1.128700   -1.157285   -0.225357
      7          6           0       -0.182983   -1.598113   -0.053818
      8          6           0       -1.194868   -1.083387   -0.863506
      9          8           0       -2.465232   -1.573981   -0.661185
     10          6           0       -3.496842   -0.662652   -0.635924
     11          6           0       -4.641798   -0.983886   -1.361931
     12          6           0       -5.742295   -0.131428   -1.323996
     13          6           0       -5.691250    1.039621   -0.562812
     14          6           0       -4.533510    1.389019    0.139275
     15          7           0       -4.539402    2.494784    0.998438
     16          6           0       -3.457148    0.498283    0.144126
     17          6           0       -0.890750   -0.169481   -1.877129
     18          6           0        0.427181    0.252239   -2.060363
     19          6           0        1.439480   -0.243994   -1.237502
     20          6           0        2.627485    0.291306    1.842234
     21          6           0        3.602256    1.069941    2.461880
     22          6           0        4.945745    0.690102    2.395984
     23          1           0        6.919174   -1.511997    0.973736
     24          1           0        7.340027   -0.144349    1.868563
     25          1           0        4.610868   -2.190071    0.632416
     26          1           0       -0.416511   -2.332071    0.711755
     27          1           0       -4.680213   -1.901461   -1.942177
     28          1           0       -6.646689   -0.385465   -1.870073
     29          1           0       -6.570605    1.676478   -0.516992
     30          1           0       -5.177470    3.231796    0.715733
     31          1           0       -3.613575    2.847975    1.219424
     32          1           0       -2.587060    0.704100    0.759868
     33          1           0       -1.669736    0.205833   -2.535261
     34          1           0        0.667124    0.956941   -2.852322
     35          1           0        2.466113    0.073331   -1.399409
     36          1           0        1.582187    0.576520    1.916418
     37          1           0        3.317034    1.961349    3.014150
     38          1           0        5.688791    1.290241    2.914448
 ---------------------------------------------------------------------
                    Distance matrix (angstroms):
                    1          2          3          4          5
     1  N    0.000000
     2  C    1.399991   0.000000
     3  C    2.426037   1.396801   0.000000
     4  C    3.703736   2.425438   1.397100   0.000000
     5  O    4.789848   3.655948   2.365520   1.376877   0.000000
     6  C    5.877178   4.673775   3.487465   2.350843   1.376651
     7  C    7.111273   5.898565   4.690219   3.488453   2.362327
     8  C    8.278497   7.038248   5.886618   4.667057   3.644522
     9  O    9.462308   8.222843   7.046537   5.808326   4.723005
    10  C   10.435276   9.134295   8.057969   6.748135   5.813544
    11  C   11.721648  10.445468   9.327181   8.052592   7.044366
    12  C   12.799289  11.483164  10.439902   9.122646   8.214588
    13  C   12.713303  11.351164  10.432168   9.067685   8.333254
    14  C   11.536896  10.156637   9.316070   7.934421   7.328045
    15  N   11.725665  10.326850   9.644759   8.260633   7.864091
    16  C   10.338036   8.976386   8.056446   6.682076   5.988092
    17  C    8.403379   7.178147   6.129372   4.989589   4.164626
    18  C    7.388019   6.213228   5.265839   4.275670   3.694909
    19  C    6.043988   4.874087   3.875165   2.932032   2.434208
    20  C    4.206334   2.811505   2.422579   1.395640   2.430971
    21  C    3.706491   2.431923   2.786791   2.408724   3.686370
    22  C    2.425354   1.398264   2.403929   2.778410   4.152942
    23  H    1.015175   2.035765   2.590399   3.972267   4.851527
    24  H    1.014896   2.036136   3.280997   4.452336   5.631300
    25  H    2.668031   2.159485   1.086090   2.147294   2.567281
    26  H    7.297446   6.129858   4.899101   3.747887   2.580943
    27  H   11.967133  10.750425   9.552296   8.351886   7.227196
    28  H   13.798403  12.498201  11.424313  10.127432   9.170768
    29  H   13.666858  12.292771  11.420694  10.048280   9.365544
    30  H   12.578570  11.180443  10.534974   9.162108   8.792615
    31  H   10.947301   9.548104   8.955253   7.589723   7.332289
    32  H    9.436950   8.058955   7.213141   5.821813   5.268254
    33  H    9.426485   8.203915   7.187883   6.055570   5.250887
    34  H    7.770964   6.659572   5.847171   4.990954   4.583544
    35  H    5.324984   4.244384   3.411097   2.781805   2.702359
    36  H    5.291465   3.897493   3.410273   2.162548   2.700634
    37  H    4.578431   3.413234   3.873162   3.395860   4.577091
    38  H    2.663275   2.159230   3.392987   3.864644   5.238635
                    6          7          8          9         10
     6  C    0.000000
     7  C    1.394370   0.000000
     8  C    2.410739   1.394435   0.000000
     9  O    3.644164   2.361808   1.376750   0.000000
    10  C    4.669997   3.492219   2.351148   1.376727   0.000000
    11  C    5.883920   4.687160   3.484201   2.361503   1.393270
    12  C    7.033488   5.888163   4.668765   3.641348   2.407841
    13  C    7.173004   6.128435   4.981468   4.153045   2.778219
    14  C    6.219102   5.280845   4.273744   3.701064   2.425895
    15  N    6.852931   6.069385   5.239852   4.859154   3.705060
    16  C    4.889522   3.892841   2.938522   2.434481   1.399223
    17  C    2.789674   2.422062   1.398264   2.435187   2.928400
    18  C    2.417878   2.796842   2.418141   3.695786   4.273641
    19  C    1.398256   2.422216   2.790025   4.165067   4.990435
    20  C    2.935933   3.881191   4.880696   5.973455   6.675229
    21  C    4.277880   5.270227   6.221529   7.318352   7.936969
    22  C    4.985388   6.127096   7.174724   8.330362   9.071917
    23  H    5.923954   7.176624   8.330477   9.525959  10.573826
    24  H    6.632581   7.899663   9.010574  10.226758  11.134578
    25  H    3.732012   4.878764   6.096647   7.219707   8.347255
    26  H    2.155454   1.085971   2.155575   2.580102   3.753884
    27  H    6.102846   4.887023   3.739038   2.579597   2.154370
    28  H    7.984827   6.822667   5.587720   4.512046   3.394332
    29  H    8.209419   7.192996   6.052725   5.238355   3.864414
    30  H    7.740637   6.990360   6.080783   5.687498   4.451765
    31  H    6.373277   5.758281   5.064025   4.940554   3.972460
    32  H    4.271099   3.426639   2.787230   2.687728   2.154982
    33  H    3.876208   3.409137   2.163874   2.704202   2.774899
    34  H    3.403519   3.883633   3.403725   4.584572   4.987396
    35  H    2.163674   3.409113   3.876593   5.251359   6.056518
    36  H    2.792656   3.424425   4.265596   5.258354   5.817777
    37  H    5.000908   5.859378   6.683105   7.709814   8.163169
    38  H    6.053362   7.185466   8.203159   9.352915  10.039661
                   11         12         13         14         15
    11  C    0.000000
    12  C    1.392557   0.000000
    13  C    2.415475   1.397628   0.000000
    14  C    2.809986   2.431889   1.398344   0.000000
    15  N    4.205112   3.706432   2.425232   1.400326   0.000000
    16  C    2.422484   2.788156   2.404999   1.397136   2.426343
    17  C    3.872861   4.883123   5.121929   4.445729   5.355358
    18  C    5.264064   6.225100   6.348057   5.544288   6.249177
    19  C    6.127387   7.183177   7.276687   6.343410   6.946032
    20  C    8.045823   8.958623   8.691695   7.442102   7.545302
    21  C    9.316876  10.153658   9.773379   8.466817   8.393953
    22  C   10.432888  11.346689  11.046370   9.769211   9.755923
    23  H   11.806368  12.942115  12.957412  11.843825  12.138941
    24  H   12.438049  13.466245  13.308927  12.096385  12.200122
    25  H    9.541705  10.735620  10.862463   9.832228  10.286363
    26  H    4.896002   6.111554   6.388717   5.578882   6.354443
    27  H    1.086327   2.154805   3.402177   3.896309   5.290937
    28  H    2.153114   1.086583   2.157004   3.413473   4.578738
    29  H    3.392897   2.146131   1.086717   2.159416   2.663069
    30  H    4.730286   3.973764   2.589262   2.035391   1.015007
    31  H    4.733264   4.458394   3.280738   2.035081   1.015251
    32  H    3.401951   3.872480   3.390877   2.154743   2.659907
    33  H    3.409588   4.262234   4.556131   4.093198   5.095224
    34  H    5.845745   6.678397   6.758521   6.015225   6.655917
    35  H    7.186203   8.211308   8.256887   7.286515   7.790401
    36  H    7.205583   8.040492   7.698306   6.420291   6.480453
    37  H    9.548167  10.260149   9.736190   8.379946   8.128421
    38  H   11.409651  12.274171  11.902078  10.592770  10.475588
                   16         17         18         19         20
    16  C    0.000000
    17  C    3.334333   0.000000
    18  C    4.473066   1.395838   0.000000
    19  C    5.141676   2.417570   1.395742   0.000000
    20  C    6.320535   5.140424   4.480304   3.344050   0.000000
    21  C    7.452111   6.367909   5.585733   4.482126   1.392988
    22  C    8.701509   7.284439   6.361460   5.135041   2.416611
    23  H   10.601770   8.421680   7.379990   6.043547   4.735482
    24  H   10.952883   9.043038   7.961230   6.668885   4.732710
    25  H    8.518131   6.375609   5.542488   4.164314   3.399220
    26  H    4.192682   3.406468   3.882669   3.406519   4.174446
    27  H    3.406952   4.167015   5.544174   6.379216   8.516597
    28  H    3.874426   5.759994   7.105104   8.112107  10.012469
    29  H    3.393942   6.125218   7.306125   8.268543   9.596328
    30  H    3.279990   6.055377   6.927957   7.725301   8.416223
    31  H    2.588781   5.109545   5.815716   6.413276   6.773129
    32  H    1.085611   3.254898   4.152533   4.593625   5.341665
    33  H    3.234112   1.086655   2.150522   3.399080   6.134809
    34  H    5.118465   2.155643   1.086911   2.155556   5.130783
    35  H    6.135805   3.399368   2.150840   1.086685   3.252968
    36  H    5.342474   4.589437   4.153792   3.262027   1.086047
    37  H    7.501142   6.794886   6.084651   5.144442   2.153580
    38  H    9.589060   8.269241   7.315103   6.135895   3.393982
                   21         22         23         24         25
    21  C    0.000000
    22  C    1.397706   0.000000
    23  H    4.459027   3.281227   0.000000
    24  H    3.974602   2.589801   1.687689   0.000000
    25  H    3.871939   3.393775   2.429930   3.627857   0.000000
    26  H    5.548614   6.381531   7.386030   8.141758   5.030010
    27  H    9.839931  10.871748  11.966620  12.731667   9.645517
    28  H   11.221626  12.399218  13.906436  14.479771  11.672687
    29  H   10.617376  11.919928  13.941406  14.230671  11.886828
    30  H    9.209031  10.571799  12.996113  13.015956  11.189957
    31  H    7.534807   8.905204  11.402128  11.373512   9.662708
    32  H    6.429488   7.708451   9.763468  10.024776   7.759035
    33  H    7.315190   8.265367   9.435750  10.034547   7.431051
    34  H    6.071944   6.776615   7.734501   8.247862   6.131900
    35  H    4.146517   4.575367   5.289124   5.872143   3.721730
    36  H    2.149808   3.399472   5.808097   5.802988   4.298324
    37  H    1.086720   2.156594   5.403965   4.683035   4.957917
    38  H    2.146387   1.086780   3.623913   2.424563   4.299088
                   26         27         28         29         30
    26  H    0.000000
    27  H    5.040628   0.000000
    28  H    7.019276   2.484044   0.000000
    29  H    7.446554   4.290267   2.467433   0.000000
    30  H    7.322798   5.801903   4.682902   2.424758   0.000000
    31  H    6.108341   5.804359   5.403693   3.623752   1.687244
    32  H    3.732550   4.297823   4.958258   4.294709   3.619589
    33  H    4.307511   3.722285   5.055904   5.500430   5.659471
    34  H    4.969357   6.131300   7.500582   7.639125   7.215627
    35  H    4.307261   7.434001   9.136475   9.220142   8.536632
    36  H    3.729063   7.761881   9.109189   8.579010   7.361053
    37  H    6.137901  10.170665  11.341910  10.503119   8.891195
    38  H    7.432881  11.886547  13.336555  12.736434  11.255204
                   31         32         33         34         35
    31  H    0.000000
    32  H    2.420976   0.000000
    33  H    4.985688   3.456534   0.000000
    34  H    6.203185   4.868424   2.474997   0.000000
    35  H    7.177711   5.531266   4.291033   2.475496   0.000000
    36  H    5.713252   4.328568   5.525384   4.870620   3.468318
    37  H    7.213909   6.443662   7.664572   6.515086   4.875261
    38  H    9.582987   8.571784   9.220802   7.654009   5.520497
                   36         37         38
    36  H    0.000000
    37  H    2.476380   0.000000
    38  H    4.285984   2.466893   0.000000
 Stoichiometry    C18H16N2O2
 Framework group  C1[X(C18H16N2O2)]
 Deg. of freedom   108
 Full point group                 C1      NOp   1
 Largest Abelian subgroup         C1      NOp   1
 Largest concise Abelian subgroup C1      NOp   1
                         Standard orientation:                         
 ---------------------------------------------------------------------
 Center     Atomic      Atomic             Coordinates (Angstroms)
 Number     Number       Type             X           Y           Z
 ---------------------------------------------------------------------
      1          7           0       -6.907738   -0.085962   -0.072597
      2          6           0       -5.570889    0.329035   -0.048304
      3          6           0       -4.549960   -0.560598   -0.390812
      4          6           0       -3.225653   -0.122760   -0.470789
      5          8           0       -2.277474   -1.058212   -0.819611
      6          6           0       -1.115893   -1.083801   -0.081204
      7          6           0        0.081117   -1.187392   -0.788808
      8          6           0        1.289604   -1.242067   -0.095253
      9          8           0        2.435370   -1.366504   -0.848364
     10          6           0        3.507233   -0.575110   -0.501687
     11          6           0        4.755726   -1.191041   -0.446043
     12          6           0        5.886623   -0.429510   -0.162571
     13          6           0        5.763040    0.943584    0.066997
     14          6           0        4.509923    1.563883    0.049932
     15          7           0        4.413926    2.957089    0.153253
     16          6           0        3.389543    0.803735   -0.294906
     17          6           0        1.300728   -1.246008    1.302961
     18          6           0        0.098699   -1.164969    2.007889
     19          6           0       -1.111620   -1.087821    1.317040
     20          6           0       -2.916881    1.225751   -0.286422
     21          6           0       -3.937744    2.130457   -0.004004
     22          6           0       -5.258435    1.684178    0.096959
     23          1           0       -7.036275   -1.073537    0.124261
     24          1           0       -7.532477    0.502199    0.469418
     25          1           0       -4.775927   -1.603493   -0.593051
     26          1           0        0.072765   -1.216892   -1.874346
     27          1           0        4.847360   -2.256478   -0.637236
     28          1           0        6.866573   -0.898323   -0.138569
     29          1           0        6.659458    1.528973    0.253300
     30          1           0        5.158994    3.381461    0.696412
     31          1           0        3.495112    3.285679    0.433514
     32          1           0        2.423062    1.284952   -0.408462
     33          1           0        2.237189   -1.326606    1.848272
     34          1           0        0.104343   -1.175271    3.094737
     35          1           0       -2.044567   -1.045641    1.872663
     36          1           0       -1.895376    1.580228   -0.388263
     37          1           0       -3.711183    3.186340    0.117414
     38          1           0       -6.046504    2.408963    0.283297
 ---------------------------------------------------------------------
 Rotational constants (GHZ):           0.7577578           0.1080027           0.1003325
 Standard basis: 6-31G(d,p) (6D, 7F)
 There are   410 symmetry adapted cartesian basis functions of A   symmetry.
 There are   410 symmetry adapted basis functions of A   symmetry.
   410 basis functions,   728 primitive gaussians,   410 cartesian basis functions
    77 alpha electrons       77 beta electrons
       nuclear repulsion energy      1595.5256988662 Hartrees.
 NAtoms=   38 NActive=   38 NUniq=   38 SFac= 1.00D+00 NAtFMM=   60 NAOKFM=F Big=F
 Integral buffers will be    131072 words long.
 Raffenetti 2 integral format.
 Two-electron integral symmetry is turned on.
 Force inversion solution in PCM.
 ------------------------------------------------------------------------------
 Polarizable Continuum Model (PCM)
 =================================
 Model                : PCM.
 Atomic radii         : UFF (Universal Force Field).
 Polarization charges : Total charges.
 Charge compensation  : None.
 Solution method      : Matrix inversion.
 Cavity type          : Scaled VdW (van der Waals Surface) (Alpha=1.100).
 Cavity algorithm     : GePol (No added spheres)
                        Default sphere list used, NSphG=   38.
                        Lebedev-Laikov grids with approx.  5.0 points / Ang**2.
                        Smoothing algorithm: York/Karplus (Gamma=1.0000).
                        Polarization charges: spherical gaussians, with
                                              point-specific exponents (IZeta= 3).
                        Self-potential: point-specific (ISelfS= 7).
                        Self-field    : sphere-specific E.n sum rule (ISelfD= 2).
 1st derivatives      : Analytical E(r).r(x)/FMM algorithm (CHGder, D1EAlg=3).
                        Cavity 1st derivative terms included.
 2nd derivatives      : Analytical E(r).r(xy)/FMM algorithm (CHGder, D2EAlg=3).
                        Cavity 2nd derivative terms included.
 Solvent              : Water, Eps=  78.355300 Eps(inf)=   1.777849
 ------------------------------------------------------------------------------
 One-electron integrals computed using PRISM.
 NBasis=   410 RedAO= T EigKep=  4.22D-04  NBF=   410
 NBsUse=   410 1.00D-06 EigRej= -1.00D+00 NBFU=   410
 ExpMin= 1.61D-01 ExpMax= 5.48D+03 ExpMxC= 8.25D+02 IAcc=3 IRadAn=         5 AccDes= 0.00D+00
 Harris functional with IExCor=  402 and IRadAn=       5 diagonalized for initial guess.
 HarFok:  IExCor=  402 AccDes= 0.00D+00 IRadAn=         5 IDoV= 1 UseB2=F ITyADJ=14
 ICtDFT=  3500011 ScaDFX=  1.000000  1.000000  1.000000  1.000000
 FoFCou: FMM=F IPFlag=           0 FMFlag=      100000 FMFlg1=           0
         NFxFlg=           0 DoJE=T BraDBF=F KetDBF=T FulRan=T
         wScrn=  0.000000 ICntrl=       500 IOpCl=  0 I1Cent=   200000004 NGrid=           0
         NMat0=    1 NMatS0=      1 NMatT0=    0 NMatD0=    1 NMtDS0=    0 NMtDT0=    0
 Petite list used in FoFCou.
 Requested convergence on RMS density matrix=1.00D-08 within  32 cycles.
 Requested convergence on MAX density matrix=1.00D-06.
 Requested convergence on             energy=1.00D-06.
 No special actions if energy rises.
 Inv3:  Mode=1 IEnd=    26605452.
 Iteration    1 A*A^-1 deviation from unit magnitude is 3.33D-15 for   1093.
 Iteration    1 A*A^-1 deviation from orthogonality  is 2.22D-15 for   2449    193.
 Iteration    1 A^-1*A deviation from unit magnitude is 3.55D-15 for    901.
 Iteration    1 A^-1*A deviation from orthogonality  is 2.98D-15 for   2462   2449.
 Error on total polarization charges =  0.01085
 SCF Done:  E(RB3LYP) =  -955.525549749     A.U. after   12 cycles
            NFock= 12  Conv=0.76D-08     -V/T= 2.0094
 QCSCF skips out because SCF is already converged.
 DoSCS=F DFT=T ScalE2(SS,OS)=  1.000000  1.000000
 Range of M.O.s used for correlation:     1   410
 NBasis=   410 NAE=    77 NBE=    77 NFC=     0 NFV=     0
 NROrb=    410 NOA=    77 NOB=    77 NVA=   333 NVB=   333
 Symmetrizing basis deriv contribution to polar:
 IMax=3 JMax=2 DiffMx= 0.00D+00
 G2DrvN: will do    39 centers at a time, making    1 passes.
 Calling FoFCou, ICntrl=  3107 FMM=F I1Cent=   0 AccDes= 0.00D+00.
 NEqPCM:  Using equilibrium solvation (IEInf=0, Eps=  78.3553, EpsInf=   1.7778)
 G2PCM: DoFxE=T DoFxN=T DoGrad=T DoDP/DQ/DG/TGxP=FFFF NFrqRd=   0 IEInf=0 SqF1=F DoCFld=F IF1Alg=4.
 End of G2Drv F.D. properties file   721 does not exist.
 End of G2Drv F.D. properties file   722 does not exist.
 End of G2Drv F.D. properties file   788 does not exist.
          IDoAtm=11111111111111111111111111111111111111
 NEqPCM:  Using equilibrium solvation (IEInf=0, Eps=  78.3553, EpsInf=   1.7778)
          Differentiating once with respect to nuclear coordinates.
 CalDSu exits because no D1Ps are significant.
          There are   117 degrees of freedom in the 1st order CPHF.  IDoFFX=6 NUNeed=     0.
    111 vectors produced by pass  0 Test12= 2.56D-14 1.00D-09 XBig12= 1.38D-01 1.30D-01.
 AX will form   111 AO Fock derivatives at one time.
    111 vectors produced by pass  1 Test12= 2.56D-14 1.00D-09 XBig12= 2.53D-02 3.44D-02.
    111 vectors produced by pass  2 Test12= 2.56D-14 1.00D-09 XBig12= 2.60D-04 1.88D-03.
    111 vectors produced by pass  3 Test12= 2.56D-14 1.00D-09 XBig12= 8.25D-07 8.12D-05.
    111 vectors produced by pass  4 Test12= 2.56D-14 1.00D-09 XBig12= 1.24D-09 2.72D-06.
     85 vectors produced by pass  5 Test12= 2.56D-14 1.00D-09 XBig12= 1.30D-12 9.97D-08.
     24 vectors produced by pass  6 Test12= 2.56D-14 1.00D-09 XBig12= 1.29D-15 2.97D-09.
 InvSVY:  IOpt=1 It=  1 EMax= 5.00D-16
 Solved reduced A of dimension   664 with   117 vectors.
 End of Minotr F.D. properties file   721 does not exist.
 End of Minotr F.D. properties file   722 does not exist.
 End of Minotr F.D. properties file   788 does not exist.

 **********************************************************************

            Population analysis using the SCF density.

 **********************************************************************

 Orbital symmetries:
       Occupied  (A) (A) (A) (A) (A) (A) (A) (A) (A) (A) (A) (A)
                 (A) (A) (A) (A) (A) (A) (A) (A) (A) (A) (A) (A)
                 (A) (A) (A) (A) (A) (A) (A) (A) (A) (A) (A) (A)
                 (A) (A) (A) (A) (A) (A) (A) (A) (A) (A) (A) (A)
                 (A) (A) (A) (A) (A) (A) (A) (A) (A) (A) (A) (A)
                 (A) (A) (A) (A) (A) (A) (A) (A) (A) (A) (A) (A)
                 (A) (A) (A) (A) (A)
       Virtual   (A) (A) (A) (A) (A) (A) (A) (A) (A) (A) (A) (A)
                 (A) (A) (A) (A) (A) (A) (A) (A) (A) (A) (A) (A)
                 (A) (A) (A) (A) (A) (A) (A) (A) (A) (A) (A) (A)
                 (A) (A) (A) (A) (A) (A) (A) (A) (A) (A) (A) (A)
                 (A) (A) (A) (A) (A) (A) (A) (A) (A) (A) (A) (A)
                 (A) (A) (A) (A) (A) (A) (A) (A) (A) (A) (A) (A)
                 (A) (A) (A) (A) (A) (A) (A) (A) (A) (A) (A) (A)
                 (A) (A) (A) (A) (A) (A) (A) (A) (A) (A) (A) (A)
                 (A) (A) (A) (A) (A) (A) (A) (A) (A) (A) (A) (A)
                 (A) (A) (A) (A) (A) (A) (A) (A) (A) (A) (A) (A)
                 (A) (A) (A) (A) (A) (A) (A) (A) (A) (A) (A) (A)
                 (A) (A) (A) (A) (A) (A) (A) (A) (A) (A) (A) (A)
                 (A) (A) (A) (A) (A) (A) (A) (A) (A) (A) (A) (A)
                 (A) (A) (A) (A) (A) (A) (A) (A) (A) (A) (A) (A)
                 (A) (A) (A) (A) (A) (A) (A) (A) (A) (A) (A) (A)
                 (A) (A) (A) (A) (A) (A) (A) (A) (A) (A) (A) (A)
                 (A) (A) (A) (A) (A) (A) (A) (A) (A) (A) (A) (A)
                 (A) (A) (A) (A) (A) (A) (A) (A) (A) (A) (A) (A)
                 (A) (A) (A) (A) (A) (A) (A) (A) (A) (A) (A) (A)
                 (A) (A) (A) (A) (A) (A) (A) (A) (A) (A) (A) (A)
                 (A) (A) (A) (A) (A) (A) (A) (A) (A) (A) (A) (A)
                 (A) (A) (A) (A) (A) (A) (A) (A) (A) (A) (A) (A)
                 (A) (A) (A) (A) (A) (A) (A) (A) (A) (A) (A) (A)
                 (A) (A) (A) (A) (A) (A) (A) (A) (A) (A) (A) (A)
                 (A) (A) (A) (A) (A) (A) (A) (A) (A) (A) (A) (A)
                 (A) (A) (A) (A) (A) (A) (A) (A) (A) (A) (A) (A)
                 (A) (A) (A) (A) (A) (A) (A) (A) (A) (A) (A) (A)
                 (A) (A) (A) (A) (A) (A) (A) (A) (A)
 The electronic state is 1-A.
 Alpha  occ. eigenvalues --  -19.19155 -19.19108 -14.33864 -14.33852 -10.25765
 Alpha  occ. eigenvalues --  -10.25763 -10.25098 -10.25084 -10.23146 -10.23077
 Alpha  occ. eigenvalues --  -10.20070 -10.19300 -10.19292 -10.19269 -10.19266
 Alpha  occ. eigenvalues --  -10.19234 -10.18529 -10.18319 -10.18189 -10.18128
 Alpha  occ. eigenvalues --  -10.18109 -10.17971  -1.08562  -1.08420  -0.91612
 Alpha  occ. eigenvalues --   -0.91587  -0.86303  -0.83856  -0.83334  -0.76599
 Alpha  occ. eigenvalues --   -0.76399  -0.73890  -0.73463  -0.72351  -0.72092
 Alpha  occ. eigenvalues --   -0.64788  -0.62989  -0.61433  -0.60960  -0.60438
 Alpha  occ. eigenvalues --   -0.57740  -0.55624  -0.51910  -0.51310  -0.51152
 Alpha  occ. eigenvalues --   -0.50514  -0.49436  -0.48860  -0.48332  -0.46711
 Alpha  occ. eigenvalues --   -0.46299  -0.45455  -0.44933  -0.44065  -0.42745
 Alpha  occ. eigenvalues --   -0.42548  -0.42108  -0.40562  -0.39808  -0.38458
 Alpha  occ. eigenvalues --   -0.38302  -0.37672  -0.36937  -0.36578  -0.35903
 Alpha  occ. eigenvalues --   -0.35675  -0.35132  -0.33850  -0.32831  -0.30489
 Alpha  occ. eigenvalues --   -0.30015  -0.25496  -0.25302  -0.23632  -0.22344
 Alpha  occ. eigenvalues --   -0.20733  -0.20501
 Alpha virt. eigenvalues --   -0.01375  -0.00729   0.00049   0.00663   0.01414
 Alpha virt. eigenvalues --    0.01915   0.08960   0.09238   0.09431   0.10595
 Alpha virt. eigenvalues --    0.10882   0.13118   0.13246   0.14899   0.15246
 Alpha virt. eigenvalues --    0.15461   0.15799   0.16182   0.16328   0.16607
 Alpha virt. eigenvalues --    0.17007   0.17971   0.18420   0.18697   0.19649
 Alpha virt. eigenvalues --    0.20105   0.20427   0.25919   0.26666   0.26858
 Alpha virt. eigenvalues --    0.27964   0.28908   0.29379   0.29490   0.30109
 Alpha virt. eigenvalues --    0.32278   0.32337   0.36541   0.36909   0.37527
 Alpha virt. eigenvalues --    0.37751   0.39771   0.40127   0.43957   0.44684
 Alpha virt. eigenvalues --    0.45343   0.47915   0.49710   0.49944   0.50815
 Alpha virt. eigenvalues --    0.52949   0.53116   0.53982   0.54244   0.55015
 Alpha virt. eigenvalues --    0.55499   0.56771   0.57259   0.57630   0.57805
 Alpha virt. eigenvalues --    0.58135   0.58467   0.59389   0.59537   0.60102
 Alpha virt. eigenvalues --    0.60394   0.60628   0.60714   0.61068   0.61212
 Alpha virt. eigenvalues --    0.61674   0.61915   0.62563   0.62994   0.63831
 Alpha virt. eigenvalues --    0.64187   0.65401   0.66269   0.66755   0.68242
 Alpha virt. eigenvalues --    0.69273   0.69722   0.70101   0.70894   0.71439
 Alpha virt. eigenvalues --    0.76658   0.77107   0.77339   0.77443   0.77846
 Alpha virt. eigenvalues --    0.79301   0.79747   0.81820   0.82063   0.82375
 Alpha virt. eigenvalues --    0.82901   0.83429   0.83716   0.84059   0.84725
 Alpha virt. eigenvalues --    0.85001   0.85808   0.86532   0.87305   0.88456
 Alpha virt. eigenvalues --    0.88658   0.88886   0.89228   0.90212   0.90826
 Alpha virt. eigenvalues --    0.92314   0.92811   0.93124   0.94981   0.98168
 Alpha virt. eigenvalues --    0.98601   0.98938   0.99788   1.00507   1.01676
 Alpha virt. eigenvalues --    1.03191   1.04535   1.05282   1.05542   1.06614
 Alpha virt. eigenvalues --    1.11539   1.12068   1.12855   1.13628   1.13882
 Alpha virt. eigenvalues --    1.14518   1.14720   1.17026   1.19045   1.19412
 Alpha virt. eigenvalues --    1.22331   1.23160   1.26448   1.26786   1.27866
 Alpha virt. eigenvalues --    1.28862   1.30043   1.31347   1.32029   1.32793
 Alpha virt. eigenvalues --    1.34641   1.35007   1.35674   1.37455   1.37983
 Alpha virt. eigenvalues --    1.38052   1.38986   1.39631   1.40983   1.41355
 Alpha virt. eigenvalues --    1.41837   1.42409   1.43033   1.43761   1.44877
 Alpha virt. eigenvalues --    1.47814   1.51395   1.52195   1.57005   1.66760
 Alpha virt. eigenvalues --    1.68288   1.68766   1.74098   1.75147   1.75521
 Alpha virt. eigenvalues --    1.76064   1.76547   1.77164   1.77836   1.79552
 Alpha virt. eigenvalues --    1.79788   1.80604   1.81954   1.82614   1.84603
 Alpha virt. eigenvalues --    1.85839   1.87081   1.88002   1.88325   1.88918
 Alpha virt. eigenvalues --    1.89642   1.89872   1.90227   1.90561   1.91702
 Alpha virt. eigenvalues --    1.91849   1.92433   1.93672   1.94536   1.95467
 Alpha virt. eigenvalues --    1.97337   1.98464   1.98511   1.99274   1.99406
 Alpha virt. eigenvalues --    1.99905   1.99992   2.02858   2.03526   2.05401
 Alpha virt. eigenvalues --    2.06013   2.06609   2.09039   2.09605   2.12332
 Alpha virt. eigenvalues --    2.13380   2.16319   2.16574   2.22203   2.23222
 Alpha virt. eigenvalues --    2.24179   2.25612   2.25869   2.26228   2.26789
 Alpha virt. eigenvalues --    2.27728   2.28309   2.29061   2.30787   2.31867
 Alpha virt. eigenvalues --    2.33124   2.34202   2.34775   2.36225   2.36550
 Alpha virt. eigenvalues --    2.36960   2.38829   2.39481   2.39845   2.39959
 Alpha virt. eigenvalues --    2.41185   2.41477   2.42105   2.43017   2.43226
 Alpha virt. eigenvalues --    2.45686   2.46280   2.46461   2.47910   2.48023
 Alpha virt. eigenvalues --    2.48953   2.49431   2.51397   2.52249   2.53257
 Alpha virt. eigenvalues --    2.53838   2.55295   2.56087   2.57009   2.57414
 Alpha virt. eigenvalues --    2.57772   2.59314   2.59915   2.60951   2.62970
 Alpha virt. eigenvalues --    2.64539   2.65209   2.65867   2.67775   2.69504
 Alpha virt. eigenvalues --    2.71145   2.71868   2.73243   2.73682   2.74265
 Alpha virt. eigenvalues --    2.75854   2.78348   2.79528   2.80874   2.83496
 Alpha virt. eigenvalues --    2.85707   2.87104   2.90958   2.93783   2.96461
 Alpha virt. eigenvalues --    2.97754   2.98767   3.00279   3.06210   3.07783
 Alpha virt. eigenvalues --    3.09166   3.10009   3.10500   3.13126   3.18075
 Alpha virt. eigenvalues --    3.18957   3.20339   3.23967   3.24456   3.24563
 Alpha virt. eigenvalues --    3.28877   3.28966   3.31565   3.33775   3.38054
 Alpha virt. eigenvalues --    3.40833   3.40894   3.41627   3.45418   3.46518
 Alpha virt. eigenvalues --    3.47028   3.52615   3.52732   3.81455   3.84137
 Alpha virt. eigenvalues --    3.84930   4.03700   4.04090   4.13484   4.13606
 Alpha virt. eigenvalues --    4.13670   4.14359   4.16043   4.16370   4.17025
 Alpha virt. eigenvalues --    4.18053   4.20768   4.40584   4.41311   4.43966
 Alpha virt. eigenvalues --    4.44810   4.45918   4.46401   4.56391   4.72276
 Alpha virt. eigenvalues --    4.82357   4.85931   4.87404
          Condensed to atoms (all electrons):
               1          2          3          4          5          6
     1  N    6.826256   0.295782  -0.062254   0.003380  -0.000031   0.000000
     2  C    0.295782   4.591451   0.500769  -0.003769   0.003283  -0.000102
     3  C   -0.062254   0.500769   5.054540   0.536615  -0.047315  -0.002027
     4  C    0.003380  -0.003769   0.536615   4.587351   0.218396  -0.028007
     5  O   -0.000031   0.003283  -0.047315   0.218396   8.347601   0.222613
     6  C    0.000000  -0.000102  -0.002027  -0.028007   0.222613   4.612951
     7  C   -0.000000   0.000006  -0.000145  -0.002040  -0.044137   0.497033
     8  C    0.000000  -0.000000   0.000007  -0.000067   0.003381  -0.004322
     9  O   -0.000000   0.000000  -0.000000   0.000000  -0.000013   0.003346
    10  C    0.000000   0.000000   0.000000   0.000000   0.000000  -0.000064
    11  C   -0.000000  -0.000000  -0.000000   0.000000  -0.000000   0.000007
    12  C    0.000000  -0.000000  -0.000000   0.000000   0.000000  -0.000000
    13  C    0.000000  -0.000000   0.000000  -0.000000  -0.000000  -0.000000
    14  C   -0.000000   0.000000  -0.000000   0.000000  -0.000000   0.000001
    15  N    0.000000   0.000000  -0.000000  -0.000000   0.000000  -0.000000
    16  C   -0.000000  -0.000000  -0.000000   0.000000   0.000000  -0.000020
    17  C   -0.000000  -0.000000   0.000001   0.000054   0.000185  -0.035000
    18  C   -0.000000   0.000000  -0.000006  -0.000142   0.004214  -0.007334
    19  C    0.000000  -0.000042   0.000600   0.002103  -0.055557   0.494434
    20  C    0.000611  -0.037449  -0.078689   0.494101  -0.056300   0.002345
    21  C    0.004327  -0.012654  -0.039855  -0.007543   0.004287  -0.000177
    22  C   -0.070699   0.535625  -0.061112  -0.039503   0.000251   0.000053
    23  H    0.343345  -0.024039  -0.009578  -0.000071  -0.000002   0.000000
    24  H    0.344622  -0.024752   0.005085  -0.000124   0.000001   0.000000
    25  H   -0.007649  -0.040825   0.355952  -0.035566  -0.001166   0.000356
    26  H   -0.000000  -0.000000  -0.000017   0.000287  -0.001474  -0.037295
    27  H    0.000000   0.000000  -0.000000  -0.000000  -0.000000  -0.000000
    28  H    0.000000  -0.000000  -0.000000   0.000000  -0.000000   0.000000
    29  H    0.000000   0.000000   0.000000  -0.000000   0.000000  -0.000000
    30  H    0.000000   0.000000  -0.000000   0.000000   0.000000  -0.000000
    31  H   -0.000000  -0.000000  -0.000000   0.000000  -0.000000   0.000000
    32  H   -0.000000  -0.000000   0.000000  -0.000000  -0.000001   0.000057
    33  H    0.000000   0.000000   0.000000  -0.000000   0.000002   0.000394
    34  H    0.000000   0.000000  -0.000000  -0.000005  -0.000053   0.002986
    35  H   -0.000003   0.000104   0.001483   0.006522  -0.007001  -0.041102
    36  H    0.000004   0.000438   0.005628  -0.042014  -0.007140   0.006041
    37  H   -0.000116   0.003526   0.000913   0.003308  -0.000055  -0.000006
    38  H   -0.007414  -0.043345   0.005479   0.000549   0.000002  -0.000000
               7          8          9         10         11         12
     1  N   -0.000000   0.000000  -0.000000   0.000000  -0.000000   0.000000
     2  C    0.000006  -0.000000   0.000000   0.000000  -0.000000  -0.000000
     3  C   -0.000145   0.000007  -0.000000   0.000000  -0.000000  -0.000000
     4  C   -0.002040  -0.000067   0.000000   0.000000   0.000000   0.000000
     5  O   -0.044137   0.003381  -0.000013   0.000000  -0.000000   0.000000
     6  C    0.497033  -0.004322   0.003346  -0.000064   0.000007  -0.000000
     7  C    5.082972   0.495508  -0.043928  -0.002016  -0.000187   0.000006
     8  C    0.495508   4.617124   0.222181  -0.028294  -0.001543  -0.000055
     9  O   -0.043928   0.222181   8.346620   0.217887  -0.052559   0.003891
    10  C   -0.002016  -0.028294   0.217887   4.586317   0.544139  -0.013073
    11  C   -0.000187  -0.001543  -0.052559   0.544139   4.976324   0.508246
    12  C    0.000006  -0.000055   0.003891  -0.013073   0.508246   4.829423
    13  C    0.000001   0.000071   0.000276  -0.039322  -0.052424   0.538504
    14  C   -0.000012  -0.000403   0.004027   0.002736  -0.035094  -0.013487
    15  N    0.000000  -0.000007  -0.000025   0.003078   0.000778   0.004127
    16  C    0.000603   0.000842  -0.049706   0.486060  -0.080333  -0.040335
    17  C   -0.077197   0.494452  -0.055669   0.002277   0.000748  -0.000053
    18  C   -0.035646  -0.007514   0.004188  -0.000131  -0.000006   0.000001
    19  C   -0.077059  -0.035116   0.000187   0.000053   0.000001  -0.000000
    20  C    0.000600  -0.000032   0.000000   0.000000  -0.000000  -0.000000
    21  C   -0.000009   0.000001  -0.000000   0.000000  -0.000000   0.000000
    22  C    0.000001  -0.000000  -0.000000  -0.000000   0.000000  -0.000000
    23  H    0.000000   0.000000  -0.000000   0.000000  -0.000000   0.000000
    24  H    0.000000  -0.000000   0.000000  -0.000000   0.000000   0.000000
    25  H   -0.000017  -0.000000  -0.000000  -0.000000  -0.000000   0.000000
    26  H    0.355344  -0.037500  -0.001461   0.000270  -0.000017  -0.000000
    27  H   -0.000016   0.000330  -0.001474  -0.040741   0.362791  -0.039554
    28  H   -0.000000  -0.000001  -0.000065   0.003588  -0.034780   0.368383
    29  H    0.000000  -0.000000   0.000002   0.000546   0.004916  -0.037350
    30  H   -0.000000  -0.000000   0.000000  -0.000134   0.000006  -0.000019
    31  H   -0.000000  -0.000008   0.000001  -0.000062   0.000000  -0.000175
    32  H    0.001308   0.006417  -0.007261  -0.036813   0.005727   0.000131
    33  H    0.005466  -0.041048  -0.006948   0.006548   0.001386   0.000090
    34  H    0.000835   0.002980  -0.000052  -0.000005  -0.000000   0.000000
    35  H    0.005456   0.000392   0.000002  -0.000000   0.000000   0.000000
    36  H    0.001256   0.000054  -0.000001  -0.000000   0.000000  -0.000000
    37  H   -0.000000   0.000000  -0.000000  -0.000000  -0.000000   0.000000
    38  H    0.000000   0.000000   0.000000  -0.000000  -0.000000   0.000000
              13         14         15         16         17         18
     1  N    0.000000  -0.000000   0.000000  -0.000000  -0.000000  -0.000000
     2  C   -0.000000   0.000000   0.000000  -0.000000  -0.000000   0.000000
     3  C    0.000000  -0.000000  -0.000000  -0.000000   0.000001  -0.000006
     4  C   -0.000000   0.000000  -0.000000   0.000000   0.000054  -0.000142
     5  O   -0.000000  -0.000000   0.000000   0.000000   0.000185   0.004214
     6  C   -0.000000   0.000001  -0.000000  -0.000020  -0.035000  -0.007334
     7  C    0.000001  -0.000012   0.000000   0.000603  -0.077197  -0.035646
     8  C    0.000071  -0.000403  -0.000007   0.000842   0.494452  -0.007514
     9  O    0.000276   0.004027  -0.000025  -0.049706  -0.055669   0.004188
    10  C   -0.039322   0.002736   0.003078   0.486060   0.002277  -0.000131
    11  C   -0.052424  -0.035094   0.000778  -0.080333   0.000748  -0.000006
    12  C    0.538504  -0.013487   0.004127  -0.040335  -0.000053   0.000001
    13  C    4.947556   0.535523  -0.070099  -0.060841   0.000013  -0.000000
    14  C    0.535523   4.601135   0.296758   0.483559  -0.000524  -0.000006
    15  N   -0.070099   0.296758   6.824012  -0.061605   0.000003   0.000000
    16  C   -0.060841   0.483559  -0.061605   5.102713   0.000074  -0.000362
    17  C    0.000013  -0.000524   0.000003   0.000074   4.984317   0.500736
    18  C   -0.000000  -0.000006   0.000000  -0.000362   0.500736   4.863632
    19  C    0.000000   0.000000  -0.000000   0.000007  -0.046960   0.500189
    20  C   -0.000000   0.000000   0.000000  -0.000000   0.000005  -0.000336
    21  C   -0.000000  -0.000000   0.000000   0.000000   0.000000  -0.000001
    22  C    0.000000   0.000000  -0.000000  -0.000000   0.000000   0.000000
    23  H    0.000000  -0.000000   0.000000   0.000000  -0.000000  -0.000000
    24  H    0.000000   0.000000   0.000000   0.000000  -0.000000   0.000000
    25  H   -0.000000   0.000000  -0.000000   0.000000   0.000000  -0.000002
    26  H    0.000000  -0.000001   0.000000  -0.000005   0.006754  -0.000378
    27  H    0.005324   0.000241   0.000005   0.006768  -0.000022  -0.000002
    28  H   -0.036749   0.003758  -0.000115   0.000730   0.000000  -0.000000
    29  H    0.366834  -0.043489  -0.007450   0.005813   0.000000   0.000000
    30  H   -0.008989  -0.025102   0.344982   0.005158  -0.000000   0.000000
    31  H    0.005629  -0.023548   0.342780  -0.009979  -0.000003   0.000000
    32  H    0.005434  -0.040974  -0.007140   0.359772   0.001182  -0.000210
    33  H   -0.000046  -0.000177   0.000003   0.001015   0.367802  -0.038516
    34  H   -0.000000  -0.000000  -0.000000   0.000003  -0.033104   0.369656
    35  H   -0.000000   0.000000   0.000000   0.000000   0.004902  -0.038634
    36  H    0.000000   0.000000  -0.000000  -0.000004  -0.000015  -0.000203
    37  H   -0.000000   0.000000   0.000000   0.000000  -0.000000  -0.000000
    38  H   -0.000000  -0.000000  -0.000000   0.000000  -0.000000   0.000000
              19         20         21         22         23         24
     1  N    0.000000   0.000611   0.004327  -0.070699   0.343345   0.344622
     2  C   -0.000042  -0.037449  -0.012654   0.535625  -0.024039  -0.024752
     3  C    0.000600  -0.078689  -0.039855  -0.061112  -0.009578   0.005085
     4  C    0.002103   0.494101  -0.007543  -0.039503  -0.000071  -0.000124
     5  O   -0.055557  -0.056300   0.004287   0.000251  -0.000002   0.000001
     6  C    0.494434   0.002345  -0.000177   0.000053   0.000000   0.000000
     7  C   -0.077059   0.000600  -0.000009   0.000001   0.000000   0.000000
     8  C   -0.035116  -0.000032   0.000001  -0.000000   0.000000  -0.000000
     9  O    0.000187   0.000000  -0.000000  -0.000000  -0.000000   0.000000
    10  C    0.000053   0.000000   0.000000  -0.000000   0.000000  -0.000000
    11  C    0.000001  -0.000000  -0.000000   0.000000  -0.000000   0.000000
    12  C   -0.000000  -0.000000   0.000000  -0.000000   0.000000   0.000000
    13  C    0.000000  -0.000000  -0.000000   0.000000   0.000000   0.000000
    14  C    0.000000   0.000000  -0.000000   0.000000  -0.000000   0.000000
    15  N   -0.000000   0.000000   0.000000  -0.000000   0.000000   0.000000
    16  C    0.000007  -0.000000   0.000000  -0.000000   0.000000   0.000000
    17  C   -0.046960   0.000005   0.000000   0.000000  -0.000000  -0.000000
    18  C    0.500189  -0.000336  -0.000001   0.000000  -0.000000   0.000000
    19  C    4.985056   0.000041  -0.000335   0.000009  -0.000000   0.000000
    20  C    0.000041   5.010079   0.501091  -0.049334  -0.000015   0.000008
    21  C   -0.000335   0.501091   4.832701   0.537219  -0.000166  -0.000035
    22  C    0.000009  -0.049334   0.537219   4.945853   0.005529  -0.008974
    23  H   -0.000000  -0.000015  -0.000166   0.005529   0.429693  -0.028178
    24  H    0.000000   0.000008  -0.000035  -0.008974  -0.028178   0.428009
    25  H   -0.000028   0.006880  -0.000079   0.005824   0.004211  -0.000034
    26  H    0.006759  -0.000014  -0.000002   0.000000   0.000000  -0.000000
    27  H    0.000000   0.000000   0.000000  -0.000000   0.000000   0.000000
    28  H   -0.000000  -0.000000  -0.000000   0.000000   0.000000   0.000000
    29  H   -0.000000   0.000000  -0.000000  -0.000000   0.000000   0.000000
    30  H    0.000000   0.000000  -0.000000  -0.000000   0.000000   0.000000
    31  H    0.000000  -0.000000   0.000000   0.000000  -0.000000   0.000000
    32  H   -0.000019  -0.000004  -0.000000   0.000000  -0.000000   0.000000
    33  H    0.004894   0.000000   0.000000  -0.000000   0.000000  -0.000000
    34  H   -0.033066   0.000003  -0.000000  -0.000000   0.000000   0.000000
    35  H    0.367772   0.000950  -0.000205  -0.000013  -0.000000  -0.000000
    36  H    0.001059   0.366369  -0.039237   0.004940  -0.000000  -0.000000
    37  H    0.000003  -0.034629   0.368327  -0.035925   0.000003  -0.000004
    38  H    0.000000   0.005212  -0.037602   0.366950  -0.000042   0.004568
              25         26         27         28         29         30
     1  N   -0.007649  -0.000000   0.000000   0.000000   0.000000   0.000000
     2  C   -0.040825  -0.000000   0.000000  -0.000000   0.000000   0.000000
     3  C    0.355952  -0.000017  -0.000000  -0.000000   0.000000  -0.000000
     4  C   -0.035566   0.000287  -0.000000   0.000000  -0.000000   0.000000
     5  O   -0.001166  -0.001474  -0.000000  -0.000000   0.000000   0.000000
     6  C    0.000356  -0.037295  -0.000000   0.000000  -0.000000  -0.000000
     7  C   -0.000017   0.355344  -0.000016  -0.000000   0.000000  -0.000000
     8  C   -0.000000  -0.037500   0.000330  -0.000001  -0.000000  -0.000000
     9  O   -0.000000  -0.001461  -0.001474  -0.000065   0.000002   0.000000
    10  C   -0.000000   0.000270  -0.040741   0.003588   0.000546  -0.000134
    11  C   -0.000000  -0.000017   0.362791  -0.034780   0.004916   0.000006
    12  C    0.000000  -0.000000  -0.039554   0.368383  -0.037350  -0.000019
    13  C   -0.000000   0.000000   0.005324  -0.036749   0.366834  -0.008989
    14  C    0.000000  -0.000001   0.000241   0.003758  -0.043489  -0.025102
    15  N   -0.000000   0.000000   0.000005  -0.000115  -0.007450   0.344982
    16  C    0.000000  -0.000005   0.006768   0.000730   0.005813   0.005158
    17  C    0.000000   0.006754  -0.000022   0.000000   0.000000  -0.000000
    18  C   -0.000002  -0.000378  -0.000002  -0.000000   0.000000   0.000000
    19  C   -0.000028   0.006759   0.000000  -0.000000  -0.000000   0.000000
    20  C    0.006880  -0.000014   0.000000  -0.000000   0.000000   0.000000
    21  C   -0.000079  -0.000002   0.000000  -0.000000  -0.000000  -0.000000
    22  C    0.005824   0.000000  -0.000000   0.000000  -0.000000  -0.000000
    23  H    0.004211   0.000000   0.000000   0.000000   0.000000   0.000000
    24  H   -0.000034  -0.000000   0.000000   0.000000   0.000000   0.000000
    25  H    0.614263   0.000004   0.000000   0.000000  -0.000000  -0.000000
    26  H    0.000004   0.597579   0.000003  -0.000000  -0.000000  -0.000000
    27  H    0.000000   0.000003   0.618733  -0.006241  -0.000169  -0.000000
    28  H    0.000000  -0.000000  -0.006241   0.602797  -0.005999  -0.000004
    29  H   -0.000000  -0.000000  -0.000169  -0.005999   0.619186   0.004538
    30  H   -0.000000  -0.000000  -0.000000  -0.000004   0.004538   0.427376
    31  H    0.000000   0.000000  -0.000000   0.000003  -0.000041  -0.028027
    32  H    0.000000   0.000068  -0.000145   0.000013  -0.000165  -0.000039
    33  H    0.000000  -0.000125   0.000073  -0.000002  -0.000000   0.000000
    34  H    0.000000   0.000013   0.000000  -0.000000   0.000000  -0.000000
    35  H    0.000084  -0.000125   0.000000   0.000000  -0.000000  -0.000000
    36  H   -0.000145   0.000070   0.000000  -0.000000  -0.000000  -0.000000
    37  H    0.000014   0.000000   0.000000  -0.000000   0.000000   0.000000
    38  H   -0.000163  -0.000000  -0.000000   0.000000  -0.000000  -0.000000
              31         32         33         34         35         36
     1  N   -0.000000  -0.000000   0.000000   0.000000  -0.000003   0.000004
     2  C   -0.000000  -0.000000   0.000000   0.000000   0.000104   0.000438
     3  C   -0.000000   0.000000   0.000000  -0.000000   0.001483   0.005628
     4  C    0.000000  -0.000000  -0.000000  -0.000005   0.006522  -0.042014
     5  O   -0.000000  -0.000001   0.000002  -0.000053  -0.007001  -0.007140
     6  C    0.000000   0.000057   0.000394   0.002986  -0.041102   0.006041
     7  C   -0.000000   0.001308   0.005466   0.000835   0.005456   0.001256
     8  C   -0.000008   0.006417  -0.041048   0.002980   0.000392   0.000054
     9  O    0.000001  -0.007261  -0.006948  -0.000052   0.000002  -0.000001
    10  C   -0.000062  -0.036813   0.006548  -0.000005  -0.000000  -0.000000
    11  C    0.000000   0.005727   0.001386  -0.000000   0.000000   0.000000
    12  C   -0.000175   0.000131   0.000090   0.000000   0.000000  -0.000000
    13  C    0.005629   0.005434  -0.000046  -0.000000  -0.000000   0.000000
    14  C   -0.023548  -0.040974  -0.000177  -0.000000   0.000000   0.000000
    15  N    0.342780  -0.007140   0.000003  -0.000000   0.000000  -0.000000
    16  C   -0.009979   0.359772   0.001015   0.000003   0.000000  -0.000004
    17  C   -0.000003   0.001182   0.367802  -0.033104   0.004902  -0.000015
    18  C    0.000000  -0.000210  -0.038516   0.369656  -0.038634  -0.000203
    19  C    0.000000  -0.000019   0.004894  -0.033066   0.367772   0.001059
    20  C   -0.000000  -0.000004   0.000000   0.000003   0.000950   0.366369
    21  C    0.000000  -0.000000   0.000000  -0.000000  -0.000205  -0.039237
    22  C    0.000000   0.000000  -0.000000  -0.000000  -0.000013   0.004940
    23  H   -0.000000  -0.000000   0.000000   0.000000  -0.000000  -0.000000
    24  H    0.000000   0.000000  -0.000000   0.000000  -0.000000  -0.000000
    25  H    0.000000   0.000000   0.000000   0.000000   0.000084  -0.000145
    26  H    0.000000   0.000068  -0.000125   0.000013  -0.000125   0.000070
    27  H   -0.000000  -0.000145   0.000073   0.000000   0.000000   0.000000
    28  H    0.000003   0.000013  -0.000002  -0.000000   0.000000  -0.000000
    29  H   -0.000041  -0.000165  -0.000000   0.000000  -0.000000  -0.000000
    30  H   -0.028027  -0.000039   0.000000  -0.000000  -0.000000  -0.000000
    31  H    0.430038   0.004403   0.000001  -0.000000   0.000000  -0.000000
    32  H    0.004403   0.606217   0.000038  -0.000001  -0.000000   0.000046
    33  H    0.000001   0.000038   0.595569  -0.005466  -0.000151  -0.000000
    34  H   -0.000000  -0.000001  -0.005466   0.583968  -0.005472  -0.000001
    35  H    0.000000  -0.000000  -0.000151  -0.005472   0.596046   0.000038
    36  H   -0.000000   0.000046  -0.000000  -0.000001   0.000038   0.610471
    37  H   -0.000000  -0.000000   0.000000  -0.000000  -0.000000  -0.005789
    38  H    0.000000  -0.000000  -0.000000   0.000000  -0.000000  -0.000170
              37         38
     1  N   -0.000116  -0.007414
     2  C    0.003526  -0.043345
     3  C    0.000913   0.005479
     4  C    0.003308   0.000549
     5  O   -0.000055   0.000002
     6  C   -0.000006  -0.000000
     7  C   -0.000000   0.000000
     8  C    0.000000   0.000000
     9  O   -0.000000   0.000000
    10  C   -0.000000  -0.000000
    11  C   -0.000000  -0.000000
    12  C    0.000000   0.000000
    13  C   -0.000000  -0.000000
    14  C    0.000000  -0.000000
    15  N    0.000000  -0.000000
    16  C    0.000000   0.000000
    17  C   -0.000000  -0.000000
    18  C   -0.000000   0.000000
    19  C    0.000003   0.000000
    20  C   -0.034629   0.005212
    21  C    0.368327  -0.037602
    22  C   -0.035925   0.366950
    23  H    0.000003  -0.000042
    24  H   -0.000004   0.004568
    25  H    0.000014  -0.000163
    26  H    0.000000  -0.000000
    27  H    0.000000  -0.000000
    28  H   -0.000000   0.000000
    29  H    0.000000  -0.000000
    30  H    0.000000  -0.000000
    31  H   -0.000000   0.000000
    32  H   -0.000000  -0.000000
    33  H    0.000000  -0.000000
    34  H   -0.000000   0.000000
    35  H   -0.000000  -0.000000
    36  H   -0.005789  -0.000170
    37  H    0.600478  -0.005942
    38  H   -0.005942   0.619219
 Mulliken charges:
               1
     1  N   -0.670161
     2  C    0.255992
     3  C   -0.166075
     4  C    0.306185
     5  O   -0.583969
     6  C    0.312843
     7  C   -0.163986
     8  C    0.312169
     9  O   -0.583446
    10  C    0.307155
    11  C   -0.148124
    12  C   -0.108700
    13  C   -0.136696
    14  C    0.255079
    15  N   -0.670084
    16  C   -0.149928
    17  C   -0.114955
    18  C   -0.113189
    19  C   -0.114988
    20  C   -0.131492
    21  C   -0.110055
    22  C   -0.136693
    23  H    0.279310
    24  H    0.279809
    25  H    0.098085
    26  H    0.111264
    27  H    0.094095
    28  H    0.104684
    29  H    0.092828
    30  H    0.280257
    31  H    0.278990
    32  H    0.101959
    33  H    0.109198
    34  H    0.116780
    35  H    0.108957
    36  H    0.098309
    37  H    0.105895
    38  H    0.092699
 Sum of Mulliken charges =  -0.00000
 Mulliken charges with hydrogens summed into heavy atoms:
               1
     1  N   -0.111042
     2  C    0.255992
     3  C   -0.067989
     4  C    0.306185
     5  O   -0.583969
     6  C    0.312843
     7  C   -0.052722
     8  C    0.312169
     9  O   -0.583446
    10  C    0.307155
    11  C   -0.054029
    12  C   -0.004016
    13  C   -0.043868
    14  C    0.255079
    15  N   -0.110838
    16  C   -0.047969
    17  C   -0.005756
    18  C    0.003590
    19  C   -0.006031
    20  C   -0.033183
    21  C   -0.004160
    22  C   -0.043994
 APT charges:
               1
     1  N   -1.446184
     2  C    0.473229
     3  C   -0.354752
     4  C   -0.666507
     5  O   -0.328377
     6  C   -0.069173
     7  C   -0.498991
     8  C   -0.019468
     9  O   -0.317697
    10  C   -0.683763
    11  C   -0.486062
    12  C   -0.270900
    13  C   -0.545899
    14  C   -0.121637
    15  N   -1.038859
    16  C   -0.464862
    17  C   -0.548570
    18  C   -0.455356
    19  C   -0.547781
    20  C   -0.550476
    21  C   -0.552274
    22  C   -0.424532
    23  H    0.624101
    24  H    1.216763
    25  H    0.516168
    26  H    0.416731
    27  H    0.574094
    28  H    1.172896
    29  H    1.107035
    30  H    1.281469
    31  H   -0.097591
    32  H   -0.121154
    33  H    0.586213
    34  H    0.639196
    35  H    0.543168
    36  H   -0.058973
    37  H    0.503184
    38  H    1.015592
 Sum of APT charges =  -0.00000
 APT charges with hydrogens summed into heavy atoms:
               1
     1  N    0.394679
     2  C    0.473229
     3  C    0.161415
     4  C   -0.666507
     5  O   -0.328377
     6  C   -0.069173
     7  C   -0.082260
     8  C   -0.019468
     9  O   -0.317697
    10  C   -0.683763
    11  C    0.088032
    12  C    0.901997
    13  C    0.561136
    14  C   -0.121637
    15  N    0.145020
    16  C   -0.586016
    17  C    0.037643
    18  C    0.183839
    19  C   -0.004613
    20  C   -0.609450
    21  C   -0.049090
    22  C    0.591060
 Electronic spatial extent (au):  <R**2>=          10288.1479
 Charge=             -0.0000 electrons
 Dipole moment (field-independent basis, Debye):
    X=             -1.5965    Y=              2.5970    Z=              4.8031  Tot=              5.6889
 Quadrupole moment (field-independent basis, Debye-Ang):
   XX=            -91.3246   YY=           -115.6572   ZZ=           -127.5503
   XY=              8.6905   XZ=             -2.7966   YZ=              3.8424
 Traceless Quadrupole moment (field-independent basis, Debye-Ang):
   XX=             20.1861   YY=             -4.1465   ZZ=            -16.0396
   XY=              8.6905   XZ=             -2.7966   YZ=              3.8424
 Octapole moment (field-independent basis, Debye-Ang**2):
  XXX=           -142.8916  YYY=             42.9463  ZZZ=             12.0515  XYY=              5.5832
  XXY=             14.0270  XXZ=            124.9354  XZZ=              0.9302  YZZ=             -7.0233
  YYZ=             19.3693  XYZ=             20.4972
 Hexadecapole moment (field-independent basis, Debye-Ang**3):
 XXXX=          -9253.6168 YYYY=          -1339.8960 ZZZZ=           -504.4067 XXXY=            269.5810
 XXXZ=           -379.1148 YYYX=            106.3839 YYYZ=             90.2441 ZZZX=              2.6931
 ZZZY=             -1.1116 XXYY=          -1881.1098 XXZZ=          -2217.5284 YYZZ=           -342.3448
 XXYZ=            160.3463 YYXZ=             75.5292 ZZXY=             25.2670
 N-N= 1.595525698866D+03 E-N=-5.412904817904D+03  KE= 9.466203265330D+02
  Exact polarizability:   0.000   0.000   0.000   0.000   0.000   0.000
 Approx polarizability: 436.186  -2.736 317.566  -1.106  32.255 211.853
 D2PCM: PCM CHGder 2nd derivatives, FixD1E=F FixD2E=F DoIter=F DoCFld=F I1PDM=0
 Calling FoFJK, ICntrl=    100147 FMM=F ISym2X=0 I1Cent= 0 IOpClX= 0 NMat=1 NMatS=1 NMatT=0.
 ***** Axes restored to original set *****
 -------------------------------------------------------------------
 Center     Atomic                   Forces (Hartrees/Bohr)
 Number     Number              X              Y              Z
 -------------------------------------------------------------------
      1        7          -0.002337379    0.001901681   -0.004269804
      2        6           0.006149266   -0.009200149    0.014635782
      3        6          -0.006509036   -0.003364063   -0.009036910
      4        6           0.016427687    0.003015226    0.005778390
      5        8          -0.002248722   -0.002652699   -0.000727419
      6        6          -0.007956671   -0.000644933   -0.006790411
      7        6          -0.001122530   -0.001695315    0.003955259
      8        6           0.010767877   -0.001279027   -0.001418126
[...]
   168    C   12  S      Ryd( 3S)     0.00054
   169    C   12  S      Ryd( 4S)     0.00004
   170    C   12  px     Val( 2p)     1.14358
   171    C   12  px     Ryd( 3p)     0.00493
   172    C   12  py     Val( 2p)     1.11599
   173    C   12  py     Ryd( 3p)     0.00485
   174    C   12  pz     Val( 2p)     0.98891
   175    C   12  pz     Ryd( 3p)     0.00071
   176    C   12  dxy    Ryd( 3d)     0.00073
   177    C   12  dxz    Ryd( 3d)     0.00046
   178    C   12  dyz    Ryd( 3d)     0.00058
   179    C   12  dx2y2  Ryd( 3d)     0.00061
   180    C   12  dz2    Ryd( 3d)     0.00037

   181    C   13  S      Cor( 1S)     1.99904
   182    C   13  S      Val( 2S)     0.95509
   183    C   13  S      Ryd( 3S)     0.00058
   184    C   13  S      Ryd( 4S)     0.00003
   185    C   13  px     Val( 2p)     1.17201
   186    C   13  px     Ryd( 3p)     0.00415
   187    C   13  py     Val( 2p)     1.08428
   188    C   13  py     Ryd( 3p)     0.00415
   189    C   13  pz     Val( 2p)     1.08495
   190    C   13  pz     Ryd( 3p)     0.00107
   191    C   13  dxy    Ryd( 3d)     0.00072
   192    C   13  dxz    Ryd( 3d)     0.00035
   193    C   13  dyz    Ryd( 3d)     0.00044
   194    C   13  dx2y2  Ryd( 3d)     0.00055
   195    C   13  dz2    Ryd( 3d)     0.00037

   196    C   14  S      Cor( 1S)     1.99900
   197    C   14  S      Val( 2S)     0.84290
   198    C   14  S      Ryd( 3S)     0.00115
   199    C   14  S      Ryd( 4S)     0.00010
   200    C   14  px     Val( 2p)     1.08256
   201    C   14  px     Ryd( 3p)     0.00455
   202    C   14  py     Val( 2p)     0.91489
   203    C   14  py     Ryd( 3p)     0.00595
   204    C   14  pz     Val( 2p)     0.96761
   205    C   14  pz     Ryd( 3p)     0.00114
   206    C   14  dxy    Ryd( 3d)     0.00092
   207    C   14  dxz    Ryd( 3d)     0.00064
   208    C   14  dyz    Ryd( 3d)     0.00174
   209    C   14  dx2y2  Ryd( 3d)     0.00111
   210    C   14  dz2    Ryd( 3d)     0.00042

   211    N   15  S      Cor( 1S)     1.99951
   212    N   15  S      Val( 2S)     1.35881
   213    N   15  S      Ryd( 3S)     0.00012
   214    N   15  S      Ryd( 4S)     0.00001
   215    N   15  px     Val( 2p)     1.42277
   216    N   15  px     Ryd( 3p)     0.00194
   217    N   15  py     Val( 2p)     1.30945
   218    N   15  py     Ryd( 3p)     0.00248
   219    N   15  pz     Val( 2p)     1.75425
   220    N   15  pz     Ryd( 3p)     0.00382
   221    N   15  dxy    Ryd( 3d)     0.00042
   222    N   15  dxz    Ryd( 3d)     0.00085
   223    N   15  dyz    Ryd( 3d)     0.00081
   224    N   15  dx2y2  Ryd( 3d)     0.00042
   225    N   15  dz2    Ryd( 3d)     0.00082

   226    C   16  S      Cor( 1S)     1.99893
   227    C   16  S      Val( 2S)     0.95664
   228    C   16  S      Ryd( 3S)     0.00074
   229    C   16  S      Ryd( 4S)     0.00005
   230    C   16  px     Val( 2p)     1.14835
   231    C   16  px     Ryd( 3p)     0.00342
   232    C   16  py     Val( 2p)     1.12394
   233    C   16  py     Ryd( 3p)     0.00380
   234    C   16  pz     Val( 2p)     1.10207
   235    C   16  pz     Ryd( 3p)     0.00123
   236    C   16  dxy    Ryd( 3d)     0.00056
   237    C   16  dxz    Ryd( 3d)     0.00040
   238    C   16  dyz    Ryd( 3d)     0.00046
   239    C   16  dx2y2  Ryd( 3d)     0.00060
   240    C   16  dz2    Ryd( 3d)     0.00040

   241    C   17  S      Cor( 1S)     1.99901
   242    C   17  S      Val( 2S)     0.95906
   243    C   17  S      Ryd( 3S)     0.00066
   244    C   17  S      Ryd( 4S)     0.00004
   245    C   17  px     Val( 2p)     1.18185
   246    C   17  px     Ryd( 3p)     0.00348
   247    C   17  py     Val( 2p)     1.09408
   248    C   17  py     Ryd( 3p)     0.00308
   249    C   17  pz     Val( 2p)     1.09257
   250    C   17  pz     Ryd( 3p)     0.00406
   251    C   17  dxy    Ryd( 3d)     0.00044
   252    C   17  dxz    Ryd( 3d)     0.00052
   253    C   17  dyz    Ryd( 3d)     0.00050
   254    C   17  dx2y2  Ryd( 3d)     0.00054
   255    C   17  dz2    Ryd( 3d)     0.00062

   256    C   18  S      Cor( 1S)     1.99914
   257    C   18  S      Val( 2S)     0.94914
   258    C   18  S      Ryd( 3S)     0.00068
   259    C   18  S      Ryd( 4S)     0.00004
   260    C   18  px     Val( 2p)     1.05067
   261    C   18  px     Ryd( 3p)     0.00529
   262    C   18  py     Val( 2p)     1.10612
   263    C   18  py     Ryd( 3p)     0.00416
   264    C   18  pz     Val( 2p)     1.18223
   265    C   18  pz     Ryd( 3p)     0.00478
   266    C   18  dxy    Ryd( 3d)     0.00057
   267    C   18  dxz    Ryd( 3d)     0.00060
   268    C   18  dyz    Ryd( 3d)     0.00039
   269    C   18  dx2y2  Ryd( 3d)     0.00042
   270    C   18  dz2    Ryd( 3d)     0.00057

   271    C   19  S      Cor( 1S)     1.99902
   272    C   19  S      Val( 2S)     0.96396
   273    C   19  S      Ryd( 3S)     0.00065
   274    C   19  S      Ryd( 4S)     0.00004
   275    C   19  px     Val( 2p)     1.17937
   276    C   19  px     Ryd( 3p)     0.00355
   277    C   19  py     Val( 2p)     1.05077
   278    C   19  py     Ryd( 3p)     0.00171
   279    C   19  pz     Val( 2p)     1.09230
   280    C   19  pz     Ryd( 3p)     0.00384
   281    C   19  dxy    Ryd( 3d)     0.00052
   282    C   19  dxz    Ryd( 3d)     0.00051
   283    C   19  dyz    Ryd( 3d)     0.00062
   284    C   19  dx2y2  Ryd( 3d)     0.00051
   285    C   19  dz2    Ryd( 3d)     0.00067

   286    C   20  S      Cor( 1S)     1.99900
   287    C   20  S      Val( 2S)     0.98041
   288    C   20  S      Ryd( 3S)     0.00069
   289    C   20  S      Ryd( 4S)     0.00005
   290    C   20  px     Val( 2p)     1.17999
   291    C   20  px     Ryd( 3p)     0.00389
   292    C   20  py     Val( 2p)     1.09168
   293    C   20  py     Ryd( 3p)     0.00420
   294    C   20  pz     Val( 2p)     0.92994
   295    C   20  pz     Ryd( 3p)     0.00140
   296    C   20  dxy    Ryd( 3d)     0.00057
   297    C   20  dxz    Ryd( 3d)     0.00051
   298    C   20  dyz    Ryd( 3d)     0.00075
   299    C   20  dx2y2  Ryd( 3d)     0.00078
   300    C   20  dz2    Ryd( 3d)     0.00038

   301    C   21  S      Cor( 1S)     1.99916
   302    C   21  S      Val( 2S)     0.95991
   303    C   21  S      Ryd( 3S)     0.00067
   304    C   21  S      Ryd( 4S)     0.00003
   305    C   21  px     Val( 2p)     1.04812
   306    C   21  px     Ryd( 3p)     0.00537
   307    C   21  py     Val( 2p)     1.20516
   308    C   21  py     Ryd( 3p)     0.00515
   309    C   21  pz     Val( 2p)     1.07340
   310    C   21  pz     Ryd( 3p)     0.00417
   311    C   21  dxy    Ryd( 3d)     0.00063
   312    C   21  dxz    Ryd( 3d)     0.00051
   313    C   21  dyz    Ryd( 3d)     0.00038
   314    C   21  dx2y2  Ryd( 3d)     0.00067
   315    C   21  dz2    Ryd( 3d)     0.00038

   316    C   22  S      Cor( 1S)     1.99905
   317    C   22  S      Val( 2S)     0.96323
   318    C   22  S      Ryd( 3S)     0.00059
   319    C   22  S      Ryd( 4S)     0.00003
   320    C   22  px     Val( 2p)     1.17441
   321    C   22  px     Ryd( 3p)     0.00425
   322    C   22  py     Val( 2p)     1.07631
   323    C   22  py     Ryd( 3p)     0.00426
   324    C   22  pz     Val( 2p)     1.03324
   325    C   22  pz     Ryd( 3p)     0.00386
   326    C   22  dxy    Ryd( 3d)     0.00057
   327    C   22  dxz    Ryd( 3d)     0.00048
   328    C   22  dyz    Ryd( 3d)     0.00047
   329    C   22  dx2y2  Ryd( 3d)     0.00073
   330    C   22  dz2    Ryd( 3d)     0.00039

   331    H   23  S      Val( 1S)     0.56373
   332    H   23  S      Ryd( 2S)     0.00145
   333    H   23  px     Ryd( 2p)     0.00021
   334    H   23  py     Ryd( 2p)     0.00056
   335    H   23  pz     Ryd( 2p)     0.00044

   336    H   24  S      Val( 1S)     0.56402
   337    H   24  S      Ryd( 2S)     0.00113
   338    H   24  px     Ryd( 2p)     0.00045
   339    H   24  py     Ryd( 2p)     0.00029
   340    H   24  pz     Ryd( 2p)     0.00048

   341    H   25  S      Val( 1S)     0.74240
   342    H   25  S      Ryd( 2S)     0.00118
   343    H   25  px     Ryd( 2p)     0.00005
   344    H   25  py     Ryd( 2p)     0.00039
   345    H   25  pz     Ryd( 2p)     0.00018

   346    H   26  S      Val( 1S)     0.74784
   347    H   26  S      Ryd( 2S)     0.00141
   348    H   26  px     Ryd( 2p)     0.00006
   349    H   26  py     Ryd( 2p)     0.00020
   350    H   26  pz     Ryd( 2p)     0.00036

   351    H   27  S      Val( 1S)     0.74596
   352    H   27  S      Ryd( 2S)     0.00105
   353    H   27  px     Ryd( 2p)     0.00006
   354    H   27  py     Ryd( 2p)     0.00039
   355    H   27  pz     Ryd( 2p)     0.00013

   356    H   28  S      Val( 1S)     0.75002
   357    H   28  S      Ryd( 2S)     0.00075
   358    H   28  px     Ryd( 2p)     0.00028
   359    H   28  py     Ryd( 2p)     0.00020
   360    H   28  pz     Ryd( 2p)     0.00012

   361    H   29  S      Val( 1S)     0.75383
   362    H   29  S      Ryd( 2S)     0.00086
   363    H   29  px     Ryd( 2p)     0.00036
   364    H   29  py     Ryd( 2p)     0.00009
   365    H   29  pz     Ryd( 2p)     0.00014

   366    H   30  S      Val( 1S)     0.58120
   367    H   30  S      Ryd( 2S)     0.00104
   368    H   30  px     Ryd( 2p)     0.00046
   369    H   30  py     Ryd( 2p)     0.00024
   370    H   30  pz     Ryd( 2p)     0.00055

   371    H   31  S      Val( 1S)     0.58140
   372    H   31  S      Ryd( 2S)     0.00109
   373    H   31  px     Ryd( 2p)     0.00043
   374    H   31  py     Ryd( 2p)     0.00033
   375    H   31  pz     Ryd( 2p)     0.00049

   376    H   32  S      Val( 1S)     0.74414
   377    H   32  S      Ryd( 2S)     0.00099
   378    H   32  px     Ryd( 2p)     0.00027
   379    H   32  py     Ryd( 2p)     0.00017
   380    H   32  pz     Ryd( 2p)     0.00014

   381    H   33  S      Val( 1S)     0.75038
   382    H   33  S      Ryd( 2S)     0.00082
   383    H   33  px     Ryd( 2p)     0.00033
   384    H   33  py     Ryd( 2p)     0.00015
   385    H   33  pz     Ryd( 2p)     0.00014

   386    H   34  S      Val( 1S)     0.75926
   387    H   34  S      Ryd( 2S)     0.00070
   388    H   34  px     Ryd( 2p)     0.00007
   389    H   34  py     Ryd( 2p)     0.00020
   390    H   34  pz     Ryd( 2p)     0.00038

   391    H   35  S      Val( 1S)     0.74848
   392    H   35  S      Ryd( 2S)     0.00076
   393    H   35  px     Ryd( 2p)     0.00031
   394    H   35  py     Ryd( 2p)     0.00015
   395    H   35  pz     Ryd( 2p)     0.00015

   396    H   36  S      Val( 1S)     0.73488
   397    H   36  S      Ryd( 2S)     0.00072
   398    H   36  px     Ryd( 2p)     0.00034
   399    H   36  py     Ryd( 2p)     0.00013
   400    H   36  pz     Ryd( 2p)     0.00012

   401    H   37  S      Val( 1S)     0.74613
   402    H   37  S      Ryd( 2S)     0.00075
   403    H   37  px     Ryd( 2p)     0.00006
   404    H   37  py     Ryd( 2p)     0.00041
   405    H   37  pz     Ryd( 2p)     0.00016

   406    H   38  S      Val( 1S)     0.74768
   407    H   38  S      Ryd( 2S)     0.00100
   408    H   38  px     Ryd( 2p)     0.00031
   409    H   38  py     Ryd( 2p)     0.00015
   410    H   38  pz     Ryd( 2p)     0.00015

 WARNING:  1 low occupancy (<1.9990e) core orbital  found on  C    2
           1 low occupancy (<1.9990e) core orbital  found on  C    3
           1 low occupancy (<1.9990e) core orbital  found on  C    4
           1 low occupancy (<1.9990e) core orbital  found on  C    6
           1 low occupancy (<1.9990e) core orbital  found on  C    7
           1 low occupancy (<1.9990e) core orbital  found on  C    8
           1 low occupancy (<1.9990e) core orbital  found on  C   10
           1 low occupancy (<1.9990e) core orbital  found on  C   11
           1 low occupancy (<1.9990e) core orbital  found on  C   16


 Summary of Natural Population Analysis:                  
                                                          
                                       Natural Population 
                Natural  -----------------------------------------------
    Atom  No    Charge         Core      Valence    Rydberg      Total
 -----------------------------------------------------------------------
      N    1   -0.71993      1.99948     5.71024    0.01021     7.71993
      C    2    0.19725      1.99900     3.78576    0.01799     5.80275
      C    3   -0.38366      1.99895     4.36698    0.01773     6.38366
      C    4    0.28192      1.99876     3.69559    0.02374     5.71808
      O    5   -0.48552      1.99971     6.47404    0.01177     8.48552
      C    6    0.27726      1.99875     3.70091    0.02308     5.72274
      C    7   -0.41057      1.99895     4.39352    0.01810     6.41057
      C    8    0.31879      1.99875     3.65993    0.02254     5.68121
      O    9   -0.51562      1.99970     6.50449    0.01144     8.51562
      C   10    0.31156      1.99874     3.66750    0.02220     5.68844
      C   11   -0.32697      1.99899     4.31396    0.01402     6.32697
      C   12   -0.22153      1.99913     4.20860    0.01380     6.22153
      C   13   -0.30777      1.99904     4.29633    0.01240     6.30777
      C   14    0.17532      1.99900     3.80795    0.01772     5.82468
      N   15   -0.85647      1.99951     5.84528    0.01168     7.85647
      C   16   -0.34159      1.99893     4.33101    0.01165     6.34159
      C   17   -0.34052      1.99901     4.32757    0.01394     6.34052
      C   18   -0.30479      1.99914     4.28817    0.01748     6.30479
      C   19   -0.29804      1.99902     4.28639    0.01262     6.29804
      C   20   -0.19425      1.99900     4.18203    0.01322     6.19425
      C   21   -0.30370      1.99916     4.28660    0.01795     6.30370
      C   22   -0.26186      1.99905     4.24719    0.01562     6.26186
      H   23    0.43360      0.00000     0.56373    0.00266     0.56640
      H   24    0.43363      0.00000     0.56402    0.00235     0.56637
      H   25    0.25582      0.00000     0.74240    0.00179     0.74418
      H   26    0.25014      0.00000     0.74784    0.00202     0.74986
      H   27    0.25240      0.00000     0.74596    0.00164     0.74760
      H   28    0.24862      0.00000     0.75002    0.00136     0.75138
      H   29    0.24472      0.00000     0.75383    0.00145     0.75528
      H   30    0.41651      0.00000     0.58120    0.00230     0.58349
      H   31    0.41625      0.00000     0.58140    0.00234     0.58375
      H   32    0.25429      0.00000     0.74414    0.00157     0.74571
      H   33    0.24818      0.00000     0.75038    0.00144     0.75182
      H   34    0.23940      0.00000     0.75926    0.00134     0.76060
      H   35    0.25014      0.00000     0.74848    0.00138     0.74986
      H   36    0.26381      0.00000     0.73488    0.00131     0.73619
      H   37    0.25249      0.00000     0.74613    0.00138     0.74751
      H   38    0.25071      0.00000     0.74768    0.00161     0.74929
 =======================================================================
   * Total *   -0.00000     43.97976   109.64139    0.37885   154.00000

                                 Natural Population      
 --------------------------------------------------------
   Core                      43.97976 ( 99.9540% of  44)
   Valence                  109.64139 ( 99.6740% of 110)
   Natural Minimal Basis    153.62115 ( 99.7540% of 154)
   Natural Rydberg Basis      0.37885 (  0.2460% of 154)
 --------------------------------------------------------

    Atom  No          Natural Electron Configuration
 ----------------------------------------------------------------------------
      N    1      [core]2S( 1.37)2p( 4.34)3p( 0.01)
      C    2      [core]2S( 0.85)2p( 2.93)3p( 0.01)3d( 0.01)
      C    3      [core]2S( 0.95)2p( 3.41)3p( 0.01)
      C    4      [core]2S( 0.84)2p( 2.86)3p( 0.02)3d( 0.01)
      O    5      [core]2S( 1.57)2p( 4.90)3p( 0.01)3d( 0.01)
      C    6      [core]2S( 0.83)2p( 2.87)3p( 0.02)3d( 0.01)
      C    7      [core]2S( 0.95)2p( 3.44)3p( 0.01)
      C    8      [core]2S( 0.84)2p( 2.82)3p( 0.01)3d( 0.01)
      O    9      [core]2S( 1.57)2p( 4.94)3p( 0.01)3d( 0.01)
      C   10      [core]2S( 0.84)2p( 2.83)3p( 0.01)3d( 0.01)
      C   11      [core]2S( 0.96)2p( 3.35)3p( 0.01)
      C   12      [core]2S( 0.96)2p( 3.25)3p( 0.01)
      C   13      [core]2S( 0.96)2p( 3.34)3p( 0.01)
      C   14      [core]2S( 0.84)2p( 2.97)3p( 0.01)
      N   15      [core]2S( 1.36)2p( 4.49)3p( 0.01)
      C   16      [core]2S( 0.96)2p( 3.37)3p( 0.01)
      C   17      [core]2S( 0.96)2p( 3.37)3p( 0.01)
      C   18      [core]2S( 0.95)2p( 3.34)3p( 0.01)
      C   19      [core]2S( 0.96)2p( 3.32)3p( 0.01)
      C   20      [core]2S( 0.98)2p( 3.20)3p( 0.01)
      C   21      [core]2S( 0.96)2p( 3.33)3p( 0.01)
      C   22      [core]2S( 0.96)2p( 3.28)3p( 0.01)
      H   23            1S( 0.56)
      H   24            1S( 0.56)
      H   25            1S( 0.74)
      H   26            1S( 0.75)
      H   27            1S( 0.75)
      H   28            1S( 0.75)
      H   29            1S( 0.75)
      H   30            1S( 0.58)
      H   31            1S( 0.58)
      H   32            1S( 0.74)
      H   33            1S( 0.75)
      H   34            1S( 0.76)
      H   35            1S( 0.75)
      H   36            1S( 0.73)
      H   37            1S( 0.75)
      H   38            1S( 0.75)


 NBO analysis skipped by request.
 1\1\GINC-DRG2-W001\SP\RB3LYP TD-FC\6-31G(d,p)\C18H16N2O2\QDUEZ\17-Jul-
 2024\0\\# TD(NStates=10, Root=1) B3LYP/6-31G** SCRF=(Solvent=water) vo
 lume pop=NPA density=current Geom=AllCheck Guess=Read\\DKKYOQYISDAQER-
 UHFFFAOYSA-N_conf_0\\0,1\N,0,6.8301844627,-1.5090317734,1.4544725601\C
 ,0,5.6187722843,-0.8331460544,1.5728351537\C,0,4.4291006003,-1.4145722
 61,1.0981183035\C,0,3.2138483229,-0.7615245907,1.2825263428\O,0,2.0770
 589889,-1.444184548,0.8675645511\C,0,1.1060209112,-0.803065746,0.12631
 36459\C,0,-0.192071814,-1.2952764336,0.2695945318\C,0,-1.2197374025,-0
 .7509510779,-0.5024419558\O,0,-2.4573407567,-1.3425677189,-0.356176528
 6\C,0,-3.6222317402,-0.6207586491,-0.5857400275\C,0,-4.5972312434,-1.2
 266369874,-1.3778157166\C,0,-5.8123576407,-0.5599039088,-1.5530134468\
 C,0,-6.0483359009,0.6784829022,-0.9627014177\C,0,-5.0586217632,1.28281
 67702,-0.1621261899\N,0,-5.3106840392,2.4868692523,0.4912278646\C,0,-3
 .8367675786,0.6132451975,0.0270848435\C,0,-0.9655239334,0.2847208716,-
 1.4081221732\C,0,0.3395328072,0.7645005653,-1.5254841153\C,0,1.3863310
 65,0.2321078347,-0.7721766407\C,0,3.133581475,0.4736942079,1.931176950
 5\C,0,4.3204783564,1.0498227955,2.3885218676\C,0,5.5493784542,0.416324
 5286,2.218654793\H,0,6.8748466737,-2.1852313709,0.7032626231\H,0,7.652
 509529,-0.9198769574,1.471356674\H,0,4.4429828102,-2.3742259955,0.5908
 79629\H,0,-0.3993849484,-2.0960930363,0.9700029361\H,0,-4.3985591998,-
 2.1886470761,-1.8362301879\H,0,-6.5850441305,-1.0113393861,-2.16849892
 12\H,0,-6.9970523137,1.1855537372,-1.113519508\H,0,-6.0207447165,3.065
 1673963,0.0610720224\H,0,-4.4895538183,3.0272883599,0.7306936956\H,0,-
 3.063157615,1.0522914287,0.64891915\H,0,-1.7662712371,0.7004467897,-2.
 0074378913\H,0,0.548040697,1.5631318917,-2.2310060943\H,0,2.3967521338
 ,0.6068160649,-0.8815232105\H,0,2.1767030738,0.961976005,2.0738177095\
 H,0,4.2847105988,2.0110730442,2.8930987578\H,0,6.4598385476,0.88070392
 83,2.5865310202\\Version=ES64L-G16RevA.03\State=1-A\HF=-955.5310464\RM
 SD=3.449e-09\Dipole=3.5408159,1.469032,0.3105204\Quadrupole=38.2105882
 ,-13.2577235,-24.9528647,-14.7632974,8.4036136,2.4556115\PG=C01 [X(C18
 H16N2O2)]\\@


 "PERFECTION IS NOT AN ACCIDENT"
         --  EAGLE ELECTRIC MANUFACTURING CO.,INC. NY
 Job cpu time:       0 days  1 hours 11 minutes 32.2 seconds.
 Elapsed time:       0 days  0 hours 23 minutes 55.5 seconds.
 File lengths (MBytes):  RWF=   1375 Int=      0 D2E=      0 Chk=     84 Scr=      1
 Normal termination of Gaussian 16 at Wed Jul 17 16:24:13 2024.
