 Entering Gaussian System, Link 0=g16
 Initial command:
 /opt/sw/arch/manual/gaussian/G16_A03/g16/l1.exe "/scratch/1380933/Gau-111057.inp" -scrdir="/scratch/1380933/"
 Entering Link 1 = /opt/sw/arch/manual/gaussian/G16_A03/g16/l1.exe PID=    111058.
  
 Copyright (c) 1988,1990,1992,1993,1995,1998,2003,2009,2016,
            Gaussian, Inc.  All Rights Reserved.
  
 This is part of the Gaussian(R) 16 program.  It is based on
 the Gaussian(R) 09 system (copyright 2009, Gaussian, Inc.),
 the Gaussian(R) 03 system (copyright 2003, Gaussian, Inc.),
 the Gaussian(R) 98 system (copyright 1998, Gaussian, Inc.),
 the Gaussian(R) 94 system (copyright 1995, Gaussian, Inc.),
 the Gaussian 92(TM) system (copyright 1992, Gaussian, Inc.),
 the Gaussian 90(TM) system (copyright 1990, Gaussian, Inc.),
 the Gaussian 88(TM) system (copyright 1988, Gaussian, Inc.),
 the Gaussian 86(TM) system (copyright 1986, Carnegie Mellon
 University), and the Gaussian 82(TM) system (copyright 1983,
 Carnegie Mellon University). Gaussian is a federally registered
 trademark of Gaussian, Inc.
  
 This software contains proprietary and confidential information,
 including trade secrets, belonging to Gaussian, Inc.
  
 This software is provided under written license and may be
 used, copied, transmitted, or stored only in accord with that
 written license.
  
 The following legend is applicable only to US Government
 contracts under FAR:
  
                    RESTRICTED RIGHTS LEGEND
  
 Use, reproduction and disclosure by the US Government is
 subject to restrictions as set forth in subparagraphs (a)
 and (c) of the Commercial Computer Software - Restricted
 Rights clause in FAR 52.227-19.
  
 Gaussian, Inc.
 340 Quinnipiac St., Bldg. 40, Wallingford CT 06492
  
  
 ---------------------------------------------------------------
 Warning -- This program may not be used in any manner that
 competes with the business of Gaussian, Inc. or will provide
 assistance to any competitor of Gaussian, Inc.  The licensee
 of this program is prohibited from giving any competitor of
 Gaussian, Inc. access to this program.  By using this program,
 the user acknowledges that Gaussian, Inc. is engaged in the
 business of creating and licensing software in the field of
 computational chemistry and represents and warrants to the
 licensee that it is not a competitor of Gaussian, Inc. and that
 it will not use this program in any manner prohibited above.
 ---------------------------------------------------------------
  

 Cite this work as:
 Gaussian 16, Revision A.03,
 M. J. Frisch, G. W. Trucks, H. B. Schlegel, G. E. Scuseria, 
 M. A. Robb, J. R. Cheeseman, G. Scalmani, V. Barone, 
 G. A. Petersson, H. Nakatsuji, X. Li, M. Caricato, A. V. Marenich, 
 J. Bloino, B. G. Janesko, R. Gomperts, B. Mennucci, H. P. Hratchian, 
 J. V. Ortiz, A. F. Izmaylov, J. L. Sonnenberg, D. Williams-Young, 
 F. Ding, F. Lipparini, F. Egidi, J. Goings, B. Peng, A. Petrone, 
 T. Henderson, D. Ranasinghe, V. G. Zakrzewski, J. Gao, N. Rega, 
 G. Zheng, W. Liang, M. Hada, M. Ehara, K. Toyota, R. Fukuda, 
 J. Hasegawa, M. Ishida, T. Nakajima, Y. Honda, O. Kitao, H. Nakai, 
 T. Vreven, K. Throssell, J. A. Montgomery, Jr., J. E. Peralta, 
 F. Ogliaro, M. J. Bearpark, J. J. Heyd, E. N. Brothers, K. N. Kudin, 
 V. N. Staroverov, T. A. Keith, R. Kobayashi, J. Normand, 
 K. Raghavachari, A. P. Rendell, J. C. Burant, S. S. Iyengar, 
 J. Tomasi, M. Cossi, J. M. Millam, M. Klene, C. Adamo, R. Cammi, 
 J. W. Ochterski, R. L. Martin, K. Morokuma, O. Farkas, 
 J. B. Foresman, and D. J. Fox, Gaussian, Inc., Wallingford CT, 2016.
 
 ******************************************
 Gaussian 16:  ES64L-G16RevA.03 25-Dec-2016
                18-Jul-2024 
 ******************************************
 %nprocshared=5
 Will use up to    5 processors via shared memory.
 %mem=10GB
 %Chk=MBJAPGAZEWPEFB-UHFFFAOYSA-N_conf_1_0.chk
 -------------------------------------------------------
 # opt=CalcFc B3LYP/6-31G** SCRF=(Solvent=water) scf=xqc
 -------------------------------------------------------
 1/10=4,18=20,19=15,26=3,38=1/1,3;
 2/9=110,12=2,17=6,18=5,40=1/2;
 3/5=1,6=6,7=101,11=2,25=1,30=1,70=2201,71=2,72=1,74=-5,140=1/1,2,3;
 4//1;
 5/5=2,8=3,13=1,38=5,53=1/2,8;
 8/6=4,10=90,11=11/1;
 11/6=1,8=1,9=11,15=111,16=1/1,2,10;
 10/6=1,13=1/2;
 6/7=2,8=2,9=2,10=2,28=1/1;
 7/10=1,18=20,25=1/1,2,3,16;
 1/10=4,18=20,19=15,26=3/3(2);
 2/9=110/2;
 99//99;
 2/9=110/2;
 3/5=1,6=6,7=101,11=2,25=1,30=1,70=2205,71=1,72=1,74=-5/1,2,3;
 4/5=5,16=3,69=1/1;
 5/5=2,8=3,13=1,38=5,53=1/2,8;
 7//1,2,3,16;
 1/18=20,19=15,26=3/3(-5);
 2/9=110/2;
 6/7=2,8=2,9=2,10=2,19=2,28=1/1;
 99/9=1/99;
 ----------------------------------
 MBJAPGAZEWPEFB-UHFFFAOYSA-N_conf_1
 ----------------------------------
 Symbolic Z-matrix:
 Charge =  0 Multiplicity = 1
 N                    -4.374     0.71645  -2.47261 
 C                    -3.12787   0.46472  -1.88967 
 C                    -2.32087  -0.56351  -2.37259 
 C                    -1.12732  -0.90175  -1.72603 
 C                    -0.72257  -0.24917  -0.54741 
 C                     0.53682  -0.67561   0.08306 
 C                     0.50398  -1.83937   0.8764 
 C                     1.65121  -2.33177   1.50839 
 C                     2.86633  -1.66203   1.40046 
 N                     4.03107  -2.22164   1.92888 
 C                     2.9345   -0.54851   0.56694 
 C                     1.78378  -0.04521  -0.0727 
 S                     2.04363   1.42238  -1.05397 
 O                     0.8054    1.82608  -1.68189 
 O                     2.37006   2.54267   0.06548 
 O                     3.24181   1.2071   -1.83716 
 C                    -1.58203   0.73999  -0.0312 
 S                    -1.19648   1.60505   1.4684 
 O                    -2.35377   2.37131   1.87828 
 O                    -1.06187   0.45487   2.58867 
 O                     0.10148   2.23513   1.31066 
 C                    -2.77726   1.07926  -0.68886 
 H                    -4.73542   1.64816  -2.28875 
 H                    -4.41573   0.48688  -3.46175 
 H                    -2.60699  -1.10965  -3.26828 
 H                    -0.51031  -1.69115  -2.15438 
 H                    -0.43016  -2.38591   1.00457 
 H                     1.58164  -3.24957   2.08719 
 H                     4.79303  -1.56293   2.06155 
 H                     3.88436  -2.8103    2.74282 
 H                     3.89409  -0.05758   0.40796 
 H                     1.54694   2.68683   0.60197 
 H                    -1.78882   0.58435   3.23496 
 H                    -3.43865   1.83442  -0.26938 
 

 GradGradGradGradGradGradGradGradGradGradGradGradGradGradGradGradGradGrad
 Berny optimization.
 Initialization pass.
                           ----------------------------
                           !    Initial Parameters    !
                           ! (Angstroms and Degrees)  !
 --------------------------                            --------------------------
 ! Name  Definition              Value          Derivative Info.                !
 --------------------------------------------------------------------------------
 ! R1    R(1,2)                  1.3986         calculate D2E/DX2 analytically  !
 ! R2    R(1,23)                 1.0161         calculate D2E/DX2 analytically  !
 ! R3    R(1,24)                 1.0163         calculate D2E/DX2 analytically  !
 ! R4    R(2,3)                  1.3935         calculate D2E/DX2 analytically  !
 ! R5    R(2,22)                 1.3937         calculate D2E/DX2 analytically  !
 ! R6    R(3,4)                  1.3989         calculate D2E/DX2 analytically  !
 ! R7    R(3,25)                 1.0874         calculate D2E/DX2 analytically  !
 ! R8    R(4,5)                  1.4067         calculate D2E/DX2 analytically  !
 ! R9    R(4,26)                 1.0897         calculate D2E/DX2 analytically  !
 ! R10   R(5,6)                  1.4715         calculate D2E/DX2 analytically  !
 ! R11   R(5,17)                 1.4084         calculate D2E/DX2 analytically  !
 ! R12   R(6,7)                  1.4088         calculate D2E/DX2 analytically  !
 ! R13   R(6,12)                 1.4059         calculate D2E/DX2 analytically  !
 ! R14   R(7,8)                  1.3993         calculate D2E/DX2 analytically  !
 ! R15   R(7,27)                 1.0898         calculate D2E/DX2 analytically  !
 ! R16   R(8,9)                  1.3917         calculate D2E/DX2 analytically  !
 ! R17   R(8,28)                 1.0873         calculate D2E/DX2 analytically  !
 ! R18   R(9,10)                 1.3961         calculate D2E/DX2 analytically  !
 ! R19   R(9,11)                 1.3926         calculate D2E/DX2 analytically  !
 ! R20   R(10,29)                1.0159         calculate D2E/DX2 analytically  !
 ! R21   R(10,30)                1.0152         calculate D2E/DX2 analytically  !
 ! R22   R(11,12)                1.4095         calculate D2E/DX2 analytically  !
 ! R23   R(11,31)                1.0895         calculate D2E/DX2 analytically  !
 ! R24   R(12,13)                1.7844         calculate D2E/DX2 analytically  !
 ! R25   R(13,14)                1.4458         calculate D2E/DX2 analytically  !
 ! R26   R(13,15)                1.617          calculate D2E/DX2 analytically  !
 ! R27   R(13,16)                1.4475         calculate D2E/DX2 analytically  !
 ! R28   R(15,32)                0.993          calculate D2E/DX2 analytically  !
 ! R29   R(17,18)                1.7736         calculate D2E/DX2 analytically  !
 ! R30   R(17,22)                1.4058         calculate D2E/DX2 analytically  !
 ! R31   R(18,19)                1.4472         calculate D2E/DX2 analytically  !
 ! R32   R(18,20)                1.6112         calculate D2E/DX2 analytically  !
 ! R33   R(18,21)                1.4514         calculate D2E/DX2 analytically  !
 ! R34   R(20,33)                0.9813         calculate D2E/DX2 analytically  !
 ! R35   R(22,34)                1.088          calculate D2E/DX2 analytically  !
 ! A1    A(2,1,23)             113.9871         calculate D2E/DX2 analytically  !
 ! A2    A(2,1,24)             113.6793         calculate D2E/DX2 analytically  !
 ! A3    A(23,1,24)            111.6306         calculate D2E/DX2 analytically  !
 ! A4    A(1,2,3)              120.2889         calculate D2E/DX2 analytically  !
 ! A5    A(1,2,22)             120.2579         calculate D2E/DX2 analytically  !
 ! A6    A(3,2,22)             118.5722         calculate D2E/DX2 analytically  !
 ! A7    A(2,3,4)              120.8203         calculate D2E/DX2 analytically  !
 ! A8    A(2,3,25)             120.2451         calculate D2E/DX2 analytically  !
 ! A9    A(4,3,25)             118.9314         calculate D2E/DX2 analytically  !
 ! A10   A(3,4,5)              121.37           calculate D2E/DX2 analytically  !
 ! A11   A(3,4,26)             118.4633         calculate D2E/DX2 analytically  !
 ! A12   A(5,4,26)             120.1664         calculate D2E/DX2 analytically  !
 ! A13   A(4,5,6)              118.0853         calculate D2E/DX2 analytically  !
 ! A14   A(4,5,17)             117.2144         calculate D2E/DX2 analytically  !
 ! A15   A(6,5,17)             124.6641         calculate D2E/DX2 analytically  !
 ! A16   A(5,6,7)              117.4323         calculate D2E/DX2 analytically  !
 ! A17   A(5,6,12)             125.5679         calculate D2E/DX2 analytically  !
 ! A18   A(7,6,12)             116.9658         calculate D2E/DX2 analytically  !
 ! A19   A(6,7,8)              121.7292         calculate D2E/DX2 analytically  !
 ! A20   A(6,7,27)             120.0297         calculate D2E/DX2 analytically  !
 ! A21   A(8,7,27)             118.2394         calculate D2E/DX2 analytically  !
 ! A22   A(7,8,9)              120.7628         calculate D2E/DX2 analytically  !
 ! A23   A(7,8,28)             119.0128         calculate D2E/DX2 analytically  !
 ! A24   A(9,8,28)             120.2244         calculate D2E/DX2 analytically  !
 ! A25   A(8,9,10)             120.411          calculate D2E/DX2 analytically  !
 ! A26   A(8,9,11)             118.2922         calculate D2E/DX2 analytically  !
 ! A27   A(10,9,11)            120.413          calculate D2E/DX2 analytically  !
 ! A28   A(9,10,29)            114.5362         calculate D2E/DX2 analytically  !
 ! A29   A(9,10,30)            114.5411         calculate D2E/DX2 analytically  !
 ! A30   A(29,10,30)           112.313          calculate D2E/DX2 analytically  !
 ! A31   A(9,11,12)            121.1441         calculate D2E/DX2 analytically  !
 ! A32   A(9,11,31)            119.3884         calculate D2E/DX2 analytically  !
 ! A33   A(12,11,31)           119.4674         calculate D2E/DX2 analytically  !
 ! A34   A(6,12,11)            120.9118         calculate D2E/DX2 analytically  !
 ! A35   A(6,12,13)            123.977          calculate D2E/DX2 analytically  !
 ! A36   A(11,12,13)           115.1096         calculate D2E/DX2 analytically  !
 ! A37   A(12,13,14)           110.105          calculate D2E/DX2 analytically  !
 ! A38   A(12,13,15)           102.6208         calculate D2E/DX2 analytically  !
 ! A39   A(12,13,16)           107.2022         calculate D2E/DX2 analytically  !
 ! A40   A(14,13,15)           106.2662         calculate D2E/DX2 analytically  !
 ! A41   A(14,13,16)           121.026          calculate D2E/DX2 analytically  !
 ! A42   A(15,13,16)           108.0897         calculate D2E/DX2 analytically  !
 ! A43   A(13,15,32)           107.8941         calculate D2E/DX2 analytically  !
 ! A44   A(5,17,18)            121.3181         calculate D2E/DX2 analytically  !
 ! A45   A(5,17,22)            121.1228         calculate D2E/DX2 analytically  !
 ! A46   A(18,17,22)           117.559          calculate D2E/DX2 analytically  !
 ! A47   A(17,18,19)           108.8973         calculate D2E/DX2 analytically  !
 ! A48   A(17,18,20)           104.9429         calculate D2E/DX2 analytically  !
 ! A49   A(17,18,21)           108.3151         calculate D2E/DX2 analytically  !
 ! A50   A(19,18,20)           104.3502         calculate D2E/DX2 analytically  !
 ! A51   A(19,18,21)           121.0673         calculate D2E/DX2 analytically  !
 ! A52   A(20,18,21)           108.1043         calculate D2E/DX2 analytically  !
 ! A53   A(18,20,33)           107.5688         calculate D2E/DX2 analytically  !
 ! A54   A(2,22,17)            120.6997         calculate D2E/DX2 analytically  !
 ! A55   A(2,22,34)            119.0329         calculate D2E/DX2 analytically  !
 ! A56   A(17,22,34)           120.2652         calculate D2E/DX2 analytically  !
 ! D1    D(23,1,2,3)          -159.7715         calculate D2E/DX2 analytically  !
 ! D2    D(23,1,2,22)           31.1252         calculate D2E/DX2 analytically  !
 ! D3    D(24,1,2,3)           -30.3004         calculate D2E/DX2 analytically  !
 ! D4    D(24,1,2,22)          160.5962         calculate D2E/DX2 analytically  !
 ! D5    D(1,2,3,4)           -174.3436         calculate D2E/DX2 analytically  !
 ! D6    D(1,2,3,25)             6.3136         calculate D2E/DX2 analytically  !
 ! D7    D(22,2,3,4)            -5.0589         calculate D2E/DX2 analytically  !
 ! D8    D(22,2,3,25)          175.5984         calculate D2E/DX2 analytically  !
 ! D9    D(1,2,22,17)          174.062          calculate D2E/DX2 analytically  !
 ! D10   D(1,2,22,34)           -6.4717         calculate D2E/DX2 analytically  !
 ! D11   D(3,2,22,17)            4.7738         calculate D2E/DX2 analytically  !
 ! D12   D(3,2,22,34)         -175.7599         calculate D2E/DX2 analytically  !
 ! D13   D(2,3,4,5)              2.0779         calculate D2E/DX2 analytically  !
 ! D14   D(2,3,4,26)          -178.1106         calculate D2E/DX2 analytically  !
 ! D15   D(25,3,4,5)          -178.5708         calculate D2E/DX2 analytically  !
 ! D16   D(25,3,4,26)            1.2407         calculate D2E/DX2 analytically  !
 ! D17   D(3,4,5,6)            179.1536         calculate D2E/DX2 analytically  !
 ! D18   D(3,4,5,17)             1.2352         calculate D2E/DX2 analytically  !
 ! D19   D(26,4,5,6)            -0.6547         calculate D2E/DX2 analytically  !
 ! D20   D(26,4,5,17)         -178.5731         calculate D2E/DX2 analytically  !
 ! D21   D(4,5,6,7)            -80.073          calculate D2E/DX2 analytically  !
 ! D22   D(4,5,6,12)            97.7314         calculate D2E/DX2 analytically  !
 ! D23   D(17,5,6,7)            97.6763         calculate D2E/DX2 analytically  !
 ! D24   D(17,5,6,12)          -84.5193         calculate D2E/DX2 analytically  !
 ! D25   D(4,5,17,18)          178.6088         calculate D2E/DX2 analytically  !
 ! D26   D(4,5,17,22)           -1.511          calculate D2E/DX2 analytically  !
 ! D27   D(6,5,17,18)            0.8417         calculate D2E/DX2 analytically  !
 ! D28   D(6,5,17,22)         -179.2781         calculate D2E/DX2 analytically  !
 ! D29   D(5,6,7,8)            179.4599         calculate D2E/DX2 analytically  !
 ! D30   D(5,6,7,27)            -0.0539         calculate D2E/DX2 analytically  !
 ! D31   D(12,6,7,8)             1.4636         calculate D2E/DX2 analytically  !
 ! D32   D(12,6,7,27)         -178.0502         calculate D2E/DX2 analytically  !
 ! D33   D(5,6,12,11)         -179.2295         calculate D2E/DX2 analytically  !
 ! D34   D(5,6,12,13)            1.2609         calculate D2E/DX2 analytically  !
 ! D35   D(7,6,12,11)           -1.4159         calculate D2E/DX2 analytically  !
 ! D36   D(7,6,12,13)          179.0746         calculate D2E/DX2 analytically  !
 ! D37   D(6,7,8,9)              1.6734         calculate D2E/DX2 analytically  !
 ! D38   D(6,7,8,28)          -178.2648         calculate D2E/DX2 analytically  !
 ! D39   D(27,7,8,9)          -178.8045         calculate D2E/DX2 analytically  !
 ! D40   D(27,7,8,28)            1.2574         calculate D2E/DX2 analytically  !
 ! D41   D(7,8,9,10)          -174.0747         calculate D2E/DX2 analytically  !
 ! D42   D(7,8,9,11)            -4.7901         calculate D2E/DX2 analytically  !
 ! D43   D(28,8,9,10)            5.8627         calculate D2E/DX2 analytically  !
 ! D44   D(28,8,9,11)          175.1474         calculate D2E/DX2 analytically  !
 ! D45   D(8,9,10,29)         -162.1035         calculate D2E/DX2 analytically  !
 ! D46   D(8,9,10,30)          -30.2498         calculate D2E/DX2 analytically  !
 ! D47   D(11,9,10,29)          28.84           calculate D2E/DX2 analytically  !
 ! D48   D(11,9,10,30)         160.6938         calculate D2E/DX2 analytically  !
 ! D49   D(8,9,11,12)            4.8444         calculate D2E/DX2 analytically  !
 ! D50   D(8,9,11,31)         -175.2352         calculate D2E/DX2 analytically  !
 ! D51   D(10,9,11,12)         174.1288         calculate D2E/DX2 analytically  !
 ! D52   D(10,9,11,31)          -5.9507         calculate D2E/DX2 analytically  !
 ! D53   D(9,11,12,6)           -1.7581         calculate D2E/DX2 analytically  !
 ! D54   D(9,11,12,13)         177.7927         calculate D2E/DX2 analytically  !
 ! D55   D(31,11,12,6)         178.3215         calculate D2E/DX2 analytically  !
 ! D56   D(31,11,12,13)         -2.1277         calculate D2E/DX2 analytically  !
 ! D57   D(6,12,13,14)          -1.7391         calculate D2E/DX2 analytically  !
 ! D58   D(6,12,13,15)         111.0676         calculate D2E/DX2 analytically  !
 ! D59   D(6,12,13,16)        -135.2033         calculate D2E/DX2 analytically  !
 ! D60   D(11,12,13,14)        178.7257         calculate D2E/DX2 analytically  !
 ! D61   D(11,12,13,15)        -68.4677         calculate D2E/DX2 analytically  !
 ! D62   D(11,12,13,16)         45.2614         calculate D2E/DX2 analytically  !
 ! D63   D(12,13,15,32)        -66.8202         calculate D2E/DX2 analytically  !
 ! D64   D(14,13,15,32)         48.7916         calculate D2E/DX2 analytically  !
 ! D65   D(16,13,15,32)       -179.8971         calculate D2E/DX2 analytically  !
 ! D66   D(5,17,18,19)        -169.7321         calculate D2E/DX2 analytically  !
 ! D67   D(5,17,18,20)         -58.4784         calculate D2E/DX2 analytically  !
 ! D68   D(5,17,18,21)          56.8069         calculate D2E/DX2 analytically  !
 ! D69   D(22,17,18,19)         10.3835         calculate D2E/DX2 analytically  !
 ! D70   D(22,17,18,20)        121.6372         calculate D2E/DX2 analytically  !
 ! D71   D(22,17,18,21)       -123.0775         calculate D2E/DX2 analytically  !
 ! D72   D(5,17,22,2)           -1.5099         calculate D2E/DX2 analytically  !
 ! D73   D(5,17,22,34)         179.0303         calculate D2E/DX2 analytically  !
 ! D74   D(18,17,22,2)         178.3747         calculate D2E/DX2 analytically  !
 ! D75   D(18,17,22,34)         -1.0851         calculate D2E/DX2 analytically  !
 ! D76   D(17,18,20,33)       -114.525          calculate D2E/DX2 analytically  !
 ! D77   D(19,18,20,33)         -0.0509         calculate D2E/DX2 analytically  !
 ! D78   D(21,18,20,33)        130.0434         calculate D2E/DX2 analytically  !
 --------------------------------------------------------------------------------
 Trust Radius=3.00D-01 FncErr=1.00D-07 GrdErr=1.00D-06 EigMax=2.50D+02 EigMin=1.00D-04
 Number of steps in this run=    179 maximum allowed number of steps=    204.
 GradGradGradGradGradGradGradGradGradGradGradGradGradGradGradGradGradGrad

                          Input orientation:                          
 ---------------------------------------------------------------------
 Center     Atomic      Atomic             Coordinates (Angstroms)
 Number     Number       Type             X           Y           Z
 ---------------------------------------------------------------------
      1          7           0       -4.373995    0.716445   -2.472614
      2          6           0       -3.127867    0.464724   -1.889667
      3          6           0       -2.320873   -0.563508   -2.372590
      4          6           0       -1.127325   -0.901752   -1.726031
      5          6           0       -0.722571   -0.249171   -0.547405
      6          6           0        0.536820   -0.675612    0.083059
      7          6           0        0.503984   -1.839373    0.876398
      8          6           0        1.651212   -2.331767    1.508394
      9          6           0        2.866332   -1.662032    1.400456
     10          7           0        4.031069   -2.221641    1.928876
     11          6           0        2.934495   -0.548511    0.566938
     12          6           0        1.783781   -0.045206   -0.072704
     13         16           0        2.043630    1.422383   -1.053967
     14          8           0        0.805397    1.826080   -1.681888
     15          8           0        2.370060    2.542669    0.065483
     16          8           0        3.241815    1.207102   -1.837164
     17          6           0       -1.582033    0.739994   -0.031197
     18         16           0       -1.196483    1.605051    1.468396
     19          8           0       -2.353769    2.371311    1.878284
     20          8           0       -1.061872    0.454870    2.588666
     21          8           0        0.101484    2.235135    1.310656
     22          6           0       -2.777256    1.079264   -0.688862
     23          1           0       -4.735424    1.648155   -2.288754
     24          1           0       -4.415734    0.486880   -3.461749
     25          1           0       -2.606992   -1.109650   -3.268278
     26          1           0       -0.510306   -1.691147   -2.154381
     27          1           0       -0.430164   -2.385911    1.004567
     28          1           0        1.581640   -3.249573    2.087191
     29          1           0        4.793027   -1.562930    2.061553
     30          1           0        3.884357   -2.810304    2.742816
     31          1           0        3.894090   -0.057578    0.407965
     32          1           0        1.546940    2.686832    0.601974
     33          1           0       -1.788822    0.584349    3.234963
     34          1           0       -3.438646    1.834421   -0.269382
 ---------------------------------------------------------------------
                    Distance matrix (angstroms):
                    1          2          3          4          5
     1  N    0.000000
     2  C    1.398581   0.000000
     3  C    2.421487   1.393455   0.000000
     4  C    3.703622   2.428209   1.398929   0.000000
     5  C    4.239310   2.845481   2.446360   1.406715   0.000000
     6  C    5.708362   4.315315   3.769508   2.468466   1.471530
     7  C    6.445369   5.113738   4.490386   3.211377   2.461787
     8  C    7.838568   6.496674   5.828056   4.497413   3.768071
     9  C    8.548694   7.160895   6.507667   5.128571   4.320944
    10  N    9.932300   8.546823   7.848515   6.458288   5.711366
    11  C    8.015799   6.619198   6.021623   4.677699   3.834775
    12  C    6.652660   5.261717   4.733529   3.455676   2.559051
    13  S    6.610358   5.325400   4.973070   3.988513   3.271478
    14  O    5.355617   4.167376   3.995092   3.343415   2.815742
    15  O    7.433660   6.194163   6.131671   5.225443   4.211219
    16  O    7.658009   6.413012   5.862187   4.852731   4.415944
    17  C    3.708925   2.432958   2.779770   2.403030   1.408402
    18  S    5.139822   4.038214   4.551931   4.061183   2.779602
    19  O    5.074467   4.293222   5.165673   5.020776   3.925775
    20  O    6.054349   4.931926   5.218835   4.523419   3.231988
    21  O    6.053880   4.879049   5.221735   4.535581   3.209865
    22  C    2.421360   1.393743   2.396232   2.778924   2.450813
    23  H    1.016129   2.035687   3.275445   4.453882   4.768138
    24  H    1.016282   2.032373   2.584188   3.969213   4.761789
    25  H    2.662706   2.156509   1.087378   2.147362   3.419739
    26  H    4.563537   3.401394   2.144140   1.089652   2.169498
    27  H    6.104852   4.876506   4.277981   3.185111   2.657024
    28  H    8.484734   7.196586   6.506473   5.233681   4.610086
    29  H   10.478002   9.080973   8.442040   7.059286   6.241349
    30  H   10.384558   9.019810   8.349871   6.980696   6.213593
    31  H    8.789658   7.406739   6.827387   5.520976   4.718368
    32  H    6.956507   5.744550   5.862825   5.044723   3.884825
    33  H    6.267137   5.298035   5.748504   5.220875   4.017208
    34  H    2.641776   2.144289   3.379788   3.866610   3.434490
                    6          7          8          9         10
     6  C    0.000000
     7  C    1.408831   0.000000
     8  C    2.452814   1.399286   0.000000
     9  C    2.852225   2.426267   1.391658   0.000000
    10  N    4.243469   3.700563   2.419226   1.396067   0.000000
    11  C    2.449315   2.769382   2.390222   1.392598   2.420065
    12  C    1.405912   2.399523   2.783130   2.440542   3.713960
    13  S    2.822214   4.090950   4.562163   4.026742   5.111378
    14  O    3.073375   4.480092   5.308578   5.090700   6.310834
    15  O    3.703837   4.831368   5.134088   4.439364   5.378647
    16  O    3.814298   4.913262   5.123121   4.342246   5.153858
    17  C    2.550791   3.439234   4.718043   5.254266   6.642296
    18  S    3.181968   3.886658   4.858961   5.213915   6.494838
    19  O    4.567502   5.186559   6.188346   6.614048   7.865363
    20  O    3.179917   3.263024   4.036478   4.617781   5.791122
    21  O    3.188881   4.117305   4.826733   4.779159   5.973834
    22  C    3.828649   4.662084   6.006197   6.612870   8.006362
    23  H    6.230726   7.045029   8.428952   9.074927  10.469725
    24  H    6.200391   6.959497   8.333963   9.015950  10.379953
    25  H    4.615561   5.233451   6.514789   7.215226   8.503576
    26  H    2.670941   3.199434   4.300986   4.902999   6.130131
    27  H    2.170105   1.089845   2.142171   3.398178   4.558940
    28  H    3.425415   2.148494   1.087296   2.154605   2.661092
    29  H    4.776722   4.458352   3.281478   2.039369   1.015915
    30  H    4.778830   3.981600   2.596099   2.038831   1.015158
    31  H    3.429109   3.858373   3.378370   2.148394   2.648604
    32  H    3.549035   4.652913   5.100863   4.614215   5.659035
    33  H    4.114682   4.085856   4.828934   5.484715   6.591706
    34  H    4.714744   5.509438   6.813535   7.400424   8.779557
                   11         12         13         14         15
    11  C    0.000000
    12  C    1.409469   0.000000
    13  S    2.702850   1.784437   0.000000
    14  O    3.902430   2.654886   1.445849   0.000000
    15  O    3.182049   2.657050   1.617023   2.452544   0.000000
    16  O    2.992712   2.609110   1.447546   2.518607   2.482692
    17  C    4.734664   3.456439   3.828466   3.099062   4.344885
    18  S    4.745043   3.739025   4.110233   3.739072   3.945569
    19  O    6.181483   5.173512   5.369886   4.790869   5.062624
    20  O    4.589674   3.928194   4.883544   4.858450   4.743787
    21  O    4.040762   3.153373   3.166060   3.101312   2.606045
    22  C    6.070485   4.737842   4.846853   3.791996   5.404207
    23  H    8.473959   7.090725   6.894291   5.576795   7.538600
    24  H    8.445604   7.085389   6.956722   5.676405   7.919257
    25  H    6.762532   5.533861   5.739569   4.772792   7.016013
    26  H    4.536282   3.507897   4.174635   3.784866   5.581174
    27  H    3.858561   3.397200   4.986013   5.146311   5.745784
    28  H    3.381881   3.869622   5.648671   6.369518   6.185384
    29  H    2.591729   3.989249   5.116419   6.434278   5.168270
    30  H    3.279084   4.470497   5.976577   7.110137   6.173778
    31  H    1.089545   2.164393   2.784193   4.177999   3.033355
    32  H    3.520508   2.824060   2.141885   2.550844   0.993041
    33  H    5.541792   4.909226   5.812479   5.696252   5.583629
    34  H    6.855270   5.553865   5.553440   4.472934   5.861298
                   16         17         18         19         20
    16  O    0.000000
    17  C    5.171964   0.000000
    18  S    5.548295   1.773627   0.000000
    19  O    6.816927   2.627335   1.447230   0.000000
    20  O    6.218966   2.686177   1.611223   2.417930   0.000000
    21  O    4.563694   2.621115   1.451415   2.523690   2.481138
    22  C    6.128961   1.405769   2.725630   2.904990   3.751613
    23  H    8.002175   3.983114   5.161602   4.853807   6.221587
    24  H    7.861047   4.456749   5.993348   6.026503   6.917871
    25  H    6.451664   3.866577   5.638725   6.218385   6.256110
    26  H    4.751724   3.401023   4.945733   6.013677   5.235085
    27  H    5.870997   3.488680   4.090252   5.205266   3.313376
    28  H    6.165930   5.514802   5.627455   6.864796   4.578486
    29  H    5.027856   7.093973   6.801630   8.160180   6.215240
    30  H    6.126061   7.083868   6.850871   8.155413   5.928769
    31  H    2.658097   5.551298   5.459192   6.862731   5.438715
    32  H    3.318372   3.739192   3.073647   4.116315   3.966673
    33  H    7.170886   3.276399   2.124490   2.313650   0.981285
    34  H    6.890575   2.168297   2.846011   2.465294   3.964928
                   21         22         23         24         25
    21  O    0.000000
    22  C    3.690698   0.000000
    23  H    6.057720   2.591855   0.000000
    24  H    6.799816   3.274818   1.681273   0.000000
    25  H    6.284112   3.387288   3.618726   2.420307   0.000000
    26  H    5.272235   3.868074   5.387079   4.658904   2.444381
    27  H    4.661588   4.514863   6.756842   6.639705   4.962321
    28  H    5.733750   6.741311   9.112735   8.984449   7.127760
    29  H    6.082740   8.476743  10.955712  10.932057   9.130873
    30  H    6.466658   8.442881  10.931385  10.874721   9.009056
    31  H    4.522747   6.855822   9.200561   9.182826   7.542260
    32  H    1.672006   4.790533   6.993086   7.543681   6.829881
    33  H    3.162484   4.076560   6.350244   7.194173   6.769873
    34  H    3.897385   1.087962   2.407113   3.600247   4.283991
                   26         27         28         29         30
    26  H    0.000000
    27  H    3.235441   0.000000
    28  H    4.979544   2.442405   0.000000
    29  H    6.776126   5.392239   3.627454   0.000000
    30  H    6.674437   4.670836   2.434195   1.686932   0.000000
    31  H    5.350969   4.947346   4.284397   2.410089   3.609588
    32  H    5.567446   5.459280   6.119475   5.543278   6.345489
    33  H    5.988115   3.955131   5.232242   7.021997   6.629543
    34  H    4.955606   5.337144   7.523543   9.205199   9.180042
                   31         32         33         34
    31  H    0.000000
    32  H    3.616426   0.000000
    33  H    6.379614   4.741347   0.000000
    34  H    7.603122   5.132439   4.070015   0.000000
 Stoichiometry    C12H12N2O6S2
 Framework group  C1[X(C12H12N2O6S2)]
 Deg. of freedom    96
 Full point group                 C1      NOp   1
 Largest Abelian subgroup         C1      NOp   1
 Largest concise Abelian subgroup C1      NOp   1
                         Standard orientation:                         
 ---------------------------------------------------------------------
 Center     Atomic      Atomic             Coordinates (Angstroms)
 Number     Number       Type             X           Y           Z
 ---------------------------------------------------------------------
      1          7           0        4.940678    0.870548    1.248676
      2          6           0        3.562331    0.684875    1.101318
      3          6           0        2.683160    1.138879    2.082468
      4          6           0        1.315149    0.856809    2.005095
      5          6           0        0.786903    0.072701    0.963472
      6          6           0       -0.660136   -0.194653    0.962982
      7          6           0       -1.132187   -1.213657    1.813631
      8          6           0       -2.491723   -1.535224    1.892744
      9          6           0       -3.426500   -0.875459    1.100523
     10          7           0       -4.791484   -1.113153    1.271768
     11          6           0       -2.989161    0.179522    0.303606
     12          6           0       -1.621612    0.509591    0.217199
     13         16           0       -1.234758    1.848611   -0.897065
     14          8           0        0.186226    2.115017   -0.879497
     15          8           0       -1.557420    1.207048   -2.345875
     16          8           0       -2.194705    2.903203   -0.648617
     17          6           0        1.696261   -0.438397    0.017194
     18         16           0        1.153314   -1.469916   -1.319567
     19          8           0        2.312543   -2.035860   -1.975593
     20          8           0        0.441538   -2.729227   -0.609953
     21          8           0        0.144812   -0.747250   -2.072748
     22          6           0        3.069052   -0.146486    0.097310
     23          1           0        5.460849    0.811830    0.377761
     24          1           0        5.186187    1.703766    1.776221
     25          1           0        3.052063    1.729526    2.917596
     26          1           0        0.657918    1.257108    2.776554
     27          1           0       -0.433535   -1.769844    2.438373
     28          1           0       -2.810845   -2.310374    2.585215
     29          1           0       -5.371465   -0.824059    0.489382
     30          1           0       -5.019316   -2.047860    1.595747
     31          1           0       -3.717172    0.758585   -0.263665
     32          1           0       -0.898483    0.483071   -2.512580
     33          1           0        0.977985   -3.525542   -0.812503
     34          1           0        3.761392   -0.561571   -0.632095
 ---------------------------------------------------------------------
 Rotational constants (GHZ):           0.3597478           0.1975679           0.1895592
 Standard basis: 6-31G(d,p) (6D, 7F)
 There are   398 symmetry adapted cartesian basis functions of A   symmetry.
 There are   398 symmetry adapted basis functions of A   symmetry.
   398 basis functions,   748 primitive gaussians,   398 cartesian basis functions
    89 alpha electrons       89 beta electrons
       nuclear repulsion energy      2335.6521289840 Hartrees.
 NAtoms=   34 NActive=   34 NUniq=   34 SFac= 1.00D+00 NAtFMM=   60 NAOKFM=F Big=F
 Integral buffers will be    131072 words long.
 Raffenetti 2 integral format.
 Two-electron integral symmetry is turned on.
 Force inversion solution in PCM.
 ------------------------------------------------------------------------------
 Polarizable Continuum Model (PCM)
 =================================
 Model                : PCM.
 Atomic radii         : UFF (Universal Force Field).
 Polarization charges : Total charges.
 Charge compensation  : None.
 Solution method      : Matrix inversion.
 Cavity type          : Scaled VdW (van der Waals Surface) (Alpha=1.100).
 Cavity algorithm     : GePol (No added spheres)
                        Default sphere list used, NSphG=   34.
                        Lebedev-Laikov grids with approx.  5.0 points / Ang**2.
                        Smoothing algorithm: York/Karplus (Gamma=1.0000).
                        Polarization charges: spherical gaussians, with
                                              point-specific exponents (IZeta= 3).
                        Self-potential: point-specific (ISelfS= 7).
                        Self-field    : sphere-specific E.n sum rule (ISelfD= 2).
 1st derivatives      : Analytical E(r).r(x)/FMM algorithm (CHGder, D1EAlg=3).
                        Cavity 1st derivative terms included.
 2nd derivatives      : Analytical E(r).r(xy)/FMM algorithm (CHGder, D2EAlg=3).
                        Cavity 2nd derivative terms included.
 Solvent              : Water, Eps=  78.355300 Eps(inf)=   1.777849
 ------------------------------------------------------------------------------
 One-electron integrals computed using PRISM.
 NBasis=   398 RedAO= T EigKep=  4.01D-04  NBF=   398
 NBsUse=   398 1.00D-06 EigRej= -1.00D+00 NBFU=   398
 ExpMin= 1.17D-01 ExpMax= 2.19D+04 ExpMxC= 3.30D+03 IAcc=3 IRadAn=         5 AccDes= 0.00D+00
 Harris functional with IExCor=  402 and IRadAn=       5 diagonalized for initial guess.
 HarFok:  IExCor=  402 AccDes= 0.00D+00 IRadAn=         5 IDoV= 1 UseB2=F ITyADJ=14
 ICtDFT=  3500011 ScaDFX=  1.000000  1.000000  1.000000  1.000000
 FoFCou: FMM=F IPFlag=           0 FMFlag=      100000 FMFlg1=           0
         NFxFlg=           0 DoJE=T BraDBF=F KetDBF=T FulRan=T
         wScrn=  0.000000 ICntrl=       500 IOpCl=  0 I1Cent=   200000004 NGrid=           0
         NMat0=    1 NMatS0=      1 NMatT0=    0 NMatD0=    1 NMtDS0=    0 NMtDT0=    0
 Petite list used in FoFCou.
 Requested convergence on RMS density matrix=1.00D-08 within  32 cycles.
 Requested convergence on MAX density matrix=1.00D-06.
 Requested convergence on             energy=1.00D-06.
 No special actions if energy rises.
 Inv3:  Mode=1 IEnd=    21740592.
 Iteration    1 A*A^-1 deviation from unit magnitude is 3.22D-15 for    126.
 Iteration    1 A*A^-1 deviation from orthogonality  is 1.68D-15 for   1386    721.
 Iteration    1 A^-1*A deviation from unit magnitude is 3.11D-15 for    363.
 Iteration    1 A^-1*A deviation from orthogonality  is 3.97D-15 for   2213   2190.
 Error on total polarization charges =  0.00726
 SCF Done:  E(RB3LYP) =  -1821.64386362     A.U. after   13 cycles
            NFock= 13  Conv=0.75D-08     -V/T= 2.0068
 QCSCF skips out because SCF is already converged.
 DoSCS=F DFT=T ScalE2(SS,OS)=  1.000000  1.000000
 Range of M.O.s used for correlation:     1   398
 NBasis=   398 NAE=    89 NBE=    89 NFC=     0 NFV=     0
 NROrb=    398 NOA=    89 NOB=    89 NVA=   309 NVB=   309
 Symmetrizing basis deriv contribution to polar:
 IMax=3 JMax=2 DiffMx= 0.00D+00
 G2DrvN: will do    35 centers at a time, making    1 passes.
 Calling FoFCou, ICntrl=  3107 FMM=F I1Cent=   0 AccDes= 0.00D+00.
 NEqPCM:  Using equilibrium solvation (IEInf=0, Eps=  78.3553, EpsInf=   1.7778)
 G2PCM: DoFxE=T DoFxN=T DoGrad=T DoDP/DQ/DG/TGxP=FFFF NFrqRd=   0 IEInf=0 SqF1=F DoCFld=F IF1Alg=4.
 End of G2Drv F.D. properties file   721 does not exist.
 End of G2Drv F.D. properties file   722 does not exist.
 End of G2Drv F.D. properties file   788 does not exist.
          IDoAtm=1111111111111111111111111111111111
 NEqPCM:  Using equilibrium solvation (IEInf=0, Eps=  78.3553, EpsInf=   1.7778)
          Differentiating once with respect to nuclear coordinates.
 CalDSu exits because no D1Ps are significant.
          There are   105 degrees of freedom in the 1st order CPHF.  IDoFFX=6 NUNeed=     0.
     99 vectors produced by pass  0 Test12= 2.75D-14 1.00D-09 XBig12= 2.90D-01 1.04D-01.
 AX will form    99 AO Fock derivatives at one time.
     99 vectors produced by pass  1 Test12= 2.75D-14 1.00D-09 XBig12= 1.01D-01 4.59D-02.
     99 vectors produced by pass  2 Test12= 2.75D-14 1.00D-09 XBig12= 1.07D-03 4.08D-03.
     99 vectors produced by pass  3 Test12= 2.75D-14 1.00D-09 XBig12= 3.76D-06 1.93D-04.
     99 vectors produced by pass  4 Test12= 2.75D-14 1.00D-09 XBig12= 6.64D-09 6.48D-06.
     95 vectors produced by pass  5 Test12= 2.75D-14 1.00D-09 XBig12= 7.71D-12 2.41D-07.
     36 vectors produced by pass  6 Test12= 2.75D-14 1.00D-09 XBig12= 6.92D-15 8.50D-09.
 InvSVY:  IOpt=1 It=  1 EMax= 4.44D-16
 Solved reduced A of dimension   626 with   105 vectors.
 End of Minotr F.D. properties file   721 does not exist.
 End of Minotr F.D. properties file   722 does not exist.
 End of Minotr F.D. properties file   788 does not exist.

 **********************************************************************

            Population analysis using the SCF density.

 **********************************************************************

 Orbital symmetries:
       Occupied  (A) (A) (A) (A) (A) (A) (A) (A) (A) (A) (A) (A)
                 (A) (A) (A) (A) (A) (A) (A) (A) (A) (A) (A) (A)
                 (A) (A) (A) (A) (A) (A) (A) (A) (A) (A) (A) (A)
                 (A) (A) (A) (A) (A) (A) (A) (A) (A) (A) (A) (A)
                 (A) (A) (A) (A) (A) (A) (A) (A) (A) (A) (A) (A)
                 (A) (A) (A) (A) (A) (A) (A) (A) (A) (A) (A) (A)
                 (A) (A) (A) (A) (A) (A) (A) (A) (A) (A) (A) (A)
                 (A) (A) (A) (A) (A)
       Virtual   (A) (A) (A) (A) (A) (A) (A) (A) (A) (A) (A) (A)
                 (A) (A) (A) (A) (A) (A) (A) (A) (A) (A) (A) (A)
                 (A) (A) (A) (A) (A) (A) (A) (A) (A) (A) (A) (A)
                 (A) (A) (A) (A) (A) (A) (A) (A) (A) (A) (A) (A)
                 (A) (A) (A) (A) (A) (A) (A) (A) (A) (A) (A) (A)
                 (A) (A) (A) (A) (A) (A) (A) (A) (A) (A) (A) (A)
                 (A) (A) (A) (A) (A) (A) (A) (A) (A) (A) (A) (A)
                 (A) (A) (A) (A) (A) (A) (A) (A) (A) (A) (A) (A)
                 (A) (A) (A) (A) (A) (A) (A) (A) (A) (A) (A) (A)
                 (A) (A) (A) (A) (A) (A) (A) (A) (A) (A) (A) (A)
                 (A) (A) (A) (A) (A) (A) (A) (A) (A) (A) (A) (A)
                 (A) (A) (A) (A) (A) (A) (A) (A) (A) (A) (A) (A)
                 (A) (A) (A) (A) (A) (A) (A) (A) (A) (A) (A) (A)
                 (A) (A) (A) (A) (A) (A) (A) (A) (A) (A) (A) (A)
                 (A) (A) (A) (A) (A) (A) (A) (A) (A) (A) (A) (A)
                 (A) (A) (A) (A) (A) (A) (A) (A) (A) (A) (A) (A)
                 (A) (A) (A) (A) (A) (A) (A) (A) (A) (A) (A) (A)
                 (A) (A) (A) (A) (A) (A) (A) (A) (A) (A) (A) (A)
                 (A) (A) (A) (A) (A) (A) (A) (A) (A) (A) (A) (A)
                 (A) (A) (A) (A) (A) (A) (A) (A) (A) (A) (A) (A)
                 (A) (A) (A) (A) (A) (A) (A) (A) (A) (A) (A) (A)
                 (A) (A) (A) (A) (A) (A) (A) (A) (A) (A) (A) (A)
                 (A) (A) (A) (A) (A) (A) (A) (A) (A) (A) (A) (A)
                 (A) (A) (A) (A) (A) (A) (A) (A) (A) (A) (A) (A)
                 (A) (A) (A) (A) (A) (A) (A) (A) (A) (A) (A) (A)
                 (A) (A) (A) (A) (A) (A) (A) (A) (A)
 The electronic state is 1-A.
 Alpha  occ. eigenvalues --  -89.15786 -89.13687 -19.22137 -19.19553 -19.18436
 Alpha  occ. eigenvalues --  -19.17111 -19.16142 -19.15500 -14.34707 -14.34706
 Alpha  occ. eigenvalues --  -10.24445 -10.24400 -10.24229 -10.23704 -10.22057
 Alpha  occ. eigenvalues --  -10.21879 -10.21192 -10.20813 -10.20796 -10.20762
 Alpha  occ. eigenvalues --  -10.20197 -10.20082  -8.18104  -8.16027  -6.14705
 Alpha  occ. eigenvalues --   -6.14536  -6.14339  -6.12609  -6.12440  -6.12300
 Alpha  occ. eigenvalues --   -1.17685  -1.15408  -1.06411  -1.04408  -1.03666
 Alpha  occ. eigenvalues --   -1.02425  -0.92887  -0.92761  -0.88066  -0.85222
 Alpha  occ. eigenvalues --   -0.78466  -0.77855  -0.77685  -0.72912  -0.70389
 Alpha  occ. eigenvalues --   -0.68009  -0.63609  -0.63319  -0.62427  -0.60418
 Alpha  occ. eigenvalues --   -0.57480  -0.56734  -0.54216  -0.52963  -0.52363
 Alpha  occ. eigenvalues --   -0.51692  -0.50884  -0.50410  -0.49037  -0.48532
 Alpha  occ. eigenvalues --   -0.48098  -0.46276  -0.45054  -0.44933  -0.44853
 Alpha  occ. eigenvalues --   -0.43828  -0.43158  -0.42046  -0.40339  -0.39920
 Alpha  occ. eigenvalues --   -0.39360  -0.38763  -0.38241  -0.37085  -0.36952
 Alpha  occ. eigenvalues --   -0.36536  -0.36072  -0.35501  -0.34092  -0.33474
 Alpha  occ. eigenvalues --   -0.33273  -0.33178  -0.31963  -0.31226  -0.30949
 Alpha  occ. eigenvalues --   -0.27249  -0.26698  -0.22369  -0.21738
 Alpha virt. eigenvalues --   -0.04543  -0.03856  -0.01012  -0.00732   0.02895
 Alpha virt. eigenvalues --    0.06024   0.06457   0.08232   0.08686   0.09115
 Alpha virt. eigenvalues --    0.09387   0.09720   0.10232   0.11410   0.11484
 Alpha virt. eigenvalues --    0.12026   0.12714   0.14662   0.14876   0.15567
 Alpha virt. eigenvalues --    0.16066   0.16974   0.17101   0.19302   0.19703
 Alpha virt. eigenvalues --    0.21643   0.24405   0.26267   0.27077   0.27718
 Alpha virt. eigenvalues --    0.30095   0.30846   0.31055   0.31403   0.32256
 Alpha virt. eigenvalues --    0.32778   0.33958   0.34429   0.35232   0.35643
 Alpha virt. eigenvalues --    0.36388   0.38176   0.39949   0.41441   0.45571
 Alpha virt. eigenvalues --    0.48978   0.49732   0.49939   0.50885   0.52215
 Alpha virt. eigenvalues --    0.53460   0.53728   0.54158   0.54663   0.55510
 Alpha virt. eigenvalues --    0.56716   0.57377   0.57683   0.58347   0.58548
 Alpha virt. eigenvalues --    0.59103   0.59667   0.60535   0.60803   0.61262
 Alpha virt. eigenvalues --    0.62313   0.64220   0.64884   0.67180   0.67382
 Alpha virt. eigenvalues --    0.69051   0.69142   0.70016   0.71773   0.72093
 Alpha virt. eigenvalues --    0.73863   0.74574   0.75347   0.76866   0.77899
 Alpha virt. eigenvalues --    0.78655   0.78826   0.79383   0.80003   0.80946
 Alpha virt. eigenvalues --    0.81295   0.82005   0.83771   0.84017   0.84484
 Alpha virt. eigenvalues --    0.84764   0.85167   0.85422   0.86283   0.87049
 Alpha virt. eigenvalues --    0.87603   0.88768   0.89332   0.89743   0.91538
 Alpha virt. eigenvalues --    0.91937   0.93553   0.94074   0.95212   0.95614
 Alpha virt. eigenvalues --    0.96877   0.97932   0.98634   0.98987   1.00017
 Alpha virt. eigenvalues --    1.00847   1.01222   1.02906   1.03187   1.03862
 Alpha virt. eigenvalues --    1.06213   1.07352   1.08781   1.09600   1.10969
 Alpha virt. eigenvalues --    1.11869   1.12887   1.13738   1.14616   1.15662
 Alpha virt. eigenvalues --    1.17086   1.18181   1.18901   1.19948   1.20436
 Alpha virt. eigenvalues --    1.21206   1.22923   1.24666   1.25598   1.26041
 Alpha virt. eigenvalues --    1.26397   1.28715   1.29567   1.31026   1.32894
 Alpha virt. eigenvalues --    1.35009   1.36279   1.36674   1.38041   1.38512
 Alpha virt. eigenvalues --    1.40129   1.40494   1.41435   1.43206   1.44285
 Alpha virt. eigenvalues --    1.45651   1.49347   1.51229   1.52676   1.53863
 Alpha virt. eigenvalues --    1.55838   1.58389   1.60150   1.61198   1.62467
 Alpha virt. eigenvalues --    1.66850   1.69490   1.70227   1.71843   1.73201
 Alpha virt. eigenvalues --    1.74169   1.74876   1.75553   1.76050   1.76780
 Alpha virt. eigenvalues --    1.77081   1.77779   1.78695   1.79165   1.79664
 Alpha virt. eigenvalues --    1.81002   1.81248   1.81993   1.82880   1.83821
 Alpha virt. eigenvalues --    1.84234   1.86181   1.86884   1.87932   1.88668
 Alpha virt. eigenvalues --    1.89852   1.90572   1.91402   1.92724   1.93522
 Alpha virt. eigenvalues --    1.94428   1.95950   1.96851   1.98126   1.98595
 Alpha virt. eigenvalues --    1.99770   2.01365   2.04123   2.05106   2.06211
 Alpha virt. eigenvalues --    2.06930   2.08036   2.09482   2.11132   2.11677
 Alpha virt. eigenvalues --    2.12266   2.14319   2.15783   2.16633   2.17544
 Alpha virt. eigenvalues --    2.18998   2.20462   2.23019   2.24026   2.25306
 Alpha virt. eigenvalues --    2.26416   2.27742   2.28524   2.30832   2.31412
 Alpha virt. eigenvalues --    2.33637   2.33846   2.34589   2.35283   2.35855
 Alpha virt. eigenvalues --    2.37586   2.41526   2.42308   2.43097   2.44406
 Alpha virt. eigenvalues --    2.45401   2.46937   2.47053   2.48159   2.49063
 Alpha virt. eigenvalues --    2.49422   2.50792   2.52195   2.53205   2.54525
 Alpha virt. eigenvalues --    2.55630   2.55826   2.56980   2.58797   2.60622
 Alpha virt. eigenvalues --    2.62669   2.63053   2.63961   2.64540   2.66189
 Alpha virt. eigenvalues --    2.66566   2.68314   2.70388   2.71727   2.73820
 Alpha virt. eigenvalues --    2.75679   2.75834   2.77204   2.78172   2.79749
 Alpha virt. eigenvalues --    2.81225   2.84707   2.86583   2.89794   2.95250
 Alpha virt. eigenvalues --    2.96296   2.98267   2.99432   3.00175   3.04187
 Alpha virt. eigenvalues --    3.04284   3.18120   3.18677   3.25571   3.25967
 Alpha virt. eigenvalues --    3.26565   3.27043   3.29674   3.31405   3.34210
 Alpha virt. eigenvalues --    3.41956   3.42435   3.47057   3.50364   3.51295
 Alpha virt. eigenvalues --    3.70778   3.73615   3.74971   3.78654   3.86159
 Alpha virt. eigenvalues --    3.99587   4.00426   4.03565   4.04334   4.06778
 Alpha virt. eigenvalues --    4.11934   4.12934   4.15065   4.16766   4.19593
 Alpha virt. eigenvalues --    4.22902   4.29663   4.37079   4.40985   4.43524
 Alpha virt. eigenvalues --    4.51147   4.54237   4.78397   4.84604
          Condensed to atoms (all electrons):
               1          2          3          4          5          6
     1  N    6.809930   0.309624  -0.070744   0.004201   0.000591  -0.000000
     2  C    0.309624   4.591348   0.526680  -0.018247  -0.023699   0.000272
     3  C   -0.070744   0.526680   4.946369   0.494747  -0.028703   0.007051
     4  C    0.004201  -0.018247   0.494747   4.891110   0.511595  -0.052254
     5  C    0.000591  -0.023699  -0.028703   0.511595   4.944831   0.323851
     6  C   -0.000000   0.000272   0.007051  -0.052254   0.323851   5.014704
     7  C    0.000000   0.000031   0.000189  -0.005578  -0.054693   0.502335
     8  C    0.000000  -0.000000   0.000006   0.000235   0.006881  -0.033451
     9  C   -0.000000  -0.000000  -0.000000   0.000025   0.000150  -0.024324
    10  N   -0.000000  -0.000000   0.000000   0.000000  -0.000001   0.000507
    11  C    0.000000   0.000000   0.000001  -0.000019   0.007983  -0.032493
    12  C   -0.000000   0.000039  -0.000100  -0.001135  -0.045542   0.443316
    13  S    0.000000  -0.000060  -0.000016   0.001515  -0.016096  -0.019749
    14  O   -0.000000   0.000393  -0.000665   0.001935  -0.004227  -0.006336
    15  O   -0.000000   0.000000  -0.000000   0.000003  -0.000127  -0.001064
    16  O   -0.000000   0.000000   0.000000  -0.000015  -0.000221   0.000447
    17  C    0.005147  -0.024467  -0.046079  -0.028551   0.408997  -0.054994
    18  S   -0.000060   0.003123  -0.001167   0.004473  -0.020563  -0.005728
    19  O   -0.000000   0.000945  -0.000009  -0.000029   0.001673  -0.000064
    20  O    0.000000  -0.000058  -0.000003   0.000102  -0.001516  -0.001525
    21  O    0.000000  -0.000079   0.000000   0.000067  -0.003573   0.001285
    22  C   -0.069229   0.477463  -0.043621  -0.051611  -0.023701   0.007179
    23  H    0.343120  -0.023627   0.005521  -0.000187   0.000004  -0.000000
    24  H    0.344476  -0.024850  -0.009106   0.000019   0.000000  -0.000000
    25  H   -0.006785  -0.040948   0.365183  -0.030254   0.004017  -0.000200
    26  H   -0.000116   0.003608  -0.033799   0.369956  -0.043122  -0.005069
    27  H   -0.000000  -0.000008  -0.000126   0.001841  -0.004618  -0.043465
    28  H   -0.000000   0.000000  -0.000000  -0.000007  -0.000190   0.004077
    29  H    0.000000   0.000000  -0.000000   0.000000  -0.000000   0.000001
    30  H    0.000000   0.000000  -0.000000   0.000000  -0.000000   0.000004
    31  H   -0.000000  -0.000000  -0.000000  -0.000002  -0.000145   0.003212
    32  H   -0.000000   0.000001  -0.000000   0.000003   0.000011  -0.000195
    33  H   -0.000000  -0.000001   0.000001   0.000004  -0.000163   0.000177
    34  H   -0.007155  -0.032850   0.005135   0.000445   0.003512  -0.000138
               7          8          9         10         11         12
     1  N    0.000000   0.000000  -0.000000  -0.000000   0.000000  -0.000000
     2  C    0.000031  -0.000000  -0.000000  -0.000000   0.000000   0.000039
     3  C    0.000189   0.000006  -0.000000   0.000000   0.000001  -0.000100
     4  C   -0.005578   0.000235   0.000025   0.000000  -0.000019  -0.001135
     5  C   -0.054693   0.006881   0.000150  -0.000001   0.007983  -0.045542
     6  C    0.502335  -0.033451  -0.024324   0.000507  -0.032493   0.443316
     7  C    4.891663   0.500761  -0.018535   0.004395  -0.051418  -0.036306
     8  C    0.500761   4.947936   0.523866  -0.071368  -0.042194  -0.045041
     9  C   -0.018535   0.523866   4.577782   0.310099   0.485817  -0.018724
    10  N    0.004395  -0.071368   0.310099   6.810569  -0.070315   0.005370
    11  C   -0.051418  -0.042194   0.485817  -0.070315   5.070292   0.412661
    12  C   -0.036306  -0.045041  -0.018724   0.005370   0.412661   5.525550
    13  S    0.005080  -0.000894   0.002029  -0.000066  -0.020626   0.165151
    14  O    0.000235   0.000002  -0.000047   0.000000   0.001904  -0.043610
    15  O   -0.000037   0.000002  -0.000119  -0.000000  -0.000618  -0.049036
    16  O   -0.000017  -0.000014   0.000696   0.000000   0.000969  -0.066073
    17  C   -0.000977  -0.000040   0.000027  -0.000000  -0.000015  -0.003493
    18  S    0.001926  -0.000176  -0.000062   0.000001  -0.000412   0.005304
    19  O    0.000003  -0.000000   0.000000  -0.000000  -0.000000   0.000001
    20  O    0.000982  -0.000144  -0.000011  -0.000000   0.000033  -0.000090
    21  O   -0.000062   0.000013  -0.000012  -0.000000  -0.000392  -0.003456
    22  C   -0.000035   0.000002   0.000000   0.000000   0.000000  -0.000084
    23  H    0.000000  -0.000000   0.000000   0.000000  -0.000000  -0.000000
    24  H    0.000000  -0.000000   0.000000   0.000000  -0.000000  -0.000000
    25  H   -0.000007  -0.000000   0.000000  -0.000000  -0.000000  -0.000001
    26  H    0.001783  -0.000116  -0.000009  -0.000000  -0.000058   0.001045
    27  H    0.369426  -0.033297   0.003586  -0.000116   0.000645   0.006134
    28  H   -0.030361   0.365219  -0.041344  -0.006951   0.005456   0.000620
    29  H   -0.000178   0.005516  -0.023494   0.344366  -0.009510  -0.000022
    30  H    0.000009  -0.008909  -0.024125   0.345046   0.005442  -0.000193
    31  H    0.000519   0.005113  -0.031988  -0.007255   0.365245  -0.041981
    32  H   -0.000009   0.000004   0.000020  -0.000000   0.000106   0.001948
    33  H    0.000145   0.000005  -0.000000   0.000000  -0.000003   0.000002
    34  H   -0.000002  -0.000000  -0.000000  -0.000000  -0.000000  -0.000001
              13         14         15         16         17         18
     1  N    0.000000  -0.000000  -0.000000  -0.000000   0.005147  -0.000060
     2  C   -0.000060   0.000393   0.000000   0.000000  -0.024467   0.003123
     3  C   -0.000016  -0.000665  -0.000000   0.000000  -0.046079  -0.001167
     4  C    0.001515   0.001935   0.000003  -0.000015  -0.028551   0.004473
     5  C   -0.016096  -0.004227  -0.000127  -0.000221   0.408997  -0.020563
     6  C   -0.019749  -0.006336  -0.001064   0.000447  -0.054994  -0.005728
     7  C    0.005080   0.000235  -0.000037  -0.000017  -0.000977   0.001926
     8  C   -0.000894   0.000002   0.000002  -0.000014  -0.000040  -0.000176
     9  C    0.002029  -0.000047  -0.000119   0.000696   0.000027  -0.000062
    10  N   -0.000066   0.000000  -0.000000   0.000000  -0.000000   0.000001
    11  C   -0.020626   0.001904  -0.000618   0.000969  -0.000015  -0.000412
    12  C    0.165151  -0.043610  -0.049036  -0.066073  -0.003493   0.005304
    13  S   13.571159   0.429017   0.176923   0.468278   0.001093  -0.000888
    14  O    0.429017   8.258202  -0.052073  -0.041989   0.002040   0.000875
    15  O    0.176923  -0.052073   8.313122  -0.041288  -0.000214   0.000371
    16  O    0.468278  -0.041989  -0.041288   8.210580  -0.000002   0.000000
    17  C    0.001093   0.002040  -0.000214  -0.000002   5.465658   0.189082
    18  S   -0.000888   0.000875   0.000371   0.000000   0.189082  13.590853
    19  O   -0.000033  -0.000001  -0.000001  -0.000000  -0.055484   0.463573
    20  O   -0.000099  -0.000000  -0.000005  -0.000000  -0.042792   0.177593
    21  O    0.005814  -0.001037  -0.020184  -0.000011  -0.054393   0.396970
    22  C   -0.000252  -0.000918   0.000002  -0.000000   0.470817  -0.035434
    23  H    0.000000  -0.000000  -0.000000  -0.000000  -0.000054  -0.000015
    24  H    0.000000  -0.000000  -0.000000  -0.000000  -0.000198   0.000001
    25  H   -0.000002  -0.000005  -0.000000   0.000000   0.000722   0.000011
    26  H    0.000196   0.000043  -0.000000  -0.000007   0.006166  -0.000012
    27  H    0.000005   0.000003   0.000000   0.000000   0.001079   0.000196
    28  H    0.000006  -0.000000   0.000000  -0.000000  -0.000001  -0.000002
    29  H   -0.000017  -0.000000  -0.000001  -0.000000  -0.000000   0.000000
    30  H   -0.000000  -0.000000  -0.000000  -0.000000  -0.000000   0.000000
    31  H    0.001331   0.000076   0.000536   0.004912   0.000000  -0.000003
    32  H   -0.010253   0.001274   0.277154   0.001110   0.000873  -0.002514
    33  H    0.000005  -0.000000   0.000000   0.000000   0.001829  -0.004922
    34  H   -0.000000  -0.000015   0.000000  -0.000000  -0.036180  -0.006265
              19         20         21         22         23         24
     1  N   -0.000000   0.000000   0.000000  -0.069229   0.343120   0.344476
     2  C    0.000945  -0.000058  -0.000079   0.477463  -0.023627  -0.024850
     3  C   -0.000009  -0.000003   0.000000  -0.043621   0.005521  -0.009106
     4  C   -0.000029   0.000102   0.000067  -0.051611  -0.000187   0.000019
     5  C    0.001673  -0.001516  -0.003573  -0.023701   0.000004   0.000000
     6  C   -0.000064  -0.001525   0.001285   0.007179  -0.000000  -0.000000
     7  C    0.000003   0.000982  -0.000062  -0.000035   0.000000   0.000000
     8  C   -0.000000  -0.000144   0.000013   0.000002  -0.000000  -0.000000
     9  C    0.000000  -0.000011  -0.000012   0.000000   0.000000   0.000000
    10  N   -0.000000  -0.000000  -0.000000   0.000000   0.000000   0.000000
    11  C   -0.000000   0.000033  -0.000392   0.000000  -0.000000  -0.000000
    12  C    0.000001  -0.000090  -0.003456  -0.000084  -0.000000  -0.000000
    13  S   -0.000033  -0.000099   0.005814  -0.000252   0.000000   0.000000
    14  O   -0.000001  -0.000000  -0.001037  -0.000918  -0.000000  -0.000000
    15  O   -0.000001  -0.000005  -0.020184   0.000002  -0.000000  -0.000000
    16  O   -0.000000  -0.000000  -0.000011  -0.000000  -0.000000  -0.000000
    17  C   -0.055484  -0.042792  -0.054393   0.470817  -0.000054  -0.000198
    18  S    0.463573   0.177593   0.396970  -0.035434  -0.000015   0.000001
    19  O    8.203712  -0.055399  -0.040417   0.000486  -0.000003  -0.000000
    20  O   -0.055399   8.222032  -0.043127  -0.000908   0.000000  -0.000000
    21  O   -0.040417  -0.043127   8.263486  -0.001208  -0.000000  -0.000000
    22  C    0.000486  -0.000908  -0.001208   5.035952  -0.009323   0.005434
    23  H   -0.000003   0.000000  -0.000000  -0.009323   0.422103  -0.027315
    24  H   -0.000000  -0.000000  -0.000000   0.005434  -0.027315   0.420940
    25  H   -0.000000  -0.000000  -0.000000   0.005169  -0.000032   0.004205
    26  H    0.000000   0.000002   0.000001   0.000630   0.000003  -0.000005
    27  H   -0.000000   0.000220  -0.000002  -0.000077   0.000000  -0.000000
    28  H   -0.000000  -0.000000   0.000000  -0.000000   0.000000   0.000000
    29  H   -0.000000  -0.000000  -0.000000  -0.000000   0.000000   0.000000
    30  H   -0.000000  -0.000000  -0.000000   0.000000   0.000000   0.000000
    31  H   -0.000000   0.000000  -0.000007  -0.000000  -0.000000  -0.000000
    32  H   -0.000009   0.000115   0.048560  -0.000007   0.000000   0.000000
    33  H    0.005617   0.292647   0.000913   0.000060   0.000000   0.000000
    34  H    0.008633   0.000064  -0.000020   0.365435   0.004196  -0.000039
              25         26         27         28         29         30
     1  N   -0.006785  -0.000116  -0.000000  -0.000000   0.000000   0.000000
     2  C   -0.040948   0.003608  -0.000008   0.000000   0.000000   0.000000
     3  C    0.365183  -0.033799  -0.000126  -0.000000  -0.000000  -0.000000
     4  C   -0.030254   0.369956   0.001841  -0.000007   0.000000   0.000000
     5  C    0.004017  -0.043122  -0.004618  -0.000190  -0.000000  -0.000000
     6  C   -0.000200  -0.005069  -0.043465   0.004077   0.000001   0.000004
     7  C   -0.000007   0.001783   0.369426  -0.030361  -0.000178   0.000009
     8  C   -0.000000  -0.000116  -0.033297   0.365219   0.005516  -0.008909
     9  C    0.000000  -0.000009   0.003586  -0.041344  -0.023494  -0.024125
    10  N   -0.000000  -0.000000  -0.000116  -0.006951   0.344366   0.345046
    11  C   -0.000000  -0.000058   0.000645   0.005456  -0.009510   0.005442
    12  C   -0.000001   0.001045   0.006134   0.000620  -0.000022  -0.000193
    13  S   -0.000002   0.000196   0.000005   0.000006  -0.000017  -0.000000
    14  O   -0.000005   0.000043   0.000003  -0.000000  -0.000000  -0.000000
    15  O   -0.000000  -0.000000   0.000000   0.000000  -0.000001  -0.000000
    16  O    0.000000  -0.000007   0.000000  -0.000000  -0.000000  -0.000000
    17  C    0.000722   0.006166   0.001079  -0.000001  -0.000000  -0.000000
    18  S    0.000011  -0.000012   0.000196  -0.000002   0.000000   0.000000
    19  O   -0.000000   0.000000  -0.000000  -0.000000  -0.000000  -0.000000
    20  O   -0.000000   0.000002   0.000220  -0.000000  -0.000000  -0.000000
    21  O   -0.000000   0.000001  -0.000002   0.000000  -0.000000  -0.000000
    22  C    0.005169   0.000630  -0.000077  -0.000000  -0.000000   0.000000
    23  H   -0.000032   0.000003   0.000000   0.000000   0.000000   0.000000
    24  H    0.004205  -0.000005  -0.000000   0.000000   0.000000   0.000000
    25  H    0.586223  -0.005761   0.000001   0.000000   0.000000   0.000000
    26  H   -0.005761   0.583195   0.000350   0.000002   0.000000  -0.000000
    27  H    0.000001   0.000350   0.584840  -0.005886   0.000003  -0.000005
    28  H    0.000000   0.000002  -0.005886   0.587875  -0.000043   0.004174
    29  H    0.000000   0.000000   0.000003  -0.000043   0.420282  -0.027359
    30  H    0.000000  -0.000000  -0.000005   0.004174  -0.027359   0.419064
    31  H    0.000000   0.000000   0.000014  -0.000171   0.004324  -0.000038
    32  H    0.000000  -0.000000  -0.000000   0.000000  -0.000000  -0.000000
    33  H    0.000000  -0.000000   0.000015  -0.000000   0.000000   0.000000
    34  H   -0.000167   0.000013   0.000000   0.000000  -0.000000  -0.000000
              31         32         33         34
     1  N   -0.000000  -0.000000  -0.000000  -0.007155
     2  C   -0.000000   0.000001  -0.000001  -0.032850
     3  C   -0.000000  -0.000000   0.000001   0.005135
     4  C   -0.000002   0.000003   0.000004   0.000445
     5  C   -0.000145   0.000011  -0.000163   0.003512
     6  C    0.003212  -0.000195   0.000177  -0.000138
     7  C    0.000519  -0.000009   0.000145  -0.000002
     8  C    0.005113   0.000004   0.000005  -0.000000
     9  C   -0.031988   0.000020  -0.000000  -0.000000
    10  N   -0.007255  -0.000000   0.000000  -0.000000
    11  C    0.365245   0.000106  -0.000003  -0.000000
    12  C   -0.041981   0.001948   0.000002  -0.000001
    13  S    0.001331  -0.010253   0.000005  -0.000000
    14  O    0.000076   0.001274  -0.000000  -0.000015
    15  O    0.000536   0.277154   0.000000   0.000000
    16  O    0.004912   0.001110   0.000000  -0.000000
    17  C    0.000000   0.000873   0.001829  -0.036180
    18  S   -0.000003  -0.002514  -0.004922  -0.006265
    19  O   -0.000000  -0.000009   0.005617   0.008633
    20  O    0.000000   0.000115   0.292647   0.000064
    21  O   -0.000007   0.048560   0.000913  -0.000020
    22  C   -0.000000  -0.000007   0.000060   0.365435
    23  H   -0.000000   0.000000   0.000000   0.004196
    24  H   -0.000000   0.000000   0.000000  -0.000039
    25  H    0.000000   0.000000   0.000000  -0.000167
    26  H    0.000000  -0.000000  -0.000000   0.000013
    27  H    0.000014  -0.000000   0.000015   0.000000
    28  H   -0.000171   0.000000  -0.000000   0.000000
    29  H    0.004324  -0.000000   0.000000  -0.000000
    30  H   -0.000038  -0.000000   0.000000  -0.000000
    31  H    0.565956   0.000006   0.000000   0.000000
    32  H    0.000006   0.292112  -0.000006  -0.000002
    33  H    0.000000  -0.000006   0.316389  -0.000007
    34  H    0.000000  -0.000002  -0.000007   0.558745
 Mulliken charges:
               1
     1  N   -0.662999
     2  C    0.275367
     3  C   -0.116743
     4  C   -0.094388
     5  C    0.056803
     6  C   -0.027371
     7  C   -0.081267
     8  C   -0.119916
     9  C    0.278697
    10  N   -0.664282
    11  C   -0.128480
    12  C   -0.212254
    13  S    1.241448
    14  O   -0.545077
    15  O   -0.603345
    16  O   -0.537355
    17  C   -0.205597
    18  S    1.243870
    19  O   -0.533194
    20  O   -0.548112
    21  O   -0.549129
    22  C   -0.132223
    23  H    0.285609
    24  H    0.286438
    25  H    0.118632
    26  H    0.121081
    27  H    0.119241
    28  H    0.117527
    29  H    0.286132
    30  H    0.286890
    31  H    0.130344
    32  H    0.389698
    33  H    0.387294
    34  H    0.136661
 Sum of Mulliken charges =  -0.00000
 Mulliken charges with hydrogens summed into heavy atoms:
               1
     1  N   -0.090953
     2  C    0.275367
     3  C    0.001889
     4  C    0.026693
     5  C    0.056803
     6  C   -0.027371
     7  C    0.037974
     8  C   -0.002389
     9  C    0.278697
    10  N   -0.091260
    11  C    0.001864
    12  C   -0.212254
    13  S    1.241448
    14  O   -0.545077
    15  O   -0.213647
    16  O   -0.537355
    17  C   -0.205597
    18  S    1.243870
    19  O   -0.533194
    20  O   -0.160818
    21  O   -0.549129
    22  C    0.004438
 APT charges:
               1
     1  N   -1.328441
     2  C    0.202258
     3  C   -0.385414
     4  C   -0.549540
     5  C   -0.473611
     6  C   -0.525181
     7  C   -0.570216
     8  C   -0.385316
     9  C    0.176849
    10  N   -1.324654
    11  C   -0.465976
    12  C   -0.401450
    13  S    0.212191
    14  O   -0.499192
    15  O   -0.233758
    16  O    0.217694
    17  C   -0.442572
    18  S    0.155034
    19  O    0.220818
    20  O   -1.028409
    21  O   -0.516151
    22  C   -0.440686
    23  H    0.721927
    24  H    0.933104
    25  H    0.787117
    26  H    0.476838
    27  H    0.473589
    28  H    0.771317
    29  H    0.730825
    30  H    0.930545
    31  H    0.613394
    32  H    0.209069
    33  H    1.108282
    34  H    0.629715
 Sum of APT charges =  -0.00000
 APT charges with hydrogens summed into heavy atoms:
               1
     1  N    0.326589
     2  C    0.202258
     3  C    0.401703
     4  C   -0.072702
     5  C   -0.473611
     6  C   -0.525181
     7  C   -0.096627
     8  C    0.386000
     9  C    0.176849
    10  N    0.336717
    11  C    0.147418
    12  C   -0.401450
    13  S    0.212191
    14  O   -0.499192
    15  O   -0.024689
    16  O    0.217694
    17  C   -0.442572
    18  S    0.155034
    19  O    0.220818
    20  O    0.079873
    21  O   -0.516151
    22  C    0.189029
 Electronic spatial extent (au):  <R**2>=           6618.4471
 Charge=             -0.0000 electrons
 Dipole moment (field-independent basis, Debye):
    X=              1.9944    Y=             -6.9319    Z=              5.4267  Tot=              9.0266
 Quadrupole moment (field-independent basis, Debye-Ang):
   XX=           -101.3897   YY=           -136.7736   ZZ=           -140.2575
   XY=             27.5848   XZ=              2.0049   YZ=              4.1163
 Traceless Quadrupole moment (field-independent basis, Debye-Ang):
   XX=             24.7506   YY=            -10.6333   ZZ=            -14.1172
   XY=             27.5848   XZ=              2.0049   YZ=              4.1163
 Octapole moment (field-independent basis, Debye-Ang**2):
  XXX=              5.0231  YYY=           -106.8601  ZZZ=              0.0765  XYY=             27.1820
  XXY=             -8.8133  XXZ=             10.5415  XZZ=              5.4507  YZZ=              3.0861
  YYZ=             22.9682  XYZ=             25.2110
 Hexadecapole moment (field-independent basis, Debye-Ang**3):
 XXXX=          -3554.5581 YYYY=          -1718.9674 ZZZZ=          -1680.6447 XXXY=            604.3552
 XXXZ=             31.4284 YYYX=             85.8027 YYYZ=             59.2699 ZZZX=             44.6615
 ZZZY=              8.5585 XXYY=           -988.3670 XXZZ=          -1142.2859 YYZZ=           -553.2536
 XXYZ=             13.5342 YYXZ=            -21.3907 ZZXY=            114.1040
 N-N= 2.335652128984D+03 E-N=-8.956417659141D+03  KE= 1.809398684784D+03
  Exact polarizability:   0.000   0.000   0.000   0.000   0.000   0.000
 Approx polarizability: 410.952  21.018 249.364  -0.388  -1.879 260.127
 D2PCM: PCM CHGder 2nd derivatives, FixD1E=F FixD2E=F DoIter=F DoCFld=F I1PDM=0
 Calling FoFJK, ICntrl=    100147 FMM=F ISym2X=0 I1Cent= 0 IOpClX= 0 NMat=1 NMatS=1 NMatT=0.
 ***** Axes restored to original set *****
 -------------------------------------------------------------------
 Center     Atomic                   Forces (Hartrees/Bohr)
 Number     Number              X              Y              Z
 -------------------------------------------------------------------
      1        7           0.005387933    0.004902938   -0.002045927
      2        6          -0.017766896   -0.007376885    0.000624039
      3        6           0.016170161   -0.007896494   -0.002645590
      4        6          -0.010130197    0.004222880   -0.001608829
      5        6          -0.006931465    0.001808843   -0.010612028
      6        6           0.005850160   -0.004153709    0.008526251
      7        6           0.011353050   -0.004394769    0.004458863
      8        6          -0.021889413   -0.001565765   -0.000371969
      9        6           0.016759952   -0.011529487   -0.005845427
     10        7          -0.002440832    0.005399044    0.003139146
     11        6          -0.004011590    0.015562184   -0.007750794
     12        6           0.008914109   -0.011347679    0.011551564
     13       16          -0.008941708   -0.004977512    0.021187620
     14        8          -0.014862326    0.004039265   -0.017495970
     15        8           0.010216256    0.002758793    0.000905161
     16        8           0.015900024    0.005436985   -0.007843700
     17        6          -0.007591795   -0.009726184   -0.012675602
     18       16          -0.017910470   -0.013060890   -0.008073835
     19        8          -0.012578474    0.020154335    0.002721206
     20        8           0.006112880   -0.008053965    0.007919170
     21        8           0.011442548    0.009296396    0.009208021
     22        6           0.007999086    0.010211888    0.013491718
     23        1          -0.000135480   -0.002894943   -0.002114330
     24        1          -0.001227057    0.002014020    0.002878946
     25        1          -0.000396585    0.001450190    0.000253153
     26        1          -0.000187916    0.002737352    0.003479237
     27        1           0.001782410    0.003793447   -0.001895155
     28        1           0.000626241    0.001160230    0.000521144
     29        1          -0.001919150   -0.003246645    0.001201967
     30        1           0.001839205    0.002255455   -0.001582622
     31        1          -0.002785803   -0.001057841    0.000503764
     32        1           0.004678490   -0.003672096   -0.005803735
     33        1           0.003891132   -0.000716967   -0.005138836
     34        1           0.002783522   -0.001532412    0.000933380
 -------------------------------------------------------------------
 Cartesian Forces:  Max     0.021889413 RMS     0.008292763
 FormGI is forming the generalized inverse of G from B-inverse, IUseBI=4.

 GradGradGradGradGradGradGradGradGradGradGradGradGradGradGradGradGradGrad
 Berny optimization.
 Internal  Forces:  Max     0.021921789 RMS     0.006432153
 Search for a local minimum.
 Step number   1 out of a maximum of  179
 All quantities printed in internal units (Hartrees-Bohrs-Radians)
 Mixed Optimization -- RFO/linear search
 Second derivative matrix not updated -- analytic derivatives used.
 ITU=  0
     Eigenvalues ---   -0.00350  -0.00000   0.00277   0.00532   0.00579
     Eigenvalues ---    0.00625   0.00785   0.01314   0.01485   0.01589
     Eigenvalues ---    0.01657   0.01754   0.01769   0.01888   0.01930
     Eigenvalues ---    0.01973   0.02047   0.02099   0.02264   0.02322
     Eigenvalues ---    0.02473   0.02554   0.02599   0.02858   0.02883
     Eigenvalues ---    0.03119   0.09175   0.11039   0.11426   0.11458
     Eigenvalues ---    0.11818   0.11979   0.12014   0.12450   0.12525
     Eigenvalues ---    0.12988   0.13341   0.13639   0.13885   0.15096
     Eigenvalues ---    0.15367   0.15669   0.16474   0.16679   0.16851
     Eigenvalues ---    0.17172   0.17903   0.18225   0.18614   0.18769
     Eigenvalues ---    0.19009   0.19396   0.19850   0.20162   0.20675
     Eigenvalues ---    0.21486   0.21649   0.22344   0.24034   0.27115
     Eigenvalues ---    0.28071   0.29450   0.30146   0.31181   0.32771
     Eigenvalues ---    0.33844   0.34982   0.35359   0.35475   0.35481
     Eigenvalues ---    0.35835   0.35881   0.36286   0.38660   0.39137
     Eigenvalues ---    0.40250   0.41552   0.42591   0.42674   0.45306
     Eigenvalues ---    0.45462   0.45675   0.45845   0.45970   0.46424
     Eigenvalues ---    0.46868   0.47241   0.48096   0.50573   0.51307
     Eigenvalues ---    0.51694   0.65314   0.66799   0.67513   0.68372
     Eigenvalues ---    1.35592
 RFO step:  Lambda=-1.68367353D-02 EMin=-3.49871789D-03
 Linear search not attempted -- first point.
 Iteration  1 RMS(Cart)=  0.15850385 RMS(Int)=  0.02231733
 Iteration  2 RMS(Cart)=  0.04697738 RMS(Int)=  0.00203191
 Iteration  3 RMS(Cart)=  0.00239408 RMS(Int)=  0.00042579
 Iteration  4 RMS(Cart)=  0.00000685 RMS(Int)=  0.00042577
 Iteration  5 RMS(Cart)=  0.00000001 RMS(Int)=  0.00042577
 Variable       Old X    -DE/DX   Delta X   Delta X   Delta X     New X
                                 (Linear)    (Quad)   (Total)
    R1        2.64294  -0.00233   0.00000  -0.02116  -0.02116   2.62177
    R2        1.92021  -0.00299   0.00000  -0.00780  -0.00780   1.91240
    R3        1.92050  -0.00321   0.00000  -0.00796  -0.00796   1.91254
    R4        2.63325   0.00786   0.00000   0.02216   0.02210   2.65535
    R5        2.63379   0.00695   0.00000   0.02205   0.02205   2.65584
    R6        2.64359  -0.00740   0.00000  -0.01608  -0.01615   2.62745
    R7        2.05485  -0.00083   0.00000  -0.00238  -0.00238   2.05247
    R8        2.65831  -0.00256   0.00000  -0.00968  -0.00968   2.64863
    R9        2.05914  -0.00346   0.00000  -0.00800  -0.00800   2.05114
   R10        2.78079   0.02110   0.00000   0.03984   0.03984   2.82063
   R11        2.66149   0.00903   0.00000  -0.00304  -0.00297   2.65852
   R12        2.66230  -0.00096   0.00000  -0.00932  -0.00937   2.65294
   R13        2.65679   0.00987   0.00000   0.00632   0.00630   2.66308
   R14        2.64427  -0.00966   0.00000  -0.01852  -0.01854   2.62573
   R15        2.05951  -0.00365   0.00000  -0.00880  -0.00880   2.05071
   R16        2.62985   0.01136   0.00000   0.02623   0.02625   2.65610
   R17        2.05469  -0.00074   0.00000  -0.00221  -0.00221   2.05248
   R18        2.63818  -0.00283   0.00000  -0.01930  -0.01930   2.61888
   R19        2.63163   0.00699   0.00000   0.02262   0.02267   2.65430
   R20        1.91980  -0.00339   0.00000  -0.00783  -0.00783   1.91197
   R21        1.91837  -0.00284   0.00000  -0.00649  -0.00649   1.91188
   R22        2.66351  -0.00876   0.00000  -0.02888  -0.02886   2.63465
   R23        2.05894  -0.00300   0.00000  -0.00875  -0.00875   2.05019
   R24        3.37210   0.00894   0.00000   0.02872   0.02872   3.40081
   R25        2.73226   0.02145   0.00000   0.02990   0.02990   2.76216
   R26        3.05573  -0.00102   0.00000   0.01099   0.01099   3.06672
   R27        2.73547   0.01660   0.00000   0.02566   0.02566   2.76113
   R28        1.87658  -0.00755   0.00000  -0.01524  -0.01524   1.86134
   R29        3.35167   0.00737   0.00000   0.02569   0.02569   3.37736
   R30        2.65652  -0.00912   0.00000  -0.02459  -0.02453   2.63199
   R31        2.73487   0.02150   0.00000   0.02642   0.02642   2.76129
   R32        3.04477   0.00902   0.00000   0.03673   0.03673   3.08150
   R33        2.74278   0.01327   0.00000   0.03216   0.03216   2.77494
   R34        1.85436  -0.00636   0.00000  -0.01267  -0.01267   1.84169
   R35        2.05595  -0.00240   0.00000  -0.00804  -0.00804   2.04791
    A1        1.98945   0.00207   0.00000   0.02246   0.02200   2.01145
    A2        1.98408   0.00174   0.00000   0.02303   0.02257   2.00665
    A3        1.94832  -0.00231   0.00000  -0.00259  -0.00326   1.94506
    A4        2.09944   0.00349   0.00000   0.01668   0.01585   2.11529
    A5        2.09890   0.00108   0.00000   0.00715   0.00634   2.10524
    A6        2.06947  -0.00418   0.00000  -0.01200  -0.01267   2.05681
    A7        2.10871  -0.00060   0.00000   0.00054   0.00065   2.10936
    A8        2.09867  -0.00084   0.00000  -0.01121  -0.01128   2.08739
    A9        2.07575   0.00144   0.00000   0.01060   0.01053   2.08627
   A10        2.11831   0.00697   0.00000   0.01686   0.01695   2.13526
   A11        2.06757  -0.00063   0.00000   0.01063   0.01047   2.07804
   A12        2.09730  -0.00633   0.00000  -0.02742  -0.02759   2.06971
   A13        2.06098  -0.00853   0.00000   0.01356   0.01292   2.07390
   A14        2.04578  -0.00684   0.00000  -0.02354  -0.02372   2.02206
   A15        2.17580   0.01530   0.00000   0.01190   0.01125   2.18705
   A16        2.04958  -0.00628   0.00000   0.02900   0.02899   2.07857
   A17        2.19157   0.01074   0.00000  -0.01554  -0.01554   2.17603
   A18        2.04144  -0.00456   0.00000  -0.01397  -0.01406   2.02738
   A19        2.12457   0.00575   0.00000   0.01296   0.01290   2.13747
   A20        2.09491  -0.00574   0.00000  -0.02669  -0.02667   2.06824
   A21        2.06367  -0.00000   0.00000   0.01378   0.01380   2.07746
   A22        2.10771  -0.00077   0.00000  -0.00118  -0.00116   2.10655
   A23        2.07716   0.00121   0.00000   0.01056   0.01056   2.08772
   A24        2.09831  -0.00044   0.00000  -0.00939  -0.00940   2.08892
   A25        2.10157   0.00260   0.00000   0.01478   0.01381   2.11537
   A26        2.06459  -0.00344   0.00000  -0.00746  -0.00837   2.05622
   A27        2.10160   0.00127   0.00000   0.00599   0.00499   2.10659
   A28        1.99903   0.00179   0.00000   0.01786   0.01767   2.01671
[...]
   140    N   10  px     Val( 2p)     1.33043
   141    N   10  px     Ryd( 3p)     0.00209
   142    N   10  py     Val( 2p)     1.47499
   143    N   10  py     Ryd( 3p)     0.00211
   144    N   10  pz     Val( 2p)     1.52293
   145    N   10  pz     Ryd( 3p)     0.00240
   146    N   10  dxy    Ryd( 3d)     0.00035
   147    N   10  dxz    Ryd( 3d)     0.00086
   148    N   10  dyz    Ryd( 3d)     0.00035
   149    N   10  dx2y2  Ryd( 3d)     0.00074
   150    N   10  dz2    Ryd( 3d)     0.00060

   151    C   11  S      Cor( 1S)     1.99896
   152    C   11  S      Val( 2S)     0.95595
   153    C   11  S      Ryd( 3S)     0.00110
   154    C   11  S      Ryd( 4S)     0.00006
   155    C   11  px     Val( 2p)     1.14136
   156    C   11  px     Ryd( 3p)     0.00457
   157    C   11  py     Val( 2p)     1.06106
   158    C   11  py     Ryd( 3p)     0.00430
   159    C   11  pz     Val( 2p)     1.05603
   160    C   11  pz     Ryd( 3p)     0.00397
   161    C   11  dxy    Ryd( 3d)     0.00058
   162    C   11  dxz    Ryd( 3d)     0.00054
   163    C   11  dyz    Ryd( 3d)     0.00048
   164    C   11  dx2y2  Ryd( 3d)     0.00054
   165    C   11  dz2    Ryd( 3d)     0.00041

   166    C   12  S      Cor( 1S)     1.99862
   167    C   12  S      Val( 2S)     0.96556
   168    C   12  S      Ryd( 3S)     0.00283
   169    C   12  S      Ryd( 4S)     0.00007
   170    C   12  px     Val( 2p)     1.10553
   171    C   12  px     Ryd( 3p)     0.00954
   172    C   12  py     Val( 2p)     1.12550
   173    C   12  py     Ryd( 3p)     0.00657
   174    C   12  pz     Val( 2p)     1.12041
   175    C   12  pz     Ryd( 3p)     0.00566
   176    C   12  dxy    Ryd( 3d)     0.00064
   177    C   12  dxz    Ryd( 3d)     0.00066
   178    C   12  dyz    Ryd( 3d)     0.00062
   179    C   12  dx2y2  Ryd( 3d)     0.00062
   180    C   12  dz2    Ryd( 3d)     0.00048

   181    S   13  S      Cor( 1S)     2.00000
   182    S   13  S      Cor( 2S)     1.99908
   183    S   13  S      Val( 3S)     1.03511
   184    S   13  S      Ryd( 4S)     0.00588
   185    S   13  S      Ryd( 5S)     0.00022
   186    S   13  px     Cor( 2p)     1.99992
   187    S   13  px     Val( 3p)     0.69920
   188    S   13  px     Ryd( 4p)     0.01413
   189    S   13  py     Cor( 2p)     1.99991
   190    S   13  py     Val( 3p)     0.82335
   191    S   13  py     Ryd( 4p)     0.01111
   192    S   13  pz     Cor( 2p)     1.99988
   193    S   13  pz     Val( 3p)     0.82820
   194    S   13  pz     Ryd( 4p)     0.01122
   195    S   13  dxy    Ryd( 3d)     0.03135
   196    S   13  dxz    Ryd( 3d)     0.03243
   197    S   13  dyz    Ryd( 3d)     0.03708
   198    S   13  dx2y2  Ryd( 3d)     0.03895
   199    S   13  dz2    Ryd( 3d)     0.02243

   200    O   14  S      Cor( 1S)     1.99988
   201    O   14  S      Val( 2S)     1.82910
   202    O   14  S      Ryd( 3S)     0.00135
   203    O   14  S      Ryd( 4S)     0.00007
   204    O   14  px     Val( 2p)     1.59154
   205    O   14  px     Ryd( 3p)     0.00060
   206    O   14  py     Val( 2p)     1.72996
   207    O   14  py     Ryd( 3p)     0.00068
   208    O   14  pz     Val( 2p)     1.77638
   209    O   14  pz     Ryd( 3p)     0.00073
   210    O   14  dxy    Ryd( 3d)     0.00491
   211    O   14  dxz    Ryd( 3d)     0.00411
   212    O   14  dyz    Ryd( 3d)     0.00144
   213    O   14  dx2y2  Ryd( 3d)     0.00508
   214    O   14  dz2    Ryd( 3d)     0.00199

   215    O   15  S      Cor( 1S)     1.99985
   216    O   15  S      Val( 2S)     1.76727
   217    O   15  S      Ryd( 3S)     0.00186
   218    O   15  S      Ryd( 4S)     0.00003
   219    O   15  px     Val( 2p)     1.81556
   220    O   15  px     Ryd( 3p)     0.00094
   221    O   15  py     Val( 2p)     1.70192
   222    O   15  py     Ryd( 3p)     0.00103
   223    O   15  pz     Val( 2p)     1.64992
   224    O   15  pz     Ryd( 3p)     0.00102
   225    O   15  dxy    Ryd( 3d)     0.00067
   226    O   15  dxz    Ryd( 3d)     0.00173
   227    O   15  dyz    Ryd( 3d)     0.00141
   228    O   15  dx2y2  Ryd( 3d)     0.00034
   229    O   15  dz2    Ryd( 3d)     0.00151

   230    O   16  S      Cor( 1S)     1.99988
   231    O   16  S      Val( 2S)     1.82743
   232    O   16  S      Ryd( 3S)     0.00140
   233    O   16  S      Ryd( 4S)     0.00005
   234    O   16  px     Val( 2p)     1.60605
   235    O   16  px     Ryd( 3p)     0.00071
   236    O   16  py     Val( 2p)     1.71939
   237    O   16  py     Ryd( 3p)     0.00062
   238    O   16  pz     Val( 2p)     1.79243
   239    O   16  pz     Ryd( 3p)     0.00078
   240    O   16  dxy    Ryd( 3d)     0.00517
   241    O   16  dxz    Ryd( 3d)     0.00365
   242    O   16  dyz    Ryd( 3d)     0.00169
   243    O   16  dx2y2  Ryd( 3d)     0.00526
   244    O   16  dz2    Ryd( 3d)     0.00188

   245    C   17  S      Cor( 1S)     1.99862
   246    C   17  S      Val( 2S)     0.94469
   247    C   17  S      Ryd( 3S)     0.00248
   248    C   17  S      Ryd( 4S)     0.00007
   249    C   17  px     Val( 2p)     1.11341
   250    C   17  px     Ryd( 3p)     0.00847
   251    C   17  py     Val( 2p)     1.16122
   252    C   17  py     Ryd( 3p)     0.00701
   253    C   17  pz     Val( 2p)     1.15813
   254    C   17  pz     Ryd( 3p)     0.00663
   255    C   17  dxy    Ryd( 3d)     0.00065
   256    C   17  dxz    Ryd( 3d)     0.00070
   257    C   17  dyz    Ryd( 3d)     0.00059
   258    C   17  dx2y2  Ryd( 3d)     0.00068
   259    C   17  dz2    Ryd( 3d)     0.00067

   260    S   18  S      Cor( 1S)     2.00000
   261    S   18  S      Cor( 2S)     1.99904
   262    S   18  S      Val( 3S)     1.03827
   263    S   18  S      Ryd( 4S)     0.00608
   264    S   18  S      Ryd( 5S)     0.00022
   265    S   18  px     Cor( 2p)     1.99990
   266    S   18  px     Val( 3p)     0.67877
   267    S   18  px     Ryd( 4p)     0.01416
   268    S   18  py     Cor( 2p)     1.99988
   269    S   18  py     Val( 3p)     0.85461
   270    S   18  py     Ryd( 4p)     0.00996
   271    S   18  pz     Cor( 2p)     1.99991
   272    S   18  pz     Val( 3p)     0.84164
   273    S   18  pz     Ryd( 4p)     0.01273
   274    S   18  dxy    Ryd( 3d)     0.03055
   275    S   18  dxz    Ryd( 3d)     0.03017
   276    S   18  dyz    Ryd( 3d)     0.03423
   277    S   18  dx2y2  Ryd( 3d)     0.03522
   278    S   18  dz2    Ryd( 3d)     0.02833

   279    O   19  S      Cor( 1S)     1.99988
   280    O   19  S      Val( 2S)     1.82428
   281    O   19  S      Ryd( 3S)     0.00120
   282    O   19  S      Ryd( 4S)     0.00008
   283    O   19  px     Val( 2p)     1.60140
   284    O   19  px     Ryd( 3p)     0.00066
   285    O   19  py     Val( 2p)     1.78057
   286    O   19  py     Ryd( 3p)     0.00065
   287    O   19  pz     Val( 2p)     1.73815
   288    O   19  pz     Ryd( 3p)     0.00062
   289    O   19  dxy    Ryd( 3d)     0.00394
   290    O   19  dxz    Ryd( 3d)     0.00501
   291    O   19  dyz    Ryd( 3d)     0.00164
   292    O   19  dx2y2  Ryd( 3d)     0.00406
   293    O   19  dz2    Ryd( 3d)     0.00326

   294    O   20  S      Cor( 1S)     1.99988
   295    O   20  S      Val( 2S)     1.78065
   296    O   20  S      Ryd( 3S)     0.00287
   297    O   20  S      Ryd( 4S)     0.00001
   298    O   20  px     Val( 2p)     1.73397
   299    O   20  px     Ryd( 3p)     0.00080
   300    O   20  py     Val( 2p)     1.61801
   301    O   20  py     Ryd( 3p)     0.00178
   302    O   20  pz     Val( 2p)     1.79339
   303    O   20  pz     Ryd( 3p)     0.00127
   304    O   20  dxy    Ryd( 3d)     0.00136
   305    O   20  dxz    Ryd( 3d)     0.00162
   306    O   20  dyz    Ryd( 3d)     0.00042
   307    O   20  dx2y2  Ryd( 3d)     0.00158
   308    O   20  dz2    Ryd( 3d)     0.00070

   309    O   21  S      Cor( 1S)     1.99984
   310    O   21  S      Val( 2S)     1.81089
   311    O   21  S      Ryd( 3S)     0.00182
   312    O   21  S      Ryd( 4S)     0.00008
   313    O   21  px     Val( 2p)     1.64056
   314    O   21  px     Ryd( 3p)     0.00079
   315    O   21  py     Val( 2p)     1.79659
   316    O   21  py     Ryd( 3p)     0.00097
   317    O   21  pz     Val( 2p)     1.73552
   318    O   21  pz     Ryd( 3p)     0.00061
   319    O   21  dxy    Ryd( 3d)     0.00263
   320    O   21  dxz    Ryd( 3d)     0.00417
   321    O   21  dyz    Ryd( 3d)     0.00151
   322    O   21  dx2y2  Ryd( 3d)     0.00298
   323    O   21  dz2    Ryd( 3d)     0.00306

   324    C   22  S      Cor( 1S)     1.99896
   325    C   22  S      Val( 2S)     0.94210
   326    C   22  S      Ryd( 3S)     0.00108
   327    C   22  S      Ryd( 4S)     0.00005
   328    C   22  px     Val( 2p)     1.12538
   329    C   22  px     Ryd( 3p)     0.00440
   330    C   22  py     Val( 2p)     1.09790
   331    C   22  py     Ryd( 3p)     0.00444
   332    C   22  pz     Val( 2p)     1.12464
   333    C   22  pz     Ryd( 3p)     0.00459
   334    C   22  dxy    Ryd( 3d)     0.00052
   335    C   22  dxz    Ryd( 3d)     0.00059
   336    C   22  dyz    Ryd( 3d)     0.00046
   337    C   22  dx2y2  Ryd( 3d)     0.00053
   338    C   22  dz2    Ryd( 3d)     0.00047

   339    H   23  S      Val( 1S)     0.57071
   340    H   23  S      Ryd( 2S)     0.00112
   341    H   23  px     Ryd( 2p)     0.00036
   342    H   23  py     Ryd( 2p)     0.00031
   343    H   23  pz     Ryd( 2p)     0.00054

   344    H   24  S      Val( 1S)     0.57143
   345    H   24  S      Ryd( 2S)     0.00135
   346    H   24  px     Ryd( 2p)     0.00022
   347    H   24  py     Ryd( 2p)     0.00061
   348    H   24  pz     Ryd( 2p)     0.00038

   349    H   25  S      Val( 1S)     0.75435
   350    H   25  S      Ryd( 2S)     0.00085
   351    H   25  px     Ryd( 2p)     0.00008
   352    H   25  py     Ryd( 2p)     0.00027
   353    H   25  pz     Ryd( 2p)     0.00027

   354    H   26  S      Val( 1S)     0.74624
   355    H   26  S      Ryd( 2S)     0.00080
   356    H   26  px     Ryd( 2p)     0.00023
   357    H   26  py     Ryd( 2p)     0.00016
   358    H   26  pz     Ryd( 2p)     0.00022

   359    H   27  S      Val( 1S)     0.72663
   360    H   27  S      Ryd( 2S)     0.00082
   361    H   27  px     Ryd( 2p)     0.00024
   362    H   27  py     Ryd( 2p)     0.00017
   363    H   27  pz     Ryd( 2p)     0.00017

   364    H   28  S      Val( 1S)     0.73261
   365    H   28  S      Ryd( 2S)     0.00081
   366    H   28  px     Ryd( 2p)     0.00007
   367    H   28  py     Ryd( 2p)     0.00029
   368    H   28  pz     Ryd( 2p)     0.00023

   369    H   29  S      Val( 1S)     0.55346
   370    H   29  S      Ryd( 2S)     0.00078
   371    H   29  px     Ryd( 2p)     0.00038
   372    H   29  py     Ryd( 2p)     0.00027
   373    H   29  pz     Ryd( 2p)     0.00053

   374    H   30  S      Val( 1S)     0.55338
   375    H   30  S      Ryd( 2S)     0.00085
   376    H   30  px     Ryd( 2p)     0.00021
   377    H   30  py     Ryd( 2p)     0.00062
   378    H   30  pz     Ryd( 2p)     0.00035

   379    H   31  S      Val( 1S)     0.71977
   380    H   31  S      Ryd( 2S)     0.00147
   381    H   31  px     Ryd( 2p)     0.00022
   382    H   31  py     Ryd( 2p)     0.00021
   383    H   31  pz     Ryd( 2p)     0.00018

   384    H   32  S      Val( 1S)     0.45548
   385    H   32  S      Ryd( 2S)     0.00325
   386    H   32  px     Ryd( 2p)     0.00095
   387    H   32  py     Ryd( 2p)     0.00110
   388    H   32  pz     Ryd( 2p)     0.00069

   389    H   33  S      Val( 1S)     0.45740
   390    H   33  S      Ryd( 2S)     0.00046
   391    H   33  px     Ryd( 2p)     0.00102
   392    H   33  py     Ryd( 2p)     0.00090
   393    H   33  pz     Ryd( 2p)     0.00087

   394    H   34  S      Val( 1S)     0.73731
   395    H   34  S      Ryd( 2S)     0.00136
   396    H   34  px     Ryd( 2p)     0.00020
   397    H   34  py     Ryd( 2p)     0.00019
   398    H   34  pz     Ryd( 2p)     0.00024

 WARNING:  1 low occupancy (<1.9990e) core orbital  found on  C    2
           1 low occupancy (<1.9990e) core orbital  found on  C    5
           1 low occupancy (<1.9990e) core orbital  found on  C    6
           1 low occupancy (<1.9990e) core orbital  found on  C    9
           1 low occupancy (<1.9990e) core orbital  found on  C   11
           1 low occupancy (<1.9990e) core orbital  found on  C   12
           1 low occupancy (<1.9990e) core orbital  found on  C   17
           1 low occupancy (<1.9990e) core orbital  found on  C   22


 Summary of Natural Population Analysis:                  
                                                          
                                       Natural Population 
                Natural  -----------------------------------------------
    Atom  No    Charge         Core      Valence    Rydberg      Total
 -----------------------------------------------------------------------
      N    1   -0.77578      1.99948     5.76535    0.01095     7.77578
      C    2    0.18485      1.99899     3.79745    0.01871     5.81515
      C    3   -0.35003      1.99904     4.33526    0.01574     6.35003
      C    4   -0.19962      1.99903     4.18616    0.01442     6.19962
      C    5   -0.08299      1.99889     4.06306    0.02104     6.08299
      C    6    0.02630      1.99891     3.95400    0.02078     5.97370
      C    7   -0.19628      1.99904     4.18267    0.01457     6.19628
      C    8   -0.25617      1.99904     4.24281    0.01432     6.25617
      C    9    0.20337      1.99898     3.77999    0.01766     5.79663
      N   10   -0.69553      1.99947     5.68646    0.00961     7.69553
      C   11   -0.22990      1.99896     4.21439    0.01655     6.22990
      C   12   -0.34333      1.99862     4.31700    0.02771     6.34333
      S   13    2.41055      9.99879     3.38586    0.20480    13.58945
      O   14   -0.94780      1.99988     6.92697    0.02095     8.94780
      O   15   -0.94505      1.99985     6.93467    0.01054     8.94505
      O   16   -0.96638      1.99988     6.94530    0.02120     8.96638
      C   17   -0.40401      1.99862     4.37745    0.02794     6.40401
      S   18    2.38632      9.99873     3.41329    0.20166    13.61368
      O   19   -0.96540      1.99988     6.94440    0.02112     8.96540
      O   20   -0.93831      1.99988     6.92602    0.01241     8.93831
      O   21   -1.00203      1.99984     6.98356    0.01863     9.00203
      C   22   -0.30611      1.99896     4.29002    0.01714     6.30611
      H   23    0.42696      0.00000     0.57071    0.00233     0.57304
      H   24    0.42601      0.00000     0.57143    0.00257     0.57399
      H   25    0.24418      0.00000     0.75435    0.00147     0.75582
      H   26    0.25235      0.00000     0.74624    0.00141     0.74765
      H   27    0.27196      0.00000     0.72663    0.00141     0.72804
      H   28    0.26599      0.00000     0.73261    0.00140     0.73401
      H   29    0.44458      0.00000     0.55346    0.00196     0.55542
      H   30    0.44459      0.00000     0.55338    0.00203     0.55541
      H   31    0.27815      0.00000     0.71977    0.00207     0.72185
      H   32    0.53854      0.00000     0.45548    0.00598     0.46146
      H   33    0.53934      0.00000     0.45740    0.00326     0.46066
      H   34    0.26070      0.00000     0.73731    0.00199     0.73930
 =======================================================================
   * Total *    0.00000     59.98276   117.23091    0.78633   178.00000

                                 Natural Population      
 --------------------------------------------------------
   Core                      59.98276 ( 99.9713% of  60)
   Valence                  117.23091 ( 99.3482% of 118)
   Natural Minimal Basis    177.21367 ( 99.5582% of 178)
   Natural Rydberg Basis      0.78633 (  0.4418% of 178)
 --------------------------------------------------------

    Atom  No          Natural Electron Configuration
 ----------------------------------------------------------------------------
      N    1      [core]2S( 1.35)2p( 4.41)3p( 0.01)
      C    2      [core]2S( 0.84)2p( 2.96)3p( 0.01)3d( 0.01)
      C    3      [core]2S( 0.95)2p( 3.39)3p( 0.01)
      C    4      [core]2S( 0.95)2p( 3.24)3p( 0.01)
      C    5      [core]2S( 0.86)2p( 3.21)3p( 0.02)
      C    6      [core]2S( 0.88)2p( 3.08)3p( 0.02)
      C    7      [core]2S( 0.96)2p( 3.22)3p( 0.01)
      C    8      [core]2S( 0.96)2p( 3.28)3p( 0.01)
      C    9      [core]2S( 0.85)2p( 2.93)3p( 0.01)
      N   10      [core]2S( 1.36)2p( 4.33)3p( 0.01)
      C   11      [core]2S( 0.96)2p( 3.26)3p( 0.01)
      C   12      [core]2S( 0.97)2p( 3.35)3p( 0.02)
      S   13      [core]3S( 1.04)3p( 2.35)4S( 0.01)3d( 0.16)4p( 0.04)
      O   14      [core]2S( 1.83)2p( 5.10)3d( 0.02)
      O   15      [core]2S( 1.77)2p( 5.17)3d( 0.01)
      O   16      [core]2S( 1.83)2p( 5.12)3d( 0.02)
      C   17      [core]2S( 0.94)2p( 3.43)3p( 0.02)
      S   18      [core]3S( 1.04)3p( 2.38)4S( 0.01)3d( 0.16)4p( 0.04)
      O   19      [core]2S( 1.82)2p( 5.12)3d( 0.02)
      O   20      [core]2S( 1.78)2p( 5.15)3d( 0.01)
      O   21      [core]2S( 1.81)2p( 5.17)3d( 0.01)
      C   22      [core]2S( 0.94)2p( 3.35)3p( 0.01)
      H   23            1S( 0.57)
      H   24            1S( 0.57)
      H   25            1S( 0.75)
      H   26            1S( 0.75)
      H   27            1S( 0.73)
      H   28            1S( 0.73)
      H   29            1S( 0.55)
      H   30            1S( 0.55)
      H   31            1S( 0.72)
      H   32            1S( 0.46)
      H   33            1S( 0.46)
      H   34            1S( 0.74)


 NBO analysis skipped by request.
 1\1\GINC-DRG2-W001\SP\RB3LYP TD-FC\6-31G(d,p)\C12H12N2O6S2\QDUEZ\18-Ju
 l-2024\0\\# TD(NStates=10, Root=1) B3LYP/6-31G** SCRF=(Solvent=water) 
 volume pop=NPA density=current Geom=AllCheck Guess=Read\\MBJAPGAZEWPEF
 B-UHFFFAOYSA-N_conf_1\\0,1\N,0,-4.3795070093,0.7003725638,-2.432256048
 6\C,0,-3.1630861575,0.4512312292,-1.8258823114\C,0,-2.2569122533,-0.48
 4641016,-2.3602561677\C,0,-1.0626263868,-0.769348156,-1.7135308807\C,0
 ,-0.6855569619,-0.1527681784,-0.5095479894\C,0,0.5850442779,-0.5921960
 884,0.1515506862\C,0,0.5242626558,-1.6815405061,1.0377617999\C,0,1.653
 7646818,-2.2391886541,1.6204414287\C,0,2.93510215,-1.7335337178,1.3317
 96636\N,0,4.0735419508,-2.3238200752,1.8461232967\C,0,3.023997419,-0.6
 418365122,0.4505595928\C,0,1.8754572486,-0.0950249313,-0.1207521597\S,
 0,2.1692187299,1.3510939836,-1.1510741475\O,0,1.1000691733,1.501098801
 6,-2.1401102028\O,0,2.100673965,2.5728374874,-0.0922110097\O,0,3.55860
 99888,1.3428073354,-1.6113437043\C,0,-1.6117369484,0.7687587621,0.0134
 336606\S,0,-1.3173018768,1.6395264604,1.5481133409\O,0,-2.4243374434,2
 .5540126714,1.8168538696\O,0,-1.3015097559,0.4816754229,2.6903494606\O
 ,0,0.0587937205,2.1602701966,1.5939060669\C,0,-2.8179885264,1.07837233
 25,-0.6166944524\H,0,-4.831570681,1.5720260926,-2.1925205344\H,0,-4.43
 71581571,0.4907762196,-3.4194406696\H,0,-2.4976541013,-0.9918271819,-3
 .289892203\H,0,-0.3849486375,-1.4939511668,-2.1530196885\H,0,-0.448661
 1983,-2.1028874424,1.2680223538\H,0,1.5486947304,-3.0813271124,2.29803
 61777\H,0,4.9066121207,-1.7518389706,1.8674124106\H,0,3.9531306535,-2.
 8683752874,2.6891742368\H,0,3.9931857551,-0.2240050648,0.2026023512\H,
 0,1.2670959673,2.5135125575,0.4435721508\H,0,-2.2187282907,0.248270028
 7,2.9259662211\H,0,-3.4879708028,1.8014679163,-0.1671435712\\Version=E
 S64L-G16RevA.03\State=1-A\HF=-1821.6562746\RMSD=5.529e-09\Dipole=-0.10
 25723,-4.6518306,1.9978111\Quadrupole=14.5140678,-9.5614693,-4.9525985
 ,-19.4546017,29.5976272,-14.6900441\PG=C01 [X(C12H12N2O6S2)]\\@


 EXPERIENCE IS THE FRUIT OF THE TREE OF ERRORS.
 Job cpu time:       0 days  1 hours 49 minutes 42.8 seconds.
 Elapsed time:       0 days  0 hours 36 minutes 39.9 seconds.
 File lengths (MBytes):  RWF=   1345 Int=      0 D2E=      0 Chk=     80 Scr=      1
 Normal termination of Gaussian 16 at Thu Jul 18 14:35:03 2024.
