 Entering Gaussian System, Link 0=g16
 Initial command:
 /opt/sw/arch/manual/gaussian/G16_A03/g16/l1.exe "/scratch/1380934/Gau-153113.inp" -scrdir="/scratch/1380934/"
 Entering Link 1 = /opt/sw/arch/manual/gaussian/G16_A03/g16/l1.exe PID=    153114.
  
 Copyright (c) 1988,1990,1992,1993,1995,1998,2003,2009,2016,
            Gaussian, Inc.  All Rights Reserved.
  
 This is part of the Gaussian(R) 16 program.  It is based on
 the Gaussian(R) 09 system (copyright 2009, Gaussian, Inc.),
 the Gaussian(R) 03 system (copyright 2003, Gaussian, Inc.),
 the Gaussian(R) 98 system (copyright 1998, Gaussian, Inc.),
 the Gaussian(R) 94 system (copyright 1995, Gaussian, Inc.),
 the Gaussian 92(TM) system (copyright 1992, Gaussian, Inc.),
 the Gaussian 90(TM) system (copyright 1990, Gaussian, Inc.),
 the Gaussian 88(TM) system (copyright 1988, Gaussian, Inc.),
 the Gaussian 86(TM) system (copyright 1986, Carnegie Mellon
 University), and the Gaussian 82(TM) system (copyright 1983,
 Carnegie Mellon University). Gaussian is a federally registered
 trademark of Gaussian, Inc.
  
 This software contains proprietary and confidential information,
 including trade secrets, belonging to Gaussian, Inc.
  
 This software is provided under written license and may be
 used, copied, transmitted, or stored only in accord with that
 written license.
  
 The following legend is applicable only to US Government
 contracts under FAR:
  
                    RESTRICTED RIGHTS LEGEND
  
 Use, reproduction and disclosure by the US Government is
 subject to restrictions as set forth in subparagraphs (a)
 and (c) of the Commercial Computer Software - Restricted
 Rights clause in FAR 52.227-19.
  
 Gaussian, Inc.
 340 Quinnipiac St., Bldg. 40, Wallingford CT 06492
  
  
 ---------------------------------------------------------------
 Warning -- This program may not be used in any manner that
 competes with the business of Gaussian, Inc. or will provide
 assistance to any competitor of Gaussian, Inc.  The licensee
 of this program is prohibited from giving any competitor of
 Gaussian, Inc. access to this program.  By using this program,
 the user acknowledges that Gaussian, Inc. is engaged in the
 business of creating and licensing software in the field of
 computational chemistry and represents and warrants to the
 licensee that it is not a competitor of Gaussian, Inc. and that
 it will not use this program in any manner prohibited above.
 ---------------------------------------------------------------
  

 Cite this work as:
 Gaussian 16, Revision A.03,
 M. J. Frisch, G. W. Trucks, H. B. Schlegel, G. E. Scuseria, 
 M. A. Robb, J. R. Cheeseman, G. Scalmani, V. Barone, 
 G. A. Petersson, H. Nakatsuji, X. Li, M. Caricato, A. V. Marenich, 
 J. Bloino, B. G. Janesko, R. Gomperts, B. Mennucci, H. P. Hratchian, 
 J. V. Ortiz, A. F. Izmaylov, J. L. Sonnenberg, D. Williams-Young, 
 F. Ding, F. Lipparini, F. Egidi, J. Goings, B. Peng, A. Petrone, 
 T. Henderson, D. Ranasinghe, V. G. Zakrzewski, J. Gao, N. Rega, 
 G. Zheng, W. Liang, M. Hada, M. Ehara, K. Toyota, R. Fukuda, 
 J. Hasegawa, M. Ishida, T. Nakajima, Y. Honda, O. Kitao, H. Nakai, 
 T. Vreven, K. Throssell, J. A. Montgomery, Jr., J. E. Peralta, 
 F. Ogliaro, M. J. Bearpark, J. J. Heyd, E. N. Brothers, K. N. Kudin, 
 V. N. Staroverov, T. A. Keith, R. Kobayashi, J. Normand, 
 K. Raghavachari, A. P. Rendell, J. C. Burant, S. S. Iyengar, 
 J. Tomasi, M. Cossi, J. M. Millam, M. Klene, C. Adamo, R. Cammi, 
 J. W. Ochterski, R. L. Martin, K. Morokuma, O. Farkas, 
 J. B. Foresman, and D. J. Fox, Gaussian, Inc., Wallingford CT, 2016.
 
 ******************************************
 Gaussian 16:  ES64L-G16RevA.03 25-Dec-2016
                18-Jul-2024 
 ******************************************
 %nprocshared=5
 Will use up to    5 processors via shared memory.
 %mem=10GB
 %Chk=MBJAPGAZEWPEFB-UHFFFAOYSA-N_conf_2_0.chk
 -------------------------------------------------------
 # opt=CalcFc B3LYP/6-31G** SCRF=(Solvent=water) scf=xqc
 -------------------------------------------------------
 1/10=4,18=20,19=15,26=3,38=1/1,3;
 2/9=110,12=2,17=6,18=5,40=1/2;
 3/5=1,6=6,7=101,11=2,25=1,30=1,70=2201,71=2,72=1,74=-5,140=1/1,2,3;
 4//1;
 5/5=2,8=3,13=1,38=5,53=1/2,8;
 8/6=4,10=90,11=11/1;
 11/6=1,8=1,9=11,15=111,16=1/1,2,10;
 10/6=1,13=1/2;
 6/7=2,8=2,9=2,10=2,28=1/1;
 7/10=1,18=20,25=1/1,2,3,16;
 1/10=4,18=20,19=15,26=3/3(2);
 2/9=110/2;
 99//99;
 2/9=110/2;
 3/5=1,6=6,7=101,11=2,25=1,30=1,70=2205,71=1,72=1,74=-5/1,2,3;
 4/5=5,16=3,69=1/1;
 5/5=2,8=3,13=1,38=5,53=1/2,8;
 7//1,2,3,16;
 1/18=20,19=15,26=3/3(-5);
 2/9=110/2;
 6/7=2,8=2,9=2,10=2,19=2,28=1/1;
 99/9=1/99;
 ----------------------------------
 MBJAPGAZEWPEFB-UHFFFAOYSA-N_conf_2
 ----------------------------------
 Symbolic Z-matrix:
 Charge =  0 Multiplicity = 1
 N                    -4.37785  -2.19681   1.28578 
 C                    -3.13239  -1.66928   0.93316 
 C                    -2.06727  -2.51771   0.63683 
 C                    -0.85202  -2.00772   0.16722 
 C                    -0.67618  -0.63207  -0.05782 
 C                     0.61734  -0.16714  -0.57858 
 C                     0.73343   0.07319  -1.95901 
 C                     1.93292   0.5206   -2.52234 
 C                     3.07072   0.69146  -1.73697 
 N                     4.22247   1.26459  -2.28033 
 C                     2.96329   0.50022  -0.36104 
 C                     1.75888   0.05525   0.21267 
 S                     1.72732  -0.12708   1.98459 
 O                     2.75077   0.74535   2.52221 
 O                     0.32977   0.52328   2.46095 
 O                     1.70595  -1.54396   2.26836 
 C                    -1.77884   0.20847   0.18625 
 S                    -1.68494   1.96687  -0.04172 
 O                    -1.63529   2.23214  -1.4619 
 O                    -0.24169   2.41597   0.54218 
 O                    -2.67073   2.59197   0.81247 
 C                    -2.99721  -0.31024   0.65731 
 H                    -4.98132  -1.54463   1.77851 
 H                    -4.32567  -3.09494   1.75794 
 H                    -2.16763  -3.59173   0.77507 
 H                    -0.03726  -2.70535  -0.02634 
 H                    -0.12589  -0.07067  -2.61525 
 H                     1.96599   0.73121  -3.58916 
 H                     5.07317   1.07777  -1.75639 
 H                     4.34567   1.09283  -3.27434 
 H                     3.82594   0.70106   0.27242 
 H                     0.37965   1.50056   2.36333 
 H                     0.19396   2.93368  -0.175 
 H                    -3.84506   0.35286   0.81893 
 

 GradGradGradGradGradGradGradGradGradGradGradGradGradGradGradGradGradGrad
 Berny optimization.
 Initialization pass.
                           ----------------------------
                           !    Initial Parameters    !
                           ! (Angstroms and Degrees)  !
 --------------------------                            --------------------------
 ! Name  Definition              Value          Derivative Info.                !
 --------------------------------------------------------------------------------
 ! R1    R(1,2)                  1.3978         calculate D2E/DX2 analytically  !
 ! R2    R(1,23)                 1.016          calculate D2E/DX2 analytically  !
 ! R3    R(1,24)                 1.016          calculate D2E/DX2 analytically  !
 ! R4    R(2,3)                  1.3936         calculate D2E/DX2 analytically  !
 ! R5    R(2,22)                 1.3933         calculate D2E/DX2 analytically  !
 ! R6    R(3,4)                  1.3991         calculate D2E/DX2 analytically  !
 ! R7    R(3,25)                 1.0875         calculate D2E/DX2 analytically  !
 ! R8    R(4,5)                  1.405          calculate D2E/DX2 analytically  !
 ! R9    R(4,26)                 1.09           calculate D2E/DX2 analytically  !
 ! R10   R(5,6)                  1.4699         calculate D2E/DX2 analytically  !
 ! R11   R(5,17)                 1.4078         calculate D2E/DX2 analytically  !
 ! R12   R(6,7)                  1.406          calculate D2E/DX2 analytically  !
 ! R13   R(6,12)                 1.4066         calculate D2E/DX2 analytically  !
 ! R14   R(7,8)                  1.3987         calculate D2E/DX2 analytically  !
 ! R15   R(7,27)                 1.0908         calculate D2E/DX2 analytically  !
 ! R16   R(8,9)                  1.393          calculate D2E/DX2 analytically  !
 ! R17   R(8,28)                 1.0879         calculate D2E/DX2 analytically  !
 ! R18   R(9,10)                 1.3965         calculate D2E/DX2 analytically  !
 ! R19   R(9,11)                 1.3933         calculate D2E/DX2 analytically  !
 ! R20   R(10,29)                1.0164         calculate D2E/DX2 analytically  !
 ! R21   R(10,30)                1.0162         calculate D2E/DX2 analytically  !
 ! R22   R(11,12)                1.4063         calculate D2E/DX2 analytically  !
 ! R23   R(11,31)                1.0889         calculate D2E/DX2 analytically  !
 ! R24   R(12,13)                1.7816         calculate D2E/DX2 analytically  !
 ! R25   R(13,14)                1.4483         calculate D2E/DX2 analytically  !
 ! R26   R(13,15)                1.6134         calculate D2E/DX2 analytically  !
 ! R27   R(13,16)                1.4452         calculate D2E/DX2 analytically  !
 ! R28   R(15,32)                0.9834         calculate D2E/DX2 analytically  !
 ! R29   R(17,18)                1.7756         calculate D2E/DX2 analytically  !
 ! R30   R(17,22)                1.4055         calculate D2E/DX2 analytically  !
 ! R31   R(18,19)                1.4456         calculate D2E/DX2 analytically  !
 ! R32   R(18,20)                1.6204         calculate D2E/DX2 analytically  !
 ! R33   R(18,21)                1.4464         calculate D2E/DX2 analytically  !
 ! R34   R(20,33)                0.986          calculate D2E/DX2 analytically  !
 ! R35   R(22,34)                1.0884         calculate D2E/DX2 analytically  !
 ! A1    A(2,1,23)             114.1618         calculate D2E/DX2 analytically  !
 ! A2    A(2,1,24)             113.8961         calculate D2E/DX2 analytically  !
 ! A3    A(23,1,24)            111.8734         calculate D2E/DX2 analytically  !
 ! A4    A(1,2,3)              120.3235         calculate D2E/DX2 analytically  !
 ! A5    A(1,2,22)             120.2987         calculate D2E/DX2 analytically  !
 ! A6    A(3,2,22)             118.527          calculate D2E/DX2 analytically  !
 ! A7    A(2,3,4)              120.8849         calculate D2E/DX2 analytically  !
 ! A8    A(2,3,25)             120.2441         calculate D2E/DX2 analytically  !
 ! A9    A(4,3,25)             118.8696         calculate D2E/DX2 analytically  !
 ! A10   A(3,4,5)              121.2907         calculate D2E/DX2 analytically  !
 ! A11   A(3,4,26)             118.3975         calculate D2E/DX2 analytically  !
 ! A12   A(5,4,26)             120.3113         calculate D2E/DX2 analytically  !
 ! A13   A(4,5,6)              118.4628         calculate D2E/DX2 analytically  !
 ! A14   A(4,5,17)             117.309          calculate D2E/DX2 analytically  !
 ! A15   A(6,5,17)             124.1833         calculate D2E/DX2 analytically  !
 ! A16   A(5,6,7)              118.3314         calculate D2E/DX2 analytically  !
 ! A17   A(5,6,12)             124.3938         calculate D2E/DX2 analytically  !
 ! A18   A(7,6,12)             117.2748         calculate D2E/DX2 analytically  !
 ! A19   A(6,7,8)              121.3937         calculate D2E/DX2 analytically  !
 ! A20   A(6,7,27)             120.2056         calculate D2E/DX2 analytically  !
 ! A21   A(8,7,27)             118.3918         calculate D2E/DX2 analytically  !
 ! A22   A(7,8,9)              120.839          calculate D2E/DX2 analytically  !
 ! A23   A(7,8,28)             118.8773         calculate D2E/DX2 analytically  !
 ! A24   A(9,8,28)             120.2834         calculate D2E/DX2 analytically  !
 ! A25   A(8,9,10)             120.305          calculate D2E/DX2 analytically  !
 ! A26   A(8,9,11)             118.4856         calculate D2E/DX2 analytically  !
 ! A27   A(10,9,11)            120.2746         calculate D2E/DX2 analytically  !
 ! A28   A(9,10,29)            114.4738         calculate D2E/DX2 analytically  !
 ! A29   A(9,10,30)            114.2796         calculate D2E/DX2 analytically  !
 ! A30   A(29,10,30)           111.8185         calculate D2E/DX2 analytically  !
 ! A31   A(9,11,12)            120.8187         calculate D2E/DX2 analytically  !
 ! A32   A(9,11,31)            119.2143         calculate D2E/DX2 analytically  !
 ! A33   A(12,11,31)           119.9669         calculate D2E/DX2 analytically  !
 ! A34   A(6,12,11)            121.035          calculate D2E/DX2 analytically  !
 ! A35   A(6,12,13)            121.9321         calculate D2E/DX2 analytically  !
 ! A36   A(11,12,13)           116.9555         calculate D2E/DX2 analytically  !
 ! A37   A(12,13,14)           107.159          calculate D2E/DX2 analytically  !
 ! A38   A(12,13,15)           105.53           calculate D2E/DX2 analytically  !
 ! A39   A(12,13,16)           107.2113         calculate D2E/DX2 analytically  !
 ! A40   A(14,13,15)           105.0521         calculate D2E/DX2 analytically  !
 ! A41   A(14,13,16)           121.8801         calculate D2E/DX2 analytically  !
 ! A42   A(15,13,16)           108.9309         calculate D2E/DX2 analytically  !
 ! A43   A(13,15,32)           109.1081         calculate D2E/DX2 analytically  !
 ! A44   A(5,17,18)            121.8424         calculate D2E/DX2 analytically  !
 ! A45   A(5,17,22)            121.113          calculate D2E/DX2 analytically  !
 ! A46   A(18,17,22)           117.0241         calculate D2E/DX2 analytically  !
 ! A47   A(17,18,19)           108.0395         calculate D2E/DX2 analytically  !
 ! A48   A(17,18,20)           105.9807         calculate D2E/DX2 analytically  !
 ! A49   A(17,18,21)           108.4279         calculate D2E/DX2 analytically  !
 ! A50   A(19,18,20)           105.8174         calculate D2E/DX2 analytically  !
 ! A51   A(19,18,21)           121.6192         calculate D2E/DX2 analytically  !
 ! A52   A(20,18,21)           105.9291         calculate D2E/DX2 analytically  !
 ! A53   A(18,20,33)           106.0785         calculate D2E/DX2 analytically  !
 ! A54   A(2,22,17)            120.6931         calculate D2E/DX2 analytically  !
 ! A55   A(2,22,34)            119.2926         calculate D2E/DX2 analytically  !
 ! A56   A(17,22,34)           120.012          calculate D2E/DX2 analytically  !
 ! D1    D(23,1,2,3)           160.2432         calculate D2E/DX2 analytically  !
 ! D2    D(23,1,2,22)          -30.4711         calculate D2E/DX2 analytically  !
 ! D3    D(24,1,2,3)            30.0494         calculate D2E/DX2 analytically  !
 ! D4    D(24,1,2,22)         -160.6649         calculate D2E/DX2 analytically  !
 ! D5    D(1,2,3,4)            174.2225         calculate D2E/DX2 analytically  !
 ! D6    D(1,2,3,25)            -6.216          calculate D2E/DX2 analytically  !
 ! D7    D(22,2,3,4)             4.7495         calculate D2E/DX2 analytically  !
 ! D8    D(22,2,3,25)         -175.689          calculate D2E/DX2 analytically  !
 ! D9    D(1,2,22,17)         -174.2476         calculate D2E/DX2 analytically  !
 ! D10   D(1,2,22,34)            6.3053         calculate D2E/DX2 analytically  !
 ! D11   D(3,2,22,17)           -4.7719         calculate D2E/DX2 analytically  !
 ! D12   D(3,2,22,34)          175.781          calculate D2E/DX2 analytically  !
 ! D13   D(2,3,4,5)             -1.8529         calculate D2E/DX2 analytically  !
 ! D14   D(2,3,4,26)           178.3817         calculate D2E/DX2 analytically  !
 ! D15   D(25,3,4,5)           178.5797         calculate D2E/DX2 analytically  !
 ! D16   D(25,3,4,26)           -1.1858         calculate D2E/DX2 analytically  !
 ! D17   D(3,4,5,6)           -178.7342         calculate D2E/DX2 analytically  !
 ! D18   D(3,4,5,17)            -1.0683         calculate D2E/DX2 analytically  !
 ! D19   D(26,4,5,6)             1.0268         calculate D2E/DX2 analytically  !
 ! D20   D(26,4,5,17)          178.6927         calculate D2E/DX2 analytically  !
 ! D21   D(4,5,6,7)             98.0818         calculate D2E/DX2 analytically  !
 ! D22   D(4,5,6,12)           -81.8413         calculate D2E/DX2 analytically  !
 ! D23   D(17,5,6,7)           -79.411          calculate D2E/DX2 analytically  !
 ! D24   D(17,5,6,12)          100.6659         calculate D2E/DX2 analytically  !
 ! D25   D(4,5,17,18)          179.337          calculate D2E/DX2 analytically  !
 ! D26   D(4,5,17,22)            1.0344         calculate D2E/DX2 analytically  !
 ! D27   D(6,5,17,18)           -3.1436         calculate D2E/DX2 analytically  !
 ! D28   D(6,5,17,22)          178.5539         calculate D2E/DX2 analytically  !
 ! D29   D(5,6,7,8)            179.8048         calculate D2E/DX2 analytically  !
 ! D30   D(5,6,7,27)             0.9084         calculate D2E/DX2 analytically  !
 ! D31   D(12,6,7,8)            -0.2666         calculate D2E/DX2 analytically  !
 ! D32   D(12,6,7,27)         -179.1629         calculate D2E/DX2 analytically  !
 ! D33   D(5,6,12,11)          179.9425         calculate D2E/DX2 analytically  !
 ! D34   D(5,6,12,13)           -3.3548         calculate D2E/DX2 analytically  !
 ! D35   D(7,6,12,11)            0.0186         calculate D2E/DX2 analytically  !
 ! D36   D(7,6,12,13)          176.7213         calculate D2E/DX2 analytically  !
 ! D37   D(6,7,8,9)              2.6063         calculate D2E/DX2 analytically  !
 ! D38   D(6,7,8,28)          -177.603          calculate D2E/DX2 analytically  !
 ! D39   D(27,7,8,9)          -178.478          calculate D2E/DX2 analytically  !
 ! D40   D(27,7,8,28)            1.3128         calculate D2E/DX2 analytically  !
 ! D41   D(7,8,9,10)          -173.5531         calculate D2E/DX2 analytically  !
 ! D42   D(7,8,9,11)            -4.5851         calculate D2E/DX2 analytically  !
 ! D43   D(28,8,9,10)            6.6591         calculate D2E/DX2 analytically  !
 ! D44   D(28,8,9,11)          175.6272         calculate D2E/DX2 analytically  !
 ! D45   D(8,9,10,29)         -160.9233         calculate D2E/DX2 analytically  !
 ! D46   D(8,9,10,30)          -30.132          calculate D2E/DX2 analytically  !
 ! D47   D(11,9,10,29)          30.3068         calculate D2E/DX2 analytically  !
 ! D48   D(11,9,10,30)         161.0981         calculate D2E/DX2 analytically  !
 ! D49   D(8,9,11,12)            4.3367         calculate D2E/DX2 analytically  !
 ! D50   D(8,9,11,31)         -175.5716         calculate D2E/DX2 analytically  !
 ! D51   D(10,9,11,12)         173.3083         calculate D2E/DX2 analytically  !
 ! D52   D(10,9,11,31)          -6.6001         calculate D2E/DX2 analytically  !
 ! D53   D(9,11,12,6)           -2.1021         calculate D2E/DX2 analytically  !
 ! D54   D(9,11,12,13)        -178.9629         calculate D2E/DX2 analytically  !
 ! D55   D(31,11,12,6)         177.8055         calculate D2E/DX2 analytically  !
 ! D56   D(31,11,12,13)          0.9448         calculate D2E/DX2 analytically  !
 ! D57   D(6,12,13,14)        -152.8367         calculate D2E/DX2 analytically  !
 ! D58   D(6,12,13,15)         -41.2507         calculate D2E/DX2 analytically  !
 ! D59   D(6,12,13,16)          74.7631         calculate D2E/DX2 analytically  !
 ! D60   D(11,12,13,14)         23.9938         calculate D2E/DX2 analytically  !
 ! D61   D(11,12,13,15)        135.5797         calculate D2E/DX2 analytically  !
 ! D62   D(11,12,13,16)       -108.4064         calculate D2E/DX2 analytically  !
 ! D63   D(12,13,15,32)        -71.4934         calculate D2E/DX2 analytically  !
 ! D64   D(14,13,15,32)         41.574          calculate D2E/DX2 analytically  !
 ! D65   D(16,13,15,32)        173.6732         calculate D2E/DX2 analytically  !
 ! D66   D(5,17,18,19)          71.8931         calculate D2E/DX2 analytically  !
 ! D67   D(5,17,18,20)         -41.152          calculate D2E/DX2 analytically  !
 ! D68   D(5,17,18,21)        -154.501          calculate D2E/DX2 analytically  !
 ! D69   D(22,17,18,19)       -109.7382         calculate D2E/DX2 analytically  !
 ! D70   D(22,17,18,20)        137.2166         calculate D2E/DX2 analytically  !
 ! D71   D(22,17,18,21)         23.8676         calculate D2E/DX2 analytically  !
 ! D72   D(5,17,22,2)            1.9154         calculate D2E/DX2 analytically  !
 ! D73   D(5,17,22,34)        -178.6414         calculate D2E/DX2 analytically  !
 ! D74   D(18,17,22,2)        -176.4659         calculate D2E/DX2 analytically  !
 ! D75   D(18,17,22,34)          2.9773         calculate D2E/DX2 analytically  !
 ! D76   D(17,18,20,33)        127.3549         calculate D2E/DX2 analytically  !
 ! D77   D(19,18,20,33)         12.777          calculate D2E/DX2 analytically  !
 ! D78   D(21,18,20,33)       -117.5777         calculate D2E/DX2 analytically  !
 --------------------------------------------------------------------------------
 Trust Radius=3.00D-01 FncErr=1.00D-07 GrdErr=1.00D-06 EigMax=2.50D+02 EigMin=1.00D-04
 Number of steps in this run=    179 maximum allowed number of steps=    204.
 GradGradGradGradGradGradGradGradGradGradGradGradGradGradGradGradGradGrad

                          Input orientation:                          
 ---------------------------------------------------------------------
 Center     Atomic      Atomic             Coordinates (Angstroms)
 Number     Number       Type             X           Y           Z
 ---------------------------------------------------------------------
      1          7           0       -4.377853   -2.196806    1.285779
      2          6           0       -3.132394   -1.669279    0.933164
      3          6           0       -2.067269   -2.517714    0.636832
      4          6           0       -0.852016   -2.007718    0.167222
      5          6           0       -0.676176   -0.632068   -0.057824
      6          6           0        0.617343   -0.167139   -0.578584
      7          6           0        0.733427    0.073195   -1.959010
      8          6           0        1.932925    0.520595   -2.522336
      9          6           0        3.070717    0.691461   -1.736973
     10          7           0        4.222470    1.264592   -2.280327
     11          6           0        2.963293    0.500222   -0.361037
     12          6           0        1.758880    0.055251    0.212674
     13         16           0        1.727320   -0.127080    1.984595
     14          8           0        2.750768    0.745349    2.522210
     15          8           0        0.329771    0.523279    2.460947
     16          8           0        1.705953   -1.543957    2.268363
     17          6           0       -1.778844    0.208471    0.186247
     18         16           0       -1.684939    1.966871   -0.041724
     19          8           0       -1.635293    2.232138   -1.461900
     20          8           0       -0.241693    2.415972    0.542184
     21          8           0       -2.670731    2.591967    0.812469
     22          6           0       -2.997213   -0.310241    0.657315
     23          1           0       -4.981318   -1.544630    1.778510
     24          1           0       -4.325666   -3.094944    1.757936
     25          1           0       -2.167629   -3.591729    0.775071
     26          1           0       -0.037261   -2.705354   -0.026345
     27          1           0       -0.125886   -0.070666   -2.615248
     28          1           0        1.965988    0.731206   -3.589157
     29          1           0        5.073171    1.077774   -1.756387
     30          1           0        4.345673    1.092826   -3.274338
     31          1           0        3.825941    0.701056    0.272419
     32          1           0        0.379646    1.500558    2.363333
     33          1           0        0.193955    2.933678   -0.175003
     34          1           0       -3.845061    0.352863    0.818926
 ---------------------------------------------------------------------
                    Distance matrix (angstroms):
                    1          2          3          4          5
     1  N    0.000000
     2  C    1.397780   0.000000
     3  C    2.421345   1.393609   0.000000
     4  C    3.703842   2.429265   1.399095   0.000000
     5  C    4.237462   2.844445   2.444042   1.404983   0.000000
     6  C    5.705031   4.313043   3.769560   2.470420   1.469879
     7  C    6.465813   5.132783   4.614661   3.371156   2.469592
     8  C    7.855694   6.511028   5.934072   4.624066   3.769597
     9  C    8.541681   7.154112   6.506355   5.128291   4.313987
    10  N    9.932972   8.545650   7.897877   6.515283   5.703821
    11  C    7.992396   6.598416   5.950650   4.596238   3.823579
    12  C    6.624410   5.236189   4.630278   3.327865   2.544617
    13  S    6.484230   5.205833   4.683001   3.673230   3.194258
    14  O    7.810395   6.554929   6.116838   5.109344   4.505308
    15  O    5.562518   4.373559   4.280284   3.614379   2.948044
    16  O    6.197126   5.020763   4.224606   3.342615   3.452134
    17  C    3.707988   2.432268   2.778182   2.402262   1.407819
    18  S    5.133250   4.033252   4.551715   4.066297   2.787893
    19  O    5.889560   4.816502   5.210793   4.609114   3.330917
    20  O    6.240070   5.019790   5.261458   4.481308   3.136771
    21  O    5.105941   4.287880   5.148189   4.988102   3.889738
    22  C    2.420798   1.393324   2.395444   2.779116   2.449941
    23  H    1.016016   2.036828   3.277500   4.456661   4.768557
    24  H    1.016025   2.033879   2.586586   3.972237   4.762511
    25  H    2.663028   2.156751   1.087516   2.146953   3.417270
    26  H    4.563006   3.402052   2.143815   1.089950   2.169728
    27  H    6.149610   4.917915   4.509217   3.467215   2.675521
    28  H    8.519540   7.225456   6.684431   5.436289   4.616260
    29  H   10.454640   9.061528   8.345113   6.951862   6.234073
    30  H   10.378644   9.014088   8.334211   6.962305   6.208075
    31  H    8.759380   7.380617   6.724820   5.406645   4.706946
    32  H    6.120900   4.942436   5.011457   4.318320   3.394828
    33  H    7.025467   5.786177   5.957338   5.062466   3.672248
    34  H    2.646249   2.147092   3.381407   3.867218   3.432289
                    6          7          8          9         10
     6  C    0.000000
     7  C    1.405992   0.000000
     8  C    2.445793   1.398677   0.000000
     9  C    2.845717   2.427855   1.393041   0.000000
    10  N    4.235885   3.700823   2.419528   1.396512   0.000000
    11  C    2.448709   2.776359   2.394428   1.393309   2.419392
    12  C    1.406646   2.401685   2.779769   2.434502   3.707672
    13  S    2.793481   4.071849   4.557870   4.040395   5.133428
    14  O    3.872862   4.960120   5.115352   4.271523   5.049741
    15  O    3.130195   4.461113   5.234808   5.016333   6.179185
    16  O    3.344519   4.629436   5.221560   4.785645   5.908586
    17  C    2.543180   3.306348   4.605548   5.239304   6.573823
    18  S    3.184764   3.620841   4.618884   5.207380   6.356258
    19  O    3.407513   3.243299   4.097082   4.959424   5.993276
    20  O    2.943896   3.563066   4.208646   4.374992   5.405645
    21  O    4.512109   5.060988   6.050219   6.563216   7.670954
    22  C    3.822688   4.572730   5.925093   6.599682   7.951959
    23  H    6.228835   7.017459   8.400547   9.066091  10.443926
    24  H    6.201992   7.031871   8.400167   9.014307  10.410751
    25  H    4.616955   5.415071   6.678222   7.217780   8.587937
    26  H    2.678808   3.471238   4.529719   4.911633   6.243894
    27  H    2.170184   1.090762   2.144044   3.401540   4.561061
    28  H    3.418979   2.146989   1.087914   2.156987   2.662564
    29  H    4.774037   4.459105   3.279980   2.039469   1.016419
    30  H    4.770225   3.977192   2.591199   2.037179   1.016239
    31  H    3.431191   3.864858   3.380345   2.146651   2.644110
    32  H    3.390072   4.565652   5.219460   4.970816   6.032127
    33  H    3.155503   3.414100   3.789057   3.967751   4.842227
    34  H    4.704943   5.362620   6.676622   7.380735   8.690320
                   11         12         13         14         15
    11  C    0.000000
    12  C    1.406326   0.000000
    13  S    2.724542   1.781557   0.000000
    14  O    2.901443   2.606536   1.448313   0.000000
    15  O    3.859995   2.704835   1.613388   2.431932   0.000000
    16  O    3.559961   2.605020   1.445171   2.529229   2.490869
    17  C    4.782521   3.541140   3.954724   5.124680   3.117631
    18  S    4.884576   3.947012   4.487105   5.267008   3.522269
    19  O    5.035715   4.366171   5.362033   6.109108   4.708545
    20  O    3.841594   3.111892   3.524866   3.958069   2.755088
    21  O    6.123295   5.139663   5.301882   5.977112   3.999995
    22  C    6.100945   4.790795   4.910849   6.134443   3.875135
    23  H    8.477968   7.102235   6.859865   8.098287   5.740178
    24  H    8.399059   7.023764   6.745237   8.087514   5.937917
    25  H    6.660418   5.388342   5.351389   6.786263   5.100243
    26  H    4.403529   3.302151   3.715524   5.116209   4.092115
    27  H    3.866575   3.400785   4.959446   5.944282   5.131096
    28  H    3.386551   3.867005   5.644496   6.161565   6.270900
    29  H    2.594639   3.988393   5.161525   4.879596   6.371280
    30  H    3.278639   4.464002   6.000027   6.021996   7.024624
    31  H    1.088927   2.166420   2.832237   2.493896   4.128494
    32  H    3.885628   2.935393   2.146829   2.493552   0.983407
    33  H    3.691280   3.299186   4.047631   4.312891   3.574451
    34  H    6.911419   5.644490   5.713191   6.823502   4.489376
                   16         17         18         19         20
    16  O    0.000000
    17  C    4.421541   0.000000
    18  S    5.400052   1.775601   0.000000
    19  O    6.271976   2.613852   1.445590   0.000000
    20  O    4.738571   2.713408   1.620370   2.447910   0.000000
    21  O    6.195229   2.620814   1.446436   2.524749   2.450358
    22  C    5.122236   1.405485   2.719551   3.579048   3.877935
    23  H    6.705188   3.983027   5.148787   5.996675   6.299120
    24  H    6.248721   4.457471   5.986166   6.781094   6.966138
    25  H    4.629031   3.865150   5.638987   6.261377   6.313155
    26  H    3.106980   3.401277   4.954268   5.384547   5.156840
    27  H    5.419952   3.264746   3.633900   2.985201   4.020716
    28  H    6.289239   5.343285   5.238360   4.443787   4.977978
    29  H    5.866025   7.174931   7.028699   6.813426   5.943230
    30  H    6.681489   7.089955   6.897973   6.352553   6.112323
    31  H    3.676715   5.627050   5.663106   5.931033   4.422597
    32  H    3.322225   3.326901   3.203788   4.384928   2.130876
    33  H    5.320281   3.383666   2.117244   2.344016   0.985985
    34  H    6.042561   2.165729   2.830524   3.690110   4.161401
                   21         22         23         24         25
    21  O    0.000000
    22  C    2.924632   0.000000
    23  H    4.835647   2.591808   0.000000
    24  H    5.997805   3.275778   1.683382   0.000000
    25  H    6.204240   3.386774   3.621374   2.422796   0.000000
    26  H    5.974980   3.868498   5.389664   4.661100   2.442620
    27  H    5.031410   4.360228   6.712146   6.775629   5.297251
    28  H    6.658521   6.614416   9.069528   9.100315   7.404123
    29  H    8.298182   8.537192  10.975667  10.867390   8.980074
    30  H    8.257079   8.446566  10.930701  10.865234   8.986984
    31  H    6.787779   6.908423   9.212993   9.114004   7.389421
    32  H    3.591818   4.194361   6.193151   6.604929   5.911224
    33  H    3.049311   4.625940   7.117227   7.778657   7.004331
    34  H    2.528374   1.088426   2.410885   3.605565   4.286666
                   26         27         28         29         30
    26  H    0.000000
    27  H    3.694842   0.000000
    28  H    5.340092   2.442833   0.000000
    29  H    6.589509   5.393213   3.624050   0.000000
    30  H    6.647236   4.667221   2.427506   1.683346   0.000000
    31  H    5.159188   4.954908   4.286269   2.411131   3.605980
    32  H    4.855313   5.245053   6.208101   6.259395   6.904996
    33  H    5.645728   3.883706   4.432542   5.454531   5.498307
    34  H    4.956462   5.079881   7.303603   9.310886   9.186429
                   31         32         33         34
    31  H    0.000000
    32  H    4.109511   0.000000
    33  H    4.286737   2.920868   0.000000
    34  H    7.698323   4.642256   4.895115   0.000000
 Stoichiometry    C12H12N2O6S2
 Framework group  C1[X(C12H12N2O6S2)]
 Deg. of freedom    96
 Full point group                 C1      NOp   1
 Largest Abelian subgroup         C1      NOp   1
 Largest concise Abelian subgroup C1      NOp   1
                         Standard orientation:                         
 ---------------------------------------------------------------------
 Center     Atomic      Atomic             Coordinates (Angstroms)
 Number     Number       Type             X           Y           Z
 ---------------------------------------------------------------------
      1          7           0        4.891629    0.992488   -1.095051
      2          6           0        3.517747    0.779332   -0.950819
      3          6           0        2.609858    1.483399   -1.739598
      4          6           0        1.241692    1.194866   -1.691247
      5          6           0        0.741630    0.163883   -0.878234
      6          6           0       -0.703470   -0.104250   -0.896503
      7          6           0       -1.177338   -1.153074   -1.704111
      8          6           0       -2.539029   -1.466423   -1.766626
      9          6           0       -3.478439   -0.710917   -1.068571
     10          7           0       -4.815852   -1.110942   -1.029183
     11          6           0       -3.023881    0.304204   -0.229394
     12          6           0       -1.655644    0.621329   -0.157888
     13         16           0       -1.185006    1.917775    0.969797
     14          8           0       -2.215475    1.996443    1.984467
     15          8           0        0.120852    1.366824    1.740645
     16          8           0       -0.810206    3.063136    0.172179
     17          6           0        1.674981   -0.581158   -0.132766
     18         16           0        1.173952   -1.899146    0.946418
     19          8           0        0.749187   -3.011725    0.126985
     20          8           0       -0.159029   -1.373755    1.703203
     21          8           0        2.178975   -2.055048    1.974911
     22          6           0        3.048229   -0.286683   -0.186281
     23          1           0        5.444860    0.693822   -0.296915
     24          1           0        5.133154    1.933605   -1.392156
     25          1           0        2.956594    2.274607   -2.400245
     26          1           0        0.564699    1.788565   -2.305407
     27          1           0       -0.479182   -1.755700   -2.286506
     28          1           0       -2.856402   -2.311181   -2.374258
     29          1           0       -5.468268   -0.374569   -0.773811
     30          1           0       -5.124241   -1.619815   -1.853007
     31          1           0       -3.742053    0.853943    0.377054
     32          1           0       -0.148783    0.653017    2.361020
     33          1           0       -0.842923   -2.070875    1.567262
     34          1           0        3.756519   -0.888354    0.380278
 ---------------------------------------------------------------------
 Rotational constants (GHZ):           0.3546294           0.2098682           0.1829794
 Standard basis: 6-31G(d,p) (6D, 7F)
 There are   398 symmetry adapted cartesian basis functions of A   symmetry.
 There are   398 symmetry adapted basis functions of A   symmetry.
   398 basis functions,   748 primitive gaussians,   398 cartesian basis functions
    89 alpha electrons       89 beta electrons
       nuclear repulsion energy      2337.0382238427 Hartrees.
 NAtoms=   34 NActive=   34 NUniq=   34 SFac= 1.00D+00 NAtFMM=   60 NAOKFM=F Big=F
 Integral buffers will be    131072 words long.
 Raffenetti 2 integral format.
 Two-electron integral symmetry is turned on.
 Force inversion solution in PCM.
 ------------------------------------------------------------------------------
 Polarizable Continuum Model (PCM)
 =================================
 Model                : PCM.
 Atomic radii         : UFF (Universal Force Field).
 Polarization charges : Total charges.
 Charge compensation  : None.
 Solution method      : Matrix inversion.
 Cavity type          : Scaled VdW (van der Waals Surface) (Alpha=1.100).
 Cavity algorithm     : GePol (No added spheres)
                        Default sphere list used, NSphG=   34.
                        Lebedev-Laikov grids with approx.  5.0 points / Ang**2.
                        Smoothing algorithm: York/Karplus (Gamma=1.0000).
                        Polarization charges: spherical gaussians, with
                                              point-specific exponents (IZeta= 3).
                        Self-potential: point-specific (ISelfS= 7).
                        Self-field    : sphere-specific E.n sum rule (ISelfD= 2).
 1st derivatives      : Analytical E(r).r(x)/FMM algorithm (CHGder, D1EAlg=3).
                        Cavity 1st derivative terms included.
 2nd derivatives      : Analytical E(r).r(xy)/FMM algorithm (CHGder, D2EAlg=3).
                        Cavity 2nd derivative terms included.
 Solvent              : Water, Eps=  78.355300 Eps(inf)=   1.777849
 ------------------------------------------------------------------------------
 One-electron integrals computed using PRISM.
 NBasis=   398 RedAO= T EigKep=  3.98D-04  NBF=   398
 NBsUse=   398 1.00D-06 EigRej= -1.00D+00 NBFU=   398
 ExpMin= 1.17D-01 ExpMax= 2.19D+04 ExpMxC= 3.30D+03 IAcc=3 IRadAn=         5 AccDes= 0.00D+00
 Harris functional with IExCor=  402 and IRadAn=       5 diagonalized for initial guess.
 HarFok:  IExCor=  402 AccDes= 0.00D+00 IRadAn=         5 IDoV= 1 UseB2=F ITyADJ=14
 ICtDFT=  3500011 ScaDFX=  1.000000  1.000000  1.000000  1.000000
 FoFCou: FMM=F IPFlag=           0 FMFlag=      100000 FMFlg1=           0
         NFxFlg=           0 DoJE=T BraDBF=F KetDBF=T FulRan=T
         wScrn=  0.000000 ICntrl=       500 IOpCl=  0 I1Cent=   200000004 NGrid=           0
         NMat0=    1 NMatS0=      1 NMatT0=    0 NMatD0=    1 NMtDS0=    0 NMtDT0=    0
 Petite list used in FoFCou.
 Requested convergence on RMS density matrix=1.00D-08 within  32 cycles.
 Requested convergence on MAX density matrix=1.00D-06.
 Requested convergence on             energy=1.00D-06.
 No special actions if energy rises.
 Inv3:  Mode=1 IEnd=    21821427.
 Iteration    1 A*A^-1 deviation from unit magnitude is 2.78D-15 for    252.
 Iteration    1 A*A^-1 deviation from orthogonality  is 2.16D-15 for   1467    251.
 Iteration    1 A^-1*A deviation from unit magnitude is 2.78D-15 for    252.
 Iteration    1 A^-1*A deviation from orthogonality  is 2.71D-15 for    871    835.
 Error on total polarization charges =  0.00739
 SCF Done:  E(RB3LYP) =  -1821.63784956     A.U. after   13 cycles
            NFock= 13  Conv=0.76D-08     -V/T= 2.0067
 QCSCF skips out because SCF is already converged.
 DoSCS=F DFT=T ScalE2(SS,OS)=  1.000000  1.000000
 Range of M.O.s used for correlation:     1   398
 NBasis=   398 NAE=    89 NBE=    89 NFC=     0 NFV=     0
 NROrb=    398 NOA=    89 NOB=    89 NVA=   309 NVB=   309
 Symmetrizing basis deriv contribution to polar:
 IMax=3 JMax=2 DiffMx= 0.00D+00
 G2DrvN: will do    35 centers at a time, making    1 passes.
 Calling FoFCou, ICntrl=  3107 FMM=F I1Cent=   0 AccDes= 0.00D+00.
 NEqPCM:  Using equilibrium solvation (IEInf=0, Eps=  78.3553, EpsInf=   1.7778)
 G2PCM: DoFxE=T DoFxN=T DoGrad=T DoDP/DQ/DG/TGxP=FFFF NFrqRd=   0 IEInf=0 SqF1=F DoCFld=F IF1Alg=4.
 End of G2Drv F.D. properties file   721 does not exist.
 End of G2Drv F.D. properties file   722 does not exist.
 End of G2Drv F.D. properties file   788 does not exist.
          IDoAtm=1111111111111111111111111111111111
 NEqPCM:  Using equilibrium solvation (IEInf=0, Eps=  78.3553, EpsInf=   1.7778)
          Differentiating once with respect to nuclear coordinates.
 CalDSu exits because no D1Ps are significant.
          There are   105 degrees of freedom in the 1st order CPHF.  IDoFFX=6 NUNeed=     0.
     99 vectors produced by pass  0 Test12= 2.75D-14 1.00D-09 XBig12= 2.43D-01 1.02D-01.
 AX will form    99 AO Fock derivatives at one time.
     99 vectors produced by pass  1 Test12= 2.75D-14 1.00D-09 XBig12= 4.21D-02 3.33D-02.
     99 vectors produced by pass  2 Test12= 2.75D-14 1.00D-09 XBig12= 4.69D-04 2.31D-03.
     99 vectors produced by pass  3 Test12= 2.75D-14 1.00D-09 XBig12= 1.89D-06 1.25D-04.
     99 vectors produced by pass  4 Test12= 2.75D-14 1.00D-09 XBig12= 3.75D-09 5.66D-06.
     96 vectors produced by pass  5 Test12= 2.75D-14 1.00D-09 XBig12= 4.57D-12 1.50D-07.
     36 vectors produced by pass  6 Test12= 2.75D-14 1.00D-09 XBig12= 4.09D-15 4.38D-09.
 InvSVY:  IOpt=1 It=  1 EMax= 4.44D-16
 Solved reduced A of dimension   627 with   105 vectors.
 End of Minotr F.D. properties file   721 does not exist.
 End of Minotr F.D. properties file   722 does not exist.
 End of Minotr F.D. properties file   788 does not exist.

 **********************************************************************

            Population analysis using the SCF density.

 **********************************************************************

 Orbital symmetries:
       Occupied  (A) (A) (A) (A) (A) (A) (A) (A) (A) (A) (A) (A)
                 (A) (A) (A) (A) (A) (A) (A) (A) (A) (A) (A) (A)
                 (A) (A) (A) (A) (A) (A) (A) (A) (A) (A) (A) (A)
                 (A) (A) (A) (A) (A) (A) (A) (A) (A) (A) (A) (A)
                 (A) (A) (A) (A) (A) (A) (A) (A) (A) (A) (A) (A)
                 (A) (A) (A) (A) (A) (A) (A) (A) (A) (A) (A) (A)
                 (A) (A) (A) (A) (A) (A) (A) (A) (A) (A) (A) (A)
                 (A) (A) (A) (A) (A)
       Virtual   (A) (A) (A) (A) (A) (A) (A) (A) (A) (A) (A) (A)
                 (A) (A) (A) (A) (A) (A) (A) (A) (A) (A) (A) (A)
                 (A) (A) (A) (A) (A) (A) (A) (A) (A) (A) (A) (A)
                 (A) (A) (A) (A) (A) (A) (A) (A) (A) (A) (A) (A)
                 (A) (A) (A) (A) (A) (A) (A) (A) (A) (A) (A) (A)
                 (A) (A) (A) (A) (A) (A) (A) (A) (A) (A) (A) (A)
                 (A) (A) (A) (A) (A) (A) (A) (A) (A) (A) (A) (A)
                 (A) (A) (A) (A) (A) (A) (A) (A) (A) (A) (A) (A)
                 (A) (A) (A) (A) (A) (A) (A) (A) (A) (A) (A) (A)
                 (A) (A) (A) (A) (A) (A) (A) (A) (A) (A) (A) (A)
                 (A) (A) (A) (A) (A) (A) (A) (A) (A) (A) (A) (A)
                 (A) (A) (A) (A) (A) (A) (A) (A) (A) (A) (A) (A)
                 (A) (A) (A) (A) (A) (A) (A) (A) (A) (A) (A) (A)
                 (A) (A) (A) (A) (A) (A) (A) (A) (A) (A) (A) (A)
                 (A) (A) (A) (A) (A) (A) (A) (A) (A) (A) (A) (A)
                 (A) (A) (A) (A) (A) (A) (A) (A) (A) (A) (A) (A)
                 (A) (A) (A) (A) (A) (A) (A) (A) (A) (A) (A) (A)
                 (A) (A) (A) (A) (A) (A) (A) (A) (A) (A) (A) (A)
                 (A) (A) (A) (A) (A) (A) (A) (A) (A) (A) (A) (A)
                 (A) (A) (A) (A) (A) (A) (A) (A) (A) (A) (A) (A)
                 (A) (A) (A) (A) (A) (A) (A) (A) (A) (A) (A) (A)
                 (A) (A) (A) (A) (A) (A) (A) (A) (A) (A) (A) (A)
                 (A) (A) (A) (A) (A) (A) (A) (A) (A) (A) (A) (A)
                 (A) (A) (A) (A) (A) (A) (A) (A) (A) (A) (A) (A)
                 (A) (A) (A) (A) (A) (A) (A) (A) (A) (A) (A) (A)
                 (A) (A) (A) (A) (A) (A) (A) (A) (A)
 The electronic state is 1-A.
 Alpha  occ. eigenvalues --  -89.14712 -89.14347 -19.22372 -19.21327 -19.16761
 Alpha  occ. eigenvalues --  -19.16655 -19.16535 -19.15956 -14.34766 -14.34731
 Alpha  occ. eigenvalues --  -10.24536 -10.24427 -10.24204 -10.23772 -10.21959
 Alpha  occ. eigenvalues --  -10.21754 -10.21180 -10.20925 -10.20848 -10.20765
 Alpha  occ. eigenvalues --  -10.20214 -10.20044  -8.17103  -8.16686  -6.13725
 Alpha  occ. eigenvalues --   -6.13484  -6.13349  -6.13295  -6.13085  -6.12943
 Alpha  occ. eigenvalues --   -1.16963  -1.16286  -1.05824  -1.05134  -1.03406
 Alpha  occ. eigenvalues --   -1.02949  -0.92935  -0.92790  -0.88168  -0.85269
 Alpha  occ. eigenvalues --   -0.78326  -0.77866  -0.77802  -0.72999  -0.69836
 Alpha  occ. eigenvalues --   -0.68685  -0.63751  -0.62936  -0.62545  -0.60911
 Alpha  occ. eigenvalues --   -0.57365  -0.55950  -0.53679  -0.52793  -0.52286
 Alpha  occ. eigenvalues --   -0.52222  -0.50676  -0.49672  -0.49490  -0.48806
 Alpha  occ. eigenvalues --   -0.48314  -0.46223  -0.45313  -0.45097  -0.44787
 Alpha  occ. eigenvalues --   -0.43959  -0.43890  -0.41909  -0.40758  -0.39944
 Alpha  occ. eigenvalues --   -0.39336  -0.38594  -0.38201  -0.37927  -0.36881
 Alpha  occ. eigenvalues --   -0.36668  -0.35971  -0.34746  -0.34153  -0.33460
 Alpha  occ. eigenvalues --   -0.32918  -0.32611  -0.32104  -0.31770  -0.31072
 Alpha  occ. eigenvalues --   -0.27058  -0.26834  -0.22429  -0.21778
 Alpha virt. eigenvalues --   -0.04784  -0.03349  -0.01573  -0.00411   0.03175
 Alpha virt. eigenvalues --    0.04657   0.06642   0.07575   0.08630   0.08766
 Alpha virt. eigenvalues --    0.09077   0.09398   0.09949   0.11848   0.12158
 Alpha virt. eigenvalues --    0.12266   0.12444   0.13365   0.14882   0.15100
 Alpha virt. eigenvalues --    0.16156   0.16984   0.17067   0.17400   0.19710
 Alpha virt. eigenvalues --    0.19724   0.24222   0.26070   0.26969   0.27304
 Alpha virt. eigenvalues --    0.29185   0.30976   0.31752   0.31922   0.32216
 Alpha virt. eigenvalues --    0.33439   0.33919   0.34793   0.35104   0.36677
 Alpha virt. eigenvalues --    0.37295   0.37754   0.38339   0.41141   0.41730
 Alpha virt. eigenvalues --    0.48698   0.49201   0.49983   0.50727   0.51945
 Alpha virt. eigenvalues --    0.53042   0.53597   0.53814   0.54568   0.56099
 Alpha virt. eigenvalues --    0.56835   0.57922   0.58086   0.58547   0.58793
 Alpha virt. eigenvalues --    0.59075   0.59553   0.60473   0.61183   0.62641
 Alpha virt. eigenvalues --    0.62841   0.65064   0.65461   0.66931   0.67971
 Alpha virt. eigenvalues --    0.69084   0.69181   0.72169   0.72965   0.74491
 Alpha virt. eigenvalues --    0.74798   0.75446   0.75860   0.76663   0.77694
 Alpha virt. eigenvalues --    0.78323   0.78414   0.79184   0.79856   0.80425
 Alpha virt. eigenvalues --    0.80724   0.81179   0.81600   0.83110   0.83878
 Alpha virt. eigenvalues --    0.84774   0.85050   0.85236   0.85855   0.87153
 Alpha virt. eigenvalues --    0.87503   0.88848   0.89256   0.89806   0.90143
 Alpha virt. eigenvalues --    0.91271   0.92094   0.93436   0.94973   0.95454
 Alpha virt. eigenvalues --    0.96020   0.97678   0.98148   0.99047   0.99324
 Alpha virt. eigenvalues --    1.00148   1.02012   1.02667   1.03587   1.04299
 Alpha virt. eigenvalues --    1.04689   1.06876   1.07782   1.08952   1.09914
 Alpha virt. eigenvalues --    1.11638   1.12643   1.14092   1.14656   1.15487
 Alpha virt. eigenvalues --    1.16065   1.16200   1.17782   1.18778   1.20183
 Alpha virt. eigenvalues --    1.21313   1.21772   1.23339   1.24067   1.24988
 Alpha virt. eigenvalues --    1.26542   1.28811   1.29314   1.30681   1.32388
 Alpha virt. eigenvalues --    1.34914   1.36069   1.36575   1.38064   1.38436
 Alpha virt. eigenvalues --    1.39769   1.40779   1.41239   1.42232   1.43594
 Alpha virt. eigenvalues --    1.45370   1.48150   1.50219   1.53568   1.53859
 Alpha virt. eigenvalues --    1.55006   1.57699   1.60586   1.62304   1.65713
 Alpha virt. eigenvalues --    1.68616   1.70086   1.70723   1.71719   1.73418
 Alpha virt. eigenvalues --    1.74156   1.75134   1.75802   1.75974   1.76514
 Alpha virt. eigenvalues --    1.77855   1.78332   1.78691   1.79150   1.79794
 Alpha virt. eigenvalues --    1.79936   1.80293   1.81267   1.81806   1.83752
 Alpha virt. eigenvalues --    1.84240   1.85808   1.86526   1.87359   1.88074
 Alpha virt. eigenvalues --    1.88672   1.89468   1.90901   1.91859   1.92910
 Alpha virt. eigenvalues --    1.94021   1.95998   1.96861   1.98196   1.99432
 Alpha virt. eigenvalues --    2.00240   2.02791   2.03802   2.05818   2.06862
 Alpha virt. eigenvalues --    2.07540   2.08356   2.10212   2.10478   2.11732
 Alpha virt. eigenvalues --    2.12737   2.14972   2.16135   2.16709   2.17253
 Alpha virt. eigenvalues --    2.19501   2.21006   2.23391   2.24983   2.26415
 Alpha virt. eigenvalues --    2.26596   2.27465   2.28250   2.30693   2.31123
 Alpha virt. eigenvalues --    2.32329   2.33399   2.33646   2.34577   2.35364
 Alpha virt. eigenvalues --    2.36803   2.36974   2.41672   2.42886   2.43181
 Alpha virt. eigenvalues --    2.45648   2.46164   2.47349   2.47673   2.48881
 Alpha virt. eigenvalues --    2.49261   2.49700   2.50265   2.52697   2.53202
 Alpha virt. eigenvalues --    2.55260   2.55916   2.57151   2.58976   2.60443
 Alpha virt. eigenvalues --    2.61355   2.63056   2.63907   2.64999   2.65764
 Alpha virt. eigenvalues --    2.66641   2.67886   2.69672   2.72163   2.74070
 Alpha virt. eigenvalues --    2.75574   2.76546   2.77134   2.78491   2.79091
 Alpha virt. eigenvalues --    2.81797   2.82897   2.84935   2.85691   2.95134
 Alpha virt. eigenvalues --    2.95841   2.96229   2.99927   3.00309   3.02233
 Alpha virt. eigenvalues --    3.05726   3.18101   3.18397   3.24765   3.26493
 Alpha virt. eigenvalues --    3.26708   3.26865   3.29655   3.31286   3.33888
 Alpha virt. eigenvalues --    3.37103   3.42210   3.42427   3.50592   3.50991
 Alpha virt. eigenvalues --    3.70443   3.74682   3.75178   3.78012   3.87798
 Alpha virt. eigenvalues --    3.95786   3.98744   4.00947   4.03677   4.04727
 Alpha virt. eigenvalues --    4.07930   4.09197   4.13069   4.15407   4.18129
 Alpha virt. eigenvalues --    4.21986   4.29096   4.32429   4.44733   4.46999
 Alpha virt. eigenvalues --    4.51106   4.53503   4.77849   4.83961
          Condensed to atoms (all electrons):
               1          2          3          4          5          6
     1  N    6.808236   0.309933  -0.070839   0.004254   0.000551  -0.000001
     2  C    0.309933   4.576384   0.524838  -0.017366  -0.027330   0.000324
     3  C   -0.070839   0.524838   4.949800   0.495478  -0.029313   0.006655
     4  C    0.004254  -0.017366   0.495478   4.883040   0.511266  -0.053666
     5  C    0.000551  -0.027330  -0.029313   0.511266   4.979990   0.320770
     6  C   -0.000001   0.000324   0.006655  -0.053666   0.320770   5.005724
     7  C    0.000000   0.000036   0.000047  -0.001879  -0.054633   0.511351
     8  C    0.000000  -0.000000   0.000005   0.000054   0.006770  -0.030200
     9  C   -0.000000   0.000000  -0.000000   0.000017   0.000335  -0.024695
    10  N   -0.000000  -0.000000   0.000000  -0.000000  -0.000001   0.000560
    11  C    0.000000   0.000000   0.000001   0.000038   0.007585  -0.025784
    12  C   -0.000000   0.000023   0.000076  -0.004508  -0.050988   0.419954
    13  S    0.000001  -0.000026  -0.000289   0.004785  -0.010659  -0.020692
    14  O   -0.000000   0.000000  -0.000000  -0.000002  -0.000083   0.001537
    15  O   -0.000000   0.000160  -0.000196   0.000299   0.002807  -0.007532
    16  O   -0.000000  -0.000004  -0.000180   0.000427  -0.001604  -0.001171
    17  C    0.005205  -0.026744  -0.046599  -0.031189   0.414454  -0.054110
    18  S   -0.000072   0.003393  -0.001103   0.004480  -0.016971  -0.009483
    19  O    0.000000  -0.000056  -0.000007   0.000048  -0.001737  -0.001840
    20  O    0.000000  -0.000034   0.000004   0.000061  -0.005334   0.003188
    21  O   -0.000001   0.000665  -0.000005  -0.000030   0.001399  -0.000098
    22  C   -0.068720   0.495479  -0.043001  -0.052863  -0.019378   0.007780
    23  H    0.343661  -0.023778   0.005477  -0.000177  -0.000004  -0.000000
    24  H    0.344661  -0.024461  -0.009013   0.000028  -0.000002  -0.000000
    25  H   -0.006887  -0.041034   0.365473  -0.030455   0.004072  -0.000195
    26  H   -0.000114   0.003625  -0.033597   0.369925  -0.041847  -0.006035
    27  H   -0.000000  -0.000008  -0.000051   0.001003  -0.006121  -0.042445
    28  H   -0.000000   0.000000  -0.000000  -0.000002  -0.000194   0.004025
    29  H    0.000000   0.000000   0.000000  -0.000000   0.000000   0.000007
    30  H    0.000000   0.000000   0.000000  -0.000000  -0.000000  -0.000001
    31  H   -0.000000  -0.000000  -0.000000  -0.000002  -0.000151   0.003571
    32  H    0.000000  -0.000008   0.000009   0.000004  -0.000330  -0.000135
    33  H   -0.000000   0.000002  -0.000000   0.000002   0.000110  -0.000952
    34  H   -0.007171  -0.031055   0.005144   0.000449   0.003669  -0.000145
               7          8          9         10         11         12
     1  N    0.000000   0.000000  -0.000000  -0.000000   0.000000  -0.000000
     2  C    0.000036  -0.000000   0.000000  -0.000000   0.000000   0.000023
     3  C    0.000047   0.000005  -0.000000   0.000000   0.000001   0.000076
     4  C   -0.001879   0.000054   0.000017  -0.000000   0.000038  -0.004508
     5  C   -0.054633   0.006770   0.000335  -0.000001   0.007585  -0.050988
     6  C    0.511351  -0.030200  -0.024695   0.000560  -0.025784   0.419954
     7  C    4.885513   0.496328  -0.017566   0.004261  -0.051836  -0.033930
     8  C    0.496328   4.951947   0.524913  -0.071115  -0.043667  -0.046038
     9  C   -0.017566   0.524913   4.593562   0.310263   0.473801  -0.023856
    10  N    0.004261  -0.071115   0.310263   6.810429  -0.070161   0.005252
    11  C   -0.051836  -0.043667   0.473801  -0.070161   5.053105   0.462052
    12  C   -0.033930  -0.046038  -0.023856   0.005252   0.462052   5.495159
    13  S    0.004493  -0.001277   0.002131  -0.000050  -0.036686   0.176327
    14  O   -0.000027  -0.000013   0.001044  -0.000000   0.000956  -0.061409
    15  O    0.000136   0.000001  -0.000052   0.000000   0.000445  -0.035623
    16  O    0.000013  -0.000001  -0.000116   0.000000  -0.002743  -0.062183
    17  C   -0.004937   0.000112   0.000049   0.000000  -0.000152  -0.001651
    18  S    0.003897  -0.000455  -0.000161   0.000001  -0.000263   0.001986
    19  O    0.000244  -0.000339   0.000007   0.000000   0.000011   0.000127
    20  O   -0.000966  -0.000130   0.000039  -0.000000  -0.000664  -0.003638
    21  O   -0.000005  -0.000000   0.000000  -0.000000  -0.000000   0.000006
    22  C    0.000010   0.000002  -0.000000   0.000000   0.000001  -0.000157
    23  H    0.000000  -0.000000   0.000000  -0.000000  -0.000000  -0.000000
    24  H    0.000000  -0.000000   0.000000   0.000000   0.000000  -0.000000
    25  H   -0.000003  -0.000000  -0.000000  -0.000000  -0.000000  -0.000003
    26  H    0.000983  -0.000064  -0.000000   0.000000  -0.000118   0.001720
    27  H    0.369581  -0.033338   0.003685  -0.000115   0.000591   0.006348
    28  H   -0.030509   0.365353  -0.041033  -0.006873   0.005276   0.000699
    29  H   -0.000190   0.005498  -0.023259   0.343340  -0.009206  -0.000057
    30  H    0.000002  -0.008975  -0.024254   0.344549   0.005431  -0.000201
    31  H    0.000468   0.005195  -0.032968  -0.007263   0.365117  -0.037792
    32  H    0.000005   0.000004   0.000002  -0.000000  -0.000018  -0.000176
    33  H    0.000462   0.000431   0.000114  -0.000013   0.000708   0.000117
    34  H   -0.000004  -0.000000   0.000000   0.000000  -0.000000   0.000000
              13         14         15         16         17         18
     1  N    0.000001  -0.000000  -0.000000  -0.000000   0.005205  -0.000072
     2  C   -0.000026   0.000000   0.000160  -0.000004  -0.026744   0.003393
     3  C   -0.000289  -0.000000  -0.000196  -0.000180  -0.046599  -0.001103
     4  C    0.004785  -0.000002   0.000299   0.000427  -0.031189   0.004480
     5  C   -0.010659  -0.000083   0.002807  -0.001604   0.414454  -0.016971
     6  C   -0.020692   0.001537  -0.007532  -0.001171  -0.054110  -0.009483
     7  C    0.004493  -0.000027   0.000136   0.000013  -0.004937   0.003897
     8  C   -0.001277  -0.000013   0.000001  -0.000001   0.000112  -0.000455
     9  C    0.002131   0.001044  -0.000052  -0.000116   0.000049  -0.000161
    10  N   -0.000050  -0.000000   0.000000   0.000000   0.000000   0.000001
    11  C   -0.036686   0.000956   0.000445  -0.002743  -0.000152  -0.000263
    12  C    0.176327  -0.061409  -0.035623  -0.062183  -0.001651   0.001986
    13  S   13.598721   0.448263   0.144170   0.471647   0.002194  -0.000635
    14  O    0.448263   8.235185  -0.054272  -0.041347   0.000007  -0.000009
    15  O    0.144170  -0.054272   8.274440  -0.038656  -0.003699   0.005606
    16  O    0.471647  -0.041347  -0.038656   8.192761   0.000069  -0.000012
    17  C    0.002194   0.000007  -0.003699   0.000069   5.477220   0.180804
    18  S   -0.000635  -0.000009   0.005606  -0.000012   0.180804  13.625197
    19  O   -0.000002   0.000000  -0.000006   0.000000  -0.056089   0.443753
    20  O    0.004126  -0.000141  -0.007746  -0.000003  -0.031552   0.119287
    21  O   -0.000021  -0.000000  -0.000114   0.000000  -0.067739   0.471060
    22  C   -0.000185  -0.000000  -0.001049   0.000012   0.465775  -0.037132
    23  H    0.000000  -0.000000  -0.000000  -0.000000  -0.000061   0.000002
    24  H    0.000000  -0.000000  -0.000000  -0.000000  -0.000194   0.000002
    25  H    0.000003  -0.000000  -0.000002  -0.000002   0.000682   0.000010
    26  H    0.000224   0.000001   0.000027   0.001192   0.006253   0.000002
    27  H    0.000007   0.000000   0.000003   0.000001   0.001696   0.000153
    28  H    0.000010  -0.000000  -0.000000  -0.000000  -0.000004   0.000009
    29  H   -0.000020  -0.000002  -0.000000  -0.000000   0.000000  -0.000000
    30  H   -0.000000  -0.000000  -0.000000  -0.000000   0.000000  -0.000000
    31  H   -0.004716   0.008678   0.000081  -0.000160  -0.000001  -0.000001
    32  H    0.002471   0.001454   0.281291   0.001279   0.000511  -0.000346
    33  H    0.000002   0.000006   0.000247   0.000000   0.001430   0.000703
    34  H   -0.000003  -0.000000  -0.000015   0.000000  -0.037124  -0.005420
              19         20         21         22         23         24
     1  N    0.000000   0.000000  -0.000001  -0.068720   0.343661   0.344661
     2  C   -0.000056  -0.000034   0.000665   0.495479  -0.023778  -0.024461
     3  C   -0.000007   0.000004  -0.000005  -0.043001   0.005477  -0.009013
     4  C    0.000048   0.000061  -0.000030  -0.052863  -0.000177   0.000028
     5  C   -0.001737  -0.005334   0.001399  -0.019378  -0.000004  -0.000002
     6  C   -0.001840   0.003188  -0.000098   0.007780  -0.000000  -0.000000
     7  C    0.000244  -0.000966  -0.000005   0.000010   0.000000   0.000000
     8  C   -0.000339  -0.000130  -0.000000   0.000002  -0.000000  -0.000000
     9  C    0.000007   0.000039   0.000000  -0.000000   0.000000   0.000000
    10  N    0.000000  -0.000000  -0.000000   0.000000  -0.000000   0.000000
    11  C    0.000011  -0.000664  -0.000000   0.000001  -0.000000   0.000000
    12  C    0.000127  -0.003638   0.000006  -0.000157  -0.000000  -0.000000
    13  S   -0.000002   0.004126  -0.000021  -0.000185   0.000000   0.000000
    14  O    0.000000  -0.000141  -0.000000  -0.000000  -0.000000  -0.000000
    15  O   -0.000006  -0.007746  -0.000114  -0.001049  -0.000000  -0.000000
    16  O    0.000000  -0.000003   0.000000   0.000012  -0.000000  -0.000000
    17  C   -0.056089  -0.031552  -0.067739   0.465775  -0.000061  -0.000194
    18  S    0.443753   0.119287   0.471060  -0.037132   0.000002   0.000002
    19  O    8.245803  -0.049711  -0.042051  -0.002646   0.000000  -0.000000
    20  O   -0.049711   8.304293  -0.051295   0.000684  -0.000000  -0.000000
    21  O   -0.042051  -0.051295   8.187350   0.001481  -0.000005  -0.000000
    22  C   -0.002646   0.000684   0.001481   5.020478  -0.009127   0.005421
    23  H    0.000000  -0.000000  -0.000005  -0.009127   0.420947  -0.027345
    24  H   -0.000000  -0.000000  -0.000000   0.005421  -0.027345   0.419758
    25  H   -0.000000  -0.000000  -0.000000   0.005228  -0.000038   0.004197
    26  H    0.000001   0.000002   0.000000   0.000582   0.000003  -0.000005
    27  H    0.001735   0.000009   0.000001  -0.000128   0.000000  -0.000000
    28  H   -0.000006  -0.000002  -0.000000  -0.000000   0.000000   0.000000
    29  H   -0.000000  -0.000000  -0.000000  -0.000000   0.000000   0.000000
    30  H    0.000000   0.000000  -0.000000  -0.000000   0.000000   0.000000
    31  H   -0.000000  -0.000010  -0.000000  -0.000000  -0.000000  -0.000000
    32  H    0.000044   0.014904   0.000064   0.000073   0.000000   0.000000
    33  H    0.005584   0.287128   0.000452  -0.000041   0.000000   0.000000
    34  H   -0.000180   0.000075   0.008604   0.363570   0.004182  -0.000038
              25         26         27         28         29         30
     1  N   -0.006887  -0.000114  -0.000000  -0.000000   0.000000   0.000000
     2  C   -0.041034   0.003625  -0.000008   0.000000   0.000000   0.000000
     3  C    0.365473  -0.033597  -0.000051  -0.000000   0.000000   0.000000
     4  C   -0.030455   0.369925   0.001003  -0.000002  -0.000000  -0.000000
     5  C    0.004072  -0.041847  -0.006121  -0.000194   0.000000  -0.000000
     6  C   -0.000195  -0.006035  -0.042445   0.004025   0.000007  -0.000001
     7  C   -0.000003   0.000983   0.369581  -0.030509  -0.000190   0.000002
     8  C   -0.000000  -0.000064  -0.033338   0.365353   0.005498  -0.008975
     9  C   -0.000000  -0.000000   0.003685  -0.041033  -0.023259  -0.024254
    10  N   -0.000000   0.000000  -0.000115  -0.006873   0.343340   0.344549
    11  C   -0.000000  -0.000118   0.000591   0.005276  -0.009206   0.005431
    12  C   -0.000003   0.001720   0.006348   0.000699  -0.000057  -0.000201
    13  S    0.000003   0.000224   0.000007   0.000010  -0.000020  -0.000000
    14  O   -0.000000   0.000001   0.000000  -0.000000  -0.000002  -0.000000
    15  O   -0.000002   0.000027   0.000003  -0.000000  -0.000000  -0.000000
    16  O   -0.000002   0.001192   0.000001  -0.000000  -0.000000  -0.000000
    17  C    0.000682   0.006253   0.001696  -0.000004   0.000000   0.000000
    18  S    0.000010   0.000002   0.000153   0.000009  -0.000000  -0.000000
    19  O   -0.000000   0.000001   0.001735  -0.000006  -0.000000   0.000000
    20  O   -0.000000   0.000002   0.000009  -0.000002  -0.000000   0.000000
    21  O   -0.000000   0.000000   0.000001  -0.000000  -0.000000  -0.000000
    22  C    0.005228   0.000582  -0.000128  -0.000000  -0.000000  -0.000000
    23  H   -0.000038   0.000003   0.000000   0.000000   0.000000   0.000000
    24  H    0.004197  -0.000005  -0.000000   0.000000   0.000000   0.000000
    25  H    0.586137  -0.005786   0.000000   0.000000  -0.000000  -0.000000
    26  H   -0.005786   0.581509   0.000111   0.000000   0.000000   0.000000
    27  H    0.000000   0.000111   0.582579  -0.005828   0.000003  -0.000005
    28  H    0.000000   0.000000  -0.005828   0.587887  -0.000039   0.004173
    29  H   -0.000000   0.000000   0.000003  -0.000039   0.421287  -0.027420
    30  H   -0.000000   0.000000  -0.000005   0.004173  -0.027420   0.419945
    31  H    0.000000   0.000000   0.000013  -0.000168   0.004202  -0.000048
    32  H    0.000000  -0.000002  -0.000000   0.000000   0.000000  -0.000000
    33  H    0.000000  -0.000000  -0.000009   0.000003   0.000000   0.000000
    34  H   -0.000167   0.000013   0.000001   0.000000   0.000000   0.000000
              31         32         33         34
     1  N   -0.000000   0.000000  -0.000000  -0.007171
     2  C   -0.000000  -0.000008   0.000002  -0.031055
     3  C   -0.000000   0.000009  -0.000000   0.005144
     4  C   -0.000002   0.000004   0.000002   0.000449
     5  C   -0.000151  -0.000330   0.000110   0.003669
     6  C    0.003571  -0.000135  -0.000952  -0.000145
     7  C    0.000468   0.000005   0.000462  -0.000004
     8  C    0.005195   0.000004   0.000431  -0.000000
     9  C   -0.032968   0.000002   0.000114   0.000000
    10  N   -0.007263  -0.000000  -0.000013   0.000000
    11  C    0.365117  -0.000018   0.000708  -0.000000
    12  C   -0.037792  -0.000176   0.000117   0.000000
    13  S   -0.004716   0.002471   0.000002  -0.000003
    14  O    0.008678   0.001454   0.000006  -0.000000
    15  O    0.000081   0.281291   0.000247  -0.000015
    16  O   -0.000160   0.001279   0.000000   0.000000
    17  C   -0.000001   0.000511   0.001430  -0.037124
    18  S   -0.000001  -0.000346   0.000703  -0.005420
    19  O   -0.000000   0.000044   0.005584  -0.000180
    20  O   -0.000010   0.014904   0.287128   0.000075
    21  O   -0.000000   0.000064   0.000452   0.008604
    22  C   -0.000000   0.000073  -0.000041   0.363570
    23  H   -0.000000   0.000000   0.000000   0.004182
    24  H   -0.000000   0.000000   0.000000  -0.000038
    25  H    0.000000   0.000000   0.000000  -0.000167
    26  H    0.000000  -0.000002  -0.000000   0.000013
    27  H    0.000013  -0.000000  -0.000009   0.000001
    28  H   -0.000168   0.000000   0.000003   0.000000
    29  H    0.004202   0.000000   0.000000   0.000000
    30  H   -0.000048  -0.000000   0.000000   0.000000
    31  H    0.563477  -0.000001   0.000004   0.000000
    32  H   -0.000001   0.316081  -0.000258   0.000003
    33  H    0.000004  -0.000258   0.313467  -0.000004
    34  H    0.000000   0.000003  -0.000004   0.560947
 Mulliken charges:
               1
     1  N   -0.662696
     2  C    0.277042
     3  C   -0.118813
     4  C   -0.083516
     5  C    0.012901
     6  C   -0.006263
     7  C   -0.081344
     8  C   -0.121002
     9  C    0.277998
    10  N   -0.663064
    11  C   -0.133822
    12  C   -0.207635
    13  S    1.215686
    14  O   -0.539826
    15  O   -0.560751
    16  O   -0.519219
    17  C   -0.194616
    18  S    1.211716
    19  O   -0.542688
    20  O   -0.582576
    21  O   -0.509718
    22  C   -0.132148
    23  H    0.286264
    24  H    0.286990
    25  H    0.118771
    26  H    0.121395
    27  H    0.120529
    28  H    0.117224
    29  H    0.285857
    30  H    0.286804
    31  H    0.132475
    32  H    0.383077
    33  H    0.390304
    34  H    0.134666
 Sum of Mulliken charges =  -0.00000
 Mulliken charges with hydrogens summed into heavy atoms:
               1
     1  N   -0.089442
     2  C    0.277042
     3  C   -0.000043
     4  C    0.037879
     5  C    0.012901
     6  C   -0.006263
     7  C    0.039185
     8  C   -0.003778
     9  C    0.277998
    10  N   -0.090404
    11  C   -0.001347
    12  C   -0.207635
    13  S    1.215686
    14  O   -0.539826
    15  O   -0.177674
    16  O   -0.519219
    17  C   -0.194616
    18  S    1.211716
    19  O   -0.542688
    20  O   -0.192272
    21  O   -0.509718
    22  C    0.002518
 APT charges:
               1
     1  N   -1.316557
     2  C    0.182577
     3  C   -0.391799
     4  C   -0.553892
     5  C   -0.523245
     6  C   -0.494815
     7  C   -0.574287
     8  C   -0.379156
     9  C    0.215197
    10  N   -1.528894
    11  C   -0.430343
    12  C   -0.401943
    13  S    0.041755
    14  O    0.063778
    15  O   -0.580798
    16  O   -0.114368
    17  C   -0.392438
    18  S    0.018134
    19  O   -0.194261
    20  O   -0.773091
    21  O    0.151711
    22  C   -0.436071
    23  H    0.742491
    24  H    0.907402
    25  H    0.761534
    26  H    0.458957
    27  H    0.448196
    28  H    0.741811
    29  H    0.839538
    30  H    0.992882
    31  H    0.633276
    32  H    0.521983
    33  H    0.721212
    34  H    0.643526
 Sum of APT charges =  -0.00000
 APT charges with hydrogens summed into heavy atoms:
               1
     1  N    0.333335
     2  C    0.182577
     3  C    0.369734
     4  C   -0.094935
     5  C   -0.523245
     6  C   -0.494815
     7  C   -0.126091
     8  C    0.362655
     9  C    0.215197
    10  N    0.303526
    11  C    0.202932
    12  C   -0.401943
    13  S    0.041755
    14  O    0.063778
    15  O   -0.058815
    16  O   -0.114368
    17  C   -0.392438
    18  S    0.018134
    19  O   -0.194261
    20  O   -0.051879
    21  O    0.151711
    22  C    0.207455
 Electronic spatial extent (au):  <R**2>=           6576.4976
 Charge=             -0.0000 electrons
 Dipole moment (field-independent basis, Debye):
    X=             -1.6460    Y=             -1.1605    Z=             -4.5520  Tot=              4.9776
 Quadrupole moment (field-independent basis, Debye-Ang):
   XX=            -95.2719   YY=           -156.9421   ZZ=           -136.7201
   XY=             26.4883   XZ=              7.6687   YZ=             -3.6273
 Traceless Quadrupole moment (field-independent basis, Debye-Ang):
   XX=             34.3728   YY=            -27.2974   ZZ=             -7.0754
   XY=             26.4883   XZ=              7.6687   YZ=             -3.6273
 Octapole moment (field-independent basis, Debye-Ang**2):
  XXX=            -20.7231  YYY=            -10.5768  ZZZ=             10.9259  XYY=             11.1826
  XXY=             36.5902  XXZ=            -58.2415  XZZ=            -27.0384  YZZ=             -7.4259
  YYZ=            -25.3866  XYZ=            -10.3235
 Hexadecapole moment (field-independent basis, Debye-Ang**3):
 XXXX=          -3245.1237 YYYY=          -2376.1448 ZZZZ=          -1401.9649 XXXY=            320.9948
 XXXZ=            323.2785 YYYX=            156.3889 YYYZ=            -35.4407 ZZZX=             36.5113
 ZZZY=              5.0995 XXYY=          -1078.3038 XXZZ=          -1023.9702 YYZZ=           -566.0767
 XXYZ=              7.2042 YYXZ=            -18.9400 ZZXY=            132.4381
 N-N= 2.337038223843D+03 E-N=-8.958284175034D+03  KE= 1.809440815373D+03
  Exact polarizability:   0.000   0.000   0.000   0.000   0.000   0.000
 Approx polarizability: 405.202  32.343 276.001   0.638  -3.295 241.878
 D2PCM: PCM CHGder 2nd derivatives, FixD1E=F FixD2E=F DoIter=F DoCFld=F I1PDM=0
 Calling FoFJK, ICntrl=    100147 FMM=F ISym2X=0 I1Cent= 0 IOpClX= 0 NMat=1 NMatS=1 NMatT=0.
 ***** Axes restored to original set *****
 -------------------------------------------------------------------
 Center     Atomic                   Forces (Hartrees/Bohr)
 Number     Number              X              Y              Z
 -------------------------------------------------------------------
      1        7           0.004262496    0.002838362    0.005335073
      2        6          -0.016888749   -0.008214902   -0.010936884
      3        6           0.018070344   -0.004395896   -0.001040880
      4        6          -0.010857477   -0.002900468    0.003879104
      5        6          -0.006756534   -0.008797004    0.002906481
      6        6           0.007130624    0.003970229   -0.009334056
      7        6           0.009437189    0.003327714   -0.003773439
      8        6          -0.015889057   -0.008797100   -0.005527378
      9        6           0.007414754    0.017536160   -0.004560832
     10        7           0.001483029   -0.007309084    0.000482999
     11        6          -0.002457057   -0.008251296    0.017652296
     12        6           0.003048024    0.008895006   -0.014556566
     13       16           0.002173367    0.014718835   -0.021863574
     14        8           0.020741240    0.006032801    0.011957182
     15        8          -0.008310930   -0.003102638    0.005154269
     16        8          -0.006429681   -0.016061683    0.014272967
     17        6          -0.000032742   -0.014531032    0.011850842
     18       16          -0.004457426   -0.013893572    0.004899769
     19        8          -0.002273551    0.011237130   -0.025865690
     20        8           0.011698279    0.008476381   -0.002722263
     21        8          -0.014998555    0.008558011    0.007457790
     22        6           0.005010471    0.018390471    0.000579875
     23        1           0.000828775   -0.003497556   -0.000663553
     24        1          -0.001764768    0.003216718   -0.000573420
     25        1          -0.000803072    0.001104640    0.000979372
     26        1          -0.001348219    0.004756616   -0.000168377
     27        1           0.002008195    0.000326051    0.004929915
     28        1           0.001374957   -0.000745022    0.001061888
     29        1          -0.002011089    0.000863388   -0.003204880
     30        1           0.000924369    0.000588975    0.003624371
     31        1          -0.003492522   -0.000507886   -0.000318828
     32        1           0.000594990   -0.007018979   -0.001280931
     33        1          -0.000850544   -0.006550050    0.008295824
     34        1           0.003420870   -0.000263319    0.001071536
 -------------------------------------------------------------------
 Cartesian Forces:  Max     0.025865690 RMS     0.008543623
 FormGI is forming the generalized inverse of G from B-inverse, IUseBI=4.

 GradGradGradGradGradGradGradGradGradGradGradGradGradGradGradGradGradGrad
 Berny optimization.
 Internal  Forces:  Max     0.027394576 RMS     0.005940002
 Search for a local minimum.
 Step number   1 out of a maximum of  179
 All quantities printed in internal units (Hartrees-Bohrs-Radians)
 Mixed Optimization -- RFO/linear search
 Second derivative matrix not updated -- analytic derivatives used.
 ITU=  0
     Eigenvalues ---    0.00003   0.00116   0.00293   0.00426   0.00570
     Eigenvalues ---    0.00578   0.00947   0.01209   0.01567   0.01572
     Eigenvalues ---    0.01751   0.01761   0.01805   0.01866   0.01964
     Eigenvalues ---    0.02075   0.02097   0.02123   0.02272   0.02292
     Eigenvalues ---    0.02550   0.02615   0.02636   0.02862   0.02921
     Eigenvalues ---    0.03065   0.09021   0.11468   0.11552   0.11749
     Eigenvalues ---    0.11885   0.11910   0.12431   0.12490   0.12777
     Eigenvalues ---    0.13002   0.13514   0.13548   0.13707   0.15270
     Eigenvalues ---    0.15351   0.15549   0.16219   0.16646   0.16845
     Eigenvalues ---    0.17631   0.18314   0.18492   0.18753   0.19115
     Eigenvalues ---    0.19218   0.19376   0.19837   0.20208   0.21277
     Eigenvalues ---    0.21401   0.21899   0.22307   0.26188   0.28375
     Eigenvalues ---    0.28680   0.28915   0.32032   0.32845   0.33598
     Eigenvalues ---    0.34978   0.35260   0.35361   0.35410   0.35719
     Eigenvalues ---    0.35780   0.36122   0.36345   0.39250   0.40038
     Eigenvalues ---    0.41118   0.42091   0.44284   0.45257   0.45376
     Eigenvalues ---    0.45650   0.45761   0.46130   0.46520   0.46850
     Eigenvalues ---    0.46984   0.47222   0.47583   0.51214   0.51451
     Eigenvalues ---    0.55246   0.67067   0.67356   0.67769   0.67922
     Eigenvalues ---    0.72150
 RFO step:  Lambda=-1.97141894D-02 EMin= 2.71429668D-05
 Linear search not attempted -- first point.
 Iteration  1 RMS(Cart)=  0.07278456 RMS(Int)=  0.00221764
 Iteration  2 RMS(Cart)=  0.00358616 RMS(Int)=  0.00030519
 Iteration  3 RMS(Cart)=  0.00001089 RMS(Int)=  0.00030509
 Iteration  4 RMS(Cart)=  0.00000000 RMS(Int)=  0.00030509
 Variable       Old X    -DE/DX   Delta X   Delta X   Delta X     New X
                                 (Linear)    (Quad)   (Total)
    R1        2.64142  -0.00290   0.00000  -0.02138  -0.02138   2.62005
    R2        1.91999  -0.00306   0.00000  -0.00759  -0.00759   1.91240
    R3        1.92001  -0.00320   0.00000  -0.00756  -0.00756   1.91245
    R4        2.63354   0.00889   0.00000   0.02153   0.02154   2.65508
    R5        2.63300   0.00798   0.00000   0.02230   0.02234   2.65535
    R6        2.64391  -0.00719   0.00000  -0.01728  -0.01731   2.62660
    R7        2.05511  -0.00089   0.00000  -0.00267  -0.00267   2.05244
    R8        2.65503  -0.00079   0.00000  -0.00385  -0.00389   2.65114
    R9        2.05971  -0.00402   0.00000  -0.00953  -0.00953   2.05017
   R10        2.77767   0.01890   0.00000   0.04124   0.04124   2.81891
   R11        2.66039   0.00666   0.00000   0.00201   0.00200   2.66239
   R12        2.65694  -0.00080   0.00000  -0.00325  -0.00330   2.65364
   R13        2.65818   0.00655   0.00000   0.00321   0.00321   2.66139
   R14        2.64312  -0.00706   0.00000  -0.01733  -0.01737   2.62574
   R15        2.06124  -0.00459   0.00000  -0.01125  -0.01125   2.05000
   R16        2.63247   0.00949   0.00000   0.02309   0.02310   2.65556
   R17        2.05586  -0.00114   0.00000  -0.00335  -0.00335   2.05251
   R18        2.63903  -0.00243   0.00000  -0.02025  -0.02025   2.61878
   R19        2.63297   0.00892   0.00000   0.02254   0.02258   2.65555
   R20        1.92075  -0.00350   0.00000  -0.00856  -0.00856   1.91219
   R21        1.92041  -0.00353   0.00000  -0.00828  -0.00828   1.91213
   R22        2.65757  -0.00965   0.00000  -0.02295  -0.02290   2.63467
   R23        2.05777  -0.00305   0.00000  -0.00932  -0.00932   2.04845
   R24        3.36665   0.00859   0.00000   0.02571   0.02571   3.39236
   R25        2.73691   0.02273   0.00000   0.02898   0.02898   2.76589
   R26        3.04886   0.00375   0.00000   0.01330   0.01330   3.06216
   R27        2.73098   0.01864   0.00000   0.02849   0.02849   2.75947
   R28        1.85837  -0.00682   0.00000  -0.01148  -0.01148   1.84689
   R29        3.35540   0.00819   0.00000   0.02895   0.02895   3.38435
   R30        2.65598  -0.00850   0.00000  -0.02159  -0.02156   2.63442
   R31        2.73177   0.02739   0.00000   0.03527   0.03527   2.76704
   R32        3.06205   0.01220   0.00000   0.03972   0.03972   3.10177
   R33        2.73337   0.01832   0.00000   0.02557   0.02557   2.75893
   R34        1.86324  -0.00985   0.00000  -0.02159  -0.02159   1.84166
   R35        2.05683  -0.00267   0.00000  -0.00846  -0.00846   2.04836
    A1        1.99250   0.00197   0.00000   0.02124   0.02087   2.01337
    A2        1.98786   0.00163   0.00000   0.02138   0.02100   2.00886
    A3        1.95256  -0.00232   0.00000  -0.00512  -0.00566   1.94690
    A4        2.10004   0.00324   0.00000   0.01717   0.01629   2.11634
    A5        2.09961   0.00067   0.00000   0.00638   0.00545   2.10506
    A6        2.06869  -0.00337   0.00000  -0.01096  -0.01183   2.05686
    A7        2.10984  -0.00096   0.00000  -0.00132  -0.00134   2.10850
    A8        2.09866  -0.00076   0.00000  -0.00997  -0.00996   2.08869
    A9        2.07467   0.00172   0.00000   0.01132   0.01132   2.08599
   A10        2.11692   0.00560   0.00000   0.02032   0.02026   2.13718
   A11        2.06643   0.00016   0.00000   0.01033   0.01036   2.07679
   A12        2.09983  -0.00576   0.00000  -0.03065  -0.03062   2.06921
   A13        2.06757  -0.00236   0.00000   0.01321   0.01319   2.08076
   A14        2.04743  -0.00487   0.00000  -0.02364  -0.02370   2.02372
   A15        2.16741   0.00718   0.00000   0.00999   0.01000   2.17740
   A16        2.06527  -0.00171   0.00000   0.01186   0.01173   2.07700
   A17        2.17108   0.00542   0.00000   0.00976   0.00965   2.18073
   A18        2.04683  -0.00371   0.00000  -0.02165  -0.02170   2.02513
   A19        2.11872   0.00488   0.00000   0.01852   0.01850   2.13722
   A20        2.09798  -0.00518   0.00000  -0.02846  -0.02848   2.06950
   A21        2.06633   0.00031   0.00000   0.01014   0.01012   2.07645
   A22        2.10904  -0.00116   0.00000  -0.00134  -0.00130   2.10774
   A23        2.07480   0.00183   0.00000   0.01193   0.01191   2.08671
   A24        2.09934  -0.00067   0.00000  -0.01058  -0.01060   2.08874
   A25        2.09972   0.00291   0.00000   0.01527   0.01440   2.11412
   A26        2.06796  -0.00319   0.00000  -0.01078  -0.01153   2.05644
   A27        2.09919   0.00093   0.00000   0.00824   0.00734   2.10653
   A28        1.99794   0.00172   0.00000   0.01950   0.01919   2.01714
[...]
   140    N   10  px     Val( 2p)     1.31790
   141    N   10  px     Ryd( 3p)     0.00209
   142    N   10  py     Val( 2p)     1.50901
   143    N   10  py     Ryd( 3p)     0.00246
   144    N   10  pz     Val( 2p)     1.52532
   145    N   10  pz     Ryd( 3p)     0.00243
   146    N   10  dxy    Ryd( 3d)     0.00077
   147    N   10  dxz    Ryd( 3d)     0.00040
   148    N   10  dyz    Ryd( 3d)     0.00063
   149    N   10  dx2y2  Ryd( 3d)     0.00041
   150    N   10  dz2    Ryd( 3d)     0.00067

   151    C   11  S      Cor( 1S)     1.99896
   152    C   11  S      Val( 2S)     0.95468
   153    C   11  S      Ryd( 3S)     0.00110
   154    C   11  S      Ryd( 4S)     0.00006
   155    C   11  px     Val( 2p)     1.13212
   156    C   11  px     Ryd( 3p)     0.00458
   157    C   11  py     Val( 2p)     1.06370
   158    C   11  py     Ryd( 3p)     0.00394
   159    C   11  pz     Val( 2p)     1.06858
   160    C   11  pz     Ryd( 3p)     0.00368
   161    C   11  dxy    Ryd( 3d)     0.00054
   162    C   11  dxz    Ryd( 3d)     0.00060
   163    C   11  dyz    Ryd( 3d)     0.00049
   164    C   11  dx2y2  Ryd( 3d)     0.00054
   165    C   11  dz2    Ryd( 3d)     0.00042

   166    C   12  S      Cor( 1S)     1.99862
   167    C   12  S      Val( 2S)     0.96371
   168    C   12  S      Ryd( 3S)     0.00267
   169    C   12  S      Ryd( 4S)     0.00007
   170    C   12  px     Val( 2p)     1.10778
   171    C   12  px     Ryd( 3p)     0.00789
   172    C   12  py     Val( 2p)     1.12256
   173    C   12  py     Ryd( 3p)     0.00632
   174    C   12  pz     Val( 2p)     1.13392
   175    C   12  pz     Ryd( 3p)     0.00680
   176    C   12  dxy    Ryd( 3d)     0.00062
   177    C   12  dxz    Ryd( 3d)     0.00069
   178    C   12  dyz    Ryd( 3d)     0.00060
   179    C   12  dx2y2  Ryd( 3d)     0.00068
   180    C   12  dz2    Ryd( 3d)     0.00049

   181    S   13  S      Cor( 1S)     2.00000
   182    S   13  S      Cor( 2S)     1.99908
   183    S   13  S      Val( 3S)     1.03697
   184    S   13  S      Ryd( 4S)     0.00616
   185    S   13  S      Ryd( 5S)     0.00023
   186    S   13  px     Cor( 2p)     1.99989
   187    S   13  px     Val( 3p)     0.72973
   188    S   13  px     Ryd( 4p)     0.01235
   189    S   13  py     Cor( 2p)     1.99991
   190    S   13  py     Val( 3p)     0.82559
   191    S   13  py     Ryd( 4p)     0.01231
   192    S   13  pz     Cor( 2p)     1.99991
   193    S   13  pz     Val( 3p)     0.80012
   194    S   13  pz     Ryd( 4p)     0.01194
   195    S   13  dxy    Ryd( 3d)     0.02978
   196    S   13  dxz    Ryd( 3d)     0.03204
   197    S   13  dyz    Ryd( 3d)     0.03592
   198    S   13  dx2y2  Ryd( 3d)     0.03357
   199    S   13  dz2    Ryd( 3d)     0.03013

   200    O   14  S      Cor( 1S)     1.99988
   201    O   14  S      Val( 2S)     1.82865
   202    O   14  S      Ryd( 3S)     0.00130
   203    O   14  S      Ryd( 4S)     0.00006
   204    O   14  px     Val( 2p)     1.62928
   205    O   14  px     Ryd( 3p)     0.00067
   206    O   14  py     Val( 2p)     1.80386
   207    O   14  py     Ryd( 3p)     0.00075
   208    O   14  pz     Val( 2p)     1.68114
   209    O   14  pz     Ryd( 3p)     0.00057
   210    O   14  dxy    Ryd( 3d)     0.00321
   211    O   14  dxz    Ryd( 3d)     0.00500
   212    O   14  dyz    Ryd( 3d)     0.00218
   213    O   14  dx2y2  Ryd( 3d)     0.00311
   214    O   14  dz2    Ryd( 3d)     0.00397

   215    O   15  S      Cor( 1S)     1.99985
   216    O   15  S      Val( 2S)     1.76643
   217    O   15  S      Ryd( 3S)     0.00213
   218    O   15  S      Ryd( 4S)     0.00004
   219    O   15  px     Val( 2p)     1.68715
   220    O   15  px     Ryd( 3p)     0.00086
   221    O   15  py     Val( 2p)     1.67816
   222    O   15  py     Ryd( 3p)     0.00110
   223    O   15  pz     Val( 2p)     1.79483
   224    O   15  pz     Ryd( 3p)     0.00110
   225    O   15  dxy    Ryd( 3d)     0.00157
   226    O   15  dxz    Ryd( 3d)     0.00127
   227    O   15  dyz    Ryd( 3d)     0.00076
   228    O   15  dx2y2  Ryd( 3d)     0.00132
   229    O   15  dz2    Ryd( 3d)     0.00086

   230    O   16  S      Cor( 1S)     1.99988
   231    O   16  S      Val( 2S)     1.82927
   232    O   16  S      Ryd( 3S)     0.00150
   233    O   16  S      Ryd( 4S)     0.00006
   234    O   16  px     Val( 2p)     1.76377
   235    O   16  px     Ryd( 3p)     0.00072
   236    O   16  py     Val( 2p)     1.62903
   237    O   16  py     Ryd( 3p)     0.00061
   238    O   16  pz     Val( 2p)     1.71131
   239    O   16  pz     Ryd( 3p)     0.00085
   240    O   16  dxy    Ryd( 3d)     0.00376
   241    O   16  dxz    Ryd( 3d)     0.00184
   242    O   16  dyz    Ryd( 3d)     0.00478
   243    O   16  dx2y2  Ryd( 3d)     0.00384
   244    O   16  dz2    Ryd( 3d)     0.00342

   245    C   17  S      Cor( 1S)     1.99862
   246    C   17  S      Val( 2S)     0.94593
   247    C   17  S      Ryd( 3S)     0.00261
   248    C   17  S      Ryd( 4S)     0.00007
   249    C   17  px     Val( 2p)     1.11045
   250    C   17  px     Ryd( 3p)     0.00821
   251    C   17  py     Val( 2p)     1.14168
   252    C   17  py     Ryd( 3p)     0.00676
   253    C   17  pz     Val( 2p)     1.16813
   254    C   17  pz     Ryd( 3p)     0.00736
   255    C   17  dxy    Ryd( 3d)     0.00061
   256    C   17  dxz    Ryd( 3d)     0.00072
   257    C   17  dyz    Ryd( 3d)     0.00059
   258    C   17  dx2y2  Ryd( 3d)     0.00071
   259    C   17  dz2    Ryd( 3d)     0.00061

   260    S   18  S      Cor( 1S)     2.00000
   261    S   18  S      Cor( 2S)     1.99911
   262    S   18  S      Val( 3S)     1.04674
   263    S   18  S      Ryd( 4S)     0.00529
   264    S   18  S      Ryd( 5S)     0.00020
   265    S   18  px     Cor( 2p)     1.99988
   266    S   18  px     Val( 3p)     0.73071
   267    S   18  px     Ryd( 4p)     0.01068
   268    S   18  py     Cor( 2p)     1.99991
   269    S   18  py     Val( 3p)     0.84097
   270    S   18  py     Ryd( 4p)     0.01440
   271    S   18  pz     Cor( 2p)     1.99990
   272    S   18  pz     Val( 3p)     0.82171
   273    S   18  pz     Ryd( 4p)     0.01282
   274    S   18  dxy    Ryd( 3d)     0.02927
   275    S   18  dxz    Ryd( 3d)     0.03209
   276    S   18  dyz    Ryd( 3d)     0.03328
   277    S   18  dx2y2  Ryd( 3d)     0.03404
   278    S   18  dz2    Ryd( 3d)     0.02827

   279    O   19  S      Cor( 1S)     1.99988
   280    O   19  S      Val( 2S)     1.82949
   281    O   19  S      Ryd( 3S)     0.00169
   282    O   19  S      Ryd( 4S)     0.00009
   283    O   19  px     Val( 2p)     1.73542
   284    O   19  px     Ryd( 3p)     0.00055
   285    O   19  py     Val( 2p)     1.65804
   286    O   19  py     Ryd( 3p)     0.00055
   287    O   19  pz     Val( 2p)     1.71834
   288    O   19  pz     Ryd( 3p)     0.00081
   289    O   19  dxy    Ryd( 3d)     0.00389
   290    O   19  dxz    Ryd( 3d)     0.00231
   291    O   19  dyz    Ryd( 3d)     0.00433
   292    O   19  dx2y2  Ryd( 3d)     0.00396
   293    O   19  dz2    Ryd( 3d)     0.00328

   294    O   20  S      Cor( 1S)     1.99988
   295    O   20  S      Val( 2S)     1.78611
   296    O   20  S      Ryd( 3S)     0.00320
   297    O   20  S      Ryd( 4S)     0.00003
   298    O   20  px     Val( 2p)     1.56621
   299    O   20  px     Ryd( 3p)     0.00212
   300    O   20  py     Val( 2p)     1.78975
   301    O   20  py     Ryd( 3p)     0.00101
   302    O   20  pz     Val( 2p)     1.81289
   303    O   20  pz     Ryd( 3p)     0.00087
   304    O   20  dxy    Ryd( 3d)     0.00083
   305    O   20  dxz    Ryd( 3d)     0.00064
   306    O   20  dyz    Ryd( 3d)     0.00124
   307    O   20  dx2y2  Ryd( 3d)     0.00077
   308    O   20  dz2    Ryd( 3d)     0.00125

   309    O   21  S      Cor( 1S)     1.99988
   310    O   21  S      Val( 2S)     1.82413
   311    O   21  S      Ryd( 3S)     0.00134
   312    O   21  S      Ryd( 4S)     0.00006
   313    O   21  px     Val( 2p)     1.61289
   314    O   21  px     Ryd( 3p)     0.00075
   315    O   21  py     Val( 2p)     1.79722
   316    O   21  py     Ryd( 3p)     0.00064
   317    O   21  pz     Val( 2p)     1.70419
   318    O   21  pz     Ryd( 3p)     0.00071
   319    O   21  dxy    Ryd( 3d)     0.00368
   320    O   21  dxz    Ryd( 3d)     0.00495
   321    O   21  dyz    Ryd( 3d)     0.00195
   322    O   21  dx2y2  Ryd( 3d)     0.00370
   323    O   21  dz2    Ryd( 3d)     0.00362

   324    C   22  S      Cor( 1S)     1.99896
   325    C   22  S      Val( 2S)     0.94448
   326    C   22  S      Ryd( 3S)     0.00107
   327    C   22  S      Ryd( 4S)     0.00005
   328    C   22  px     Val( 2p)     1.12688
   329    C   22  px     Ryd( 3p)     0.00444
   330    C   22  py     Val( 2p)     1.09520
   331    C   22  py     Ryd( 3p)     0.00452
   332    C   22  pz     Val( 2p)     1.10661
   333    C   22  pz     Ryd( 3p)     0.00453
   334    C   22  dxy    Ryd( 3d)     0.00055
   335    C   22  dxz    Ryd( 3d)     0.00059
   336    C   22  dyz    Ryd( 3d)     0.00049
   337    C   22  dx2y2  Ryd( 3d)     0.00057
   338    C   22  dz2    Ryd( 3d)     0.00043

   339    H   23  S      Val( 1S)     0.56732
   340    H   23  S      Ryd( 2S)     0.00106
   341    H   23  px     Ryd( 2p)     0.00036
   342    H   23  py     Ryd( 2p)     0.00029
   343    H   23  pz     Ryd( 2p)     0.00055

   344    H   24  S      Val( 1S)     0.56795
   345    H   24  S      Ryd( 2S)     0.00130
   346    H   24  px     Ryd( 2p)     0.00022
   347    H   24  py     Ryd( 2p)     0.00062
   348    H   24  pz     Ryd( 2p)     0.00037

   349    H   25  S      Val( 1S)     0.75050
   350    H   25  S      Ryd( 2S)     0.00087
   351    H   25  px     Ryd( 2p)     0.00008
   352    H   25  py     Ryd( 2p)     0.00030
   353    H   25  pz     Ryd( 2p)     0.00024

   354    H   26  S      Val( 1S)     0.73994
   355    H   26  S      Ryd( 2S)     0.00094
   356    H   26  px     Ryd( 2p)     0.00023
   357    H   26  py     Ryd( 2p)     0.00019
   358    H   26  pz     Ryd( 2p)     0.00019

   359    H   27  S      Val( 1S)     0.72648
   360    H   27  S      Ryd( 2S)     0.00084
   361    H   27  px     Ryd( 2p)     0.00023
   362    H   27  py     Ryd( 2p)     0.00017
   363    H   27  pz     Ryd( 2p)     0.00018

   364    H   28  S      Val( 1S)     0.73484
   365    H   28  S      Ryd( 2S)     0.00084
   366    H   28  px     Ryd( 2p)     0.00007
   367    H   28  py     Ryd( 2p)     0.00029
   368    H   28  pz     Ryd( 2p)     0.00022

   369    H   29  S      Val( 1S)     0.55594
   370    H   29  S      Ryd( 2S)     0.00086
   371    H   29  px     Ryd( 2p)     0.00039
   372    H   29  py     Ryd( 2p)     0.00047
   373    H   29  pz     Ryd( 2p)     0.00032

   374    H   30  S      Val( 1S)     0.55621
   375    H   30  S      Ryd( 2S)     0.00101
   376    H   30  px     Ryd( 2p)     0.00021
   377    H   30  py     Ryd( 2p)     0.00040
   378    H   30  pz     Ryd( 2p)     0.00058

   379    H   31  S      Val( 1S)     0.71989
   380    H   31  S      Ryd( 2S)     0.00145
   381    H   31  px     Ryd( 2p)     0.00020
   382    H   31  py     Ryd( 2p)     0.00018
   383    H   31  pz     Ryd( 2p)     0.00023

   384    H   32  S      Val( 1S)     0.45534
   385    H   32  S      Ryd( 2S)     0.00201
   386    H   32  px     Ryd( 2p)     0.00074
   387    H   32  py     Ryd( 2p)     0.00123
   388    H   32  pz     Ryd( 2p)     0.00077

   389    H   33  S      Val( 1S)     0.45451
   390    H   33  S      Ryd( 2S)     0.00174
   391    H   33  px     Ryd( 2p)     0.00098
   392    H   33  py     Ryd( 2p)     0.00089
   393    H   33  pz     Ryd( 2p)     0.00078

   394    H   34  S      Val( 1S)     0.73452
   395    H   34  S      Ryd( 2S)     0.00149
   396    H   34  px     Ryd( 2p)     0.00020
   397    H   34  py     Ryd( 2p)     0.00020
   398    H   34  pz     Ryd( 2p)     0.00023

 WARNING:  1 low occupancy (<1.9990e) core orbital  found on  C    2
           1 low occupancy (<1.9990e) core orbital  found on  C    5
           1 low occupancy (<1.9990e) core orbital  found on  C    6
           1 low occupancy (<1.9990e) core orbital  found on  C    9
           1 low occupancy (<1.9990e) core orbital  found on  C   11
           1 low occupancy (<1.9990e) core orbital  found on  C   12
           1 low occupancy (<1.9990e) core orbital  found on  C   17
           1 low occupancy (<1.9990e) core orbital  found on  C   22


 Summary of Natural Population Analysis:                  
                                                          
                                       Natural Population 
                Natural  -----------------------------------------------
    Atom  No    Charge         Core      Valence    Rydberg      Total
 -----------------------------------------------------------------------
      N    1   -0.75865      1.99947     5.74835    0.01083     7.75865
      C    2    0.18570      1.99899     3.79664    0.01867     5.81430
      C    3   -0.33661      1.99904     4.32206    0.01551     6.33661
      C    4   -0.19528      1.99904     4.18139    0.01485     6.19528
      C    5   -0.08150      1.99890     4.06133    0.02128     6.08150
      C    6   -0.00595      1.99891     3.98622    0.02083     6.00595
      C    7   -0.18432      1.99904     4.17059    0.01469     6.18432
      C    8   -0.26660      1.99904     4.25329    0.01427     6.26660
      C    9    0.20052      1.99899     3.78261    0.01788     5.79948
      N   10   -0.71608      1.99947     5.70664    0.00997     7.71608
      C   11   -0.23400      1.99896     4.21908    0.01596     6.23400
      C   12   -0.35342      1.99862     4.32798    0.02681     6.35342
      S   13    2.40437      9.99879     3.39241    0.20443    13.59563
      O   14   -0.96363      1.99988     6.94292    0.02082     8.96363
      O   15   -0.93741      1.99985     6.92656    0.01100     8.93741
      O   16   -0.95465      1.99988     6.93338    0.02139     8.95465
      C   17   -0.39307      1.99862     4.36619    0.02825     6.39307
      S   18    2.36073      9.99880     3.44013    0.20033    13.63927
      O   19   -0.96265      1.99988     6.94129    0.02147     8.96265
      O   20   -0.96680      1.99988     6.95496    0.01196     8.96680
      O   21   -0.95969      1.99988     6.93843    0.02138     8.95969
      C   22   -0.28937      1.99896     4.27317    0.01724     6.28937
      H   23    0.43042      0.00000     0.56732    0.00226     0.56958
      H   24    0.42955      0.00000     0.56795    0.00250     0.57045
      H   25    0.24801      0.00000     0.75050    0.00148     0.75199
      H   26    0.25852      0.00000     0.73994    0.00154     0.74148
      H   27    0.27209      0.00000     0.72648    0.00143     0.72791
      H   28    0.26373      0.00000     0.73484    0.00143     0.73627
      H   29    0.44201      0.00000     0.55594    0.00205     0.55799
      H   30    0.44160      0.00000     0.55621    0.00220     0.55840
      H   31    0.27806      0.00000     0.71989    0.00206     0.72194
      H   32    0.53992      0.00000     0.45534    0.00474     0.46008
      H   33    0.54109      0.00000     0.45451    0.00440     0.45891
      H   34    0.26336      0.00000     0.73452    0.00212     0.73664
 =======================================================================
   * Total *    0.00000     59.98289   117.22906    0.78805   178.00000

                                 Natural Population      
 --------------------------------------------------------
   Core                      59.98289 ( 99.9715% of  60)
   Valence                  117.22906 ( 99.3467% of 118)
   Natural Minimal Basis    177.21195 ( 99.5573% of 178)
   Natural Rydberg Basis      0.78805 (  0.4427% of 178)
 --------------------------------------------------------

    Atom  No          Natural Electron Configuration
 ----------------------------------------------------------------------------
      N    1      [core]2S( 1.35)2p( 4.40)3p( 0.01)
      C    2      [core]2S( 0.84)2p( 2.95)3p( 0.01)
      C    3      [core]2S( 0.95)2p( 3.37)3p( 0.01)
      C    4      [core]2S( 0.95)2p( 3.23)3p( 0.01)
      C    5      [core]2S( 0.86)2p( 3.20)3p( 0.02)
      C    6      [core]2S( 0.87)2p( 3.12)3p( 0.02)
      C    7      [core]2S( 0.96)2p( 3.21)3p( 0.01)
      C    8      [core]2S( 0.96)2p( 3.29)3p( 0.01)
      C    9      [core]2S( 0.85)2p( 2.93)3p( 0.01)
      N   10      [core]2S( 1.35)2p( 4.35)3p( 0.01)
      C   11      [core]2S( 0.95)2p( 3.26)3p( 0.01)
      C   12      [core]2S( 0.96)2p( 3.36)3p( 0.02)
      S   13      [core]3S( 1.04)3p( 2.36)4S( 0.01)3d( 0.16)4p( 0.04)
      O   14      [core]2S( 1.83)2p( 5.11)3d( 0.02)
      O   15      [core]2S( 1.77)2p( 5.16)3d( 0.01)
      O   16      [core]2S( 1.83)2p( 5.10)3d( 0.02)
      C   17      [core]2S( 0.95)2p( 3.42)3p( 0.02)
      S   18      [core]3S( 1.05)3p( 2.39)4S( 0.01)3d( 0.16)4p( 0.04)
      O   19      [core]2S( 1.83)2p( 5.11)3d( 0.02)
      O   20      [core]2S( 1.79)2p( 5.17)
      O   21      [core]2S( 1.82)2p( 5.11)3d( 0.02)
      C   22      [core]2S( 0.94)2p( 3.33)3p( 0.01)
      H   23            1S( 0.57)
      H   24            1S( 0.57)
      H   25            1S( 0.75)
      H   26            1S( 0.74)
      H   27            1S( 0.73)
      H   28            1S( 0.73)
      H   29            1S( 0.56)
      H   30            1S( 0.56)
      H   31            1S( 0.72)
      H   32            1S( 0.46)
      H   33            1S( 0.45)
      H   34            1S( 0.73)


 NBO analysis skipped by request.
 1\1\GINC-DRG2-W002\SP\RB3LYP TD-FC\6-31G(d,p)\C12H12N2O6S2\QDUEZ\18-Ju
 l-2024\0\\# TD(NStates=10, Root=1) B3LYP/6-31G** SCRF=(Solvent=water) 
 volume pop=NPA density=current Geom=AllCheck Guess=Read\\MBJAPGAZEWPEF
 B-UHFFFAOYSA-N_conf_2\\0,1\N,0,-4.3770074172,-2.1951106366,1.310550744
 4\C,0,-3.1639839815,-1.671754951,0.9091611489\C,0,-2.0482284005,-2.497
 7671602,0.6795142127\C,0,-0.8500700998,-1.9661348372,0.2198178088\C,0,
 -0.682444004,-0.5981863849,-0.0443899192\C,0,0.62082856,-0.1066011622,
 -0.587065987\C,0,0.7549930703,0.1049101138,-1.9691081732\C,0,1.9484877
 057,0.5103488301,-2.551003885\C,0,3.0920251134,0.7397986097,-1.7634424
 859\N,0,4.2653270401,1.2068807857,-2.3210049888\C,0,2.9839386459,0.538
 5557094,-0.3751714289\C,0,1.7773450403,0.1232535906,0.1854054901\S,0,1
 .8407217814,-0.168373472,1.9602657828\O,0,2.9972597843,0.550880673,2.5
 020828524\O,0,0.4819413292,0.508803651,2.5281011353\O,0,1.7005960286,-
 1.5927372439,2.2680089826\C,0,-1.8102892848,0.2119570603,0.1954557416\
 S,0,-1.8043311083,1.9776831365,-0.1141096867\O,0,-1.4707085986,2.29018
 3485,-1.5049650481\O,0,-0.5071645097,2.4736109218,0.7998201358\O,0,-2.
 9897429063,2.574990988,0.4932488109\C,0,-3.0217494873,-0.2937814478,0.
 6628815354\H,0,-5.0234129768,-1.5530416255,1.7481081136\H,0,-4.3473700
 286,-3.0946393394,1.7705195015\H,0,-2.1253233936,-3.5652189285,0.86369
 43983\H,0,-0.0066856521,-2.6285709938,0.0584769745\H,0,-0.1105767302,-
 0.05933723,-2.6015614051\H,0,2.0005487597,0.6550784046,-3.6260913339\H
 ,0,5.1119046279,1.0555404267,-1.7902127186\H,0,4.387852279,1.042847725
 5,-3.3106804276\H,0,3.8378871516,0.7170997362,0.2677230333\H,0,0.28943
 18577,1.3609208535,2.0749689118\H,0,0.0998154707,2.9688450181,0.218791
 9316\H,0,-3.8518156666,0.3790656934,0.8422102416\\Version=ES64L-G16Rev
 A.03\State=1-A\HF=-1821.6521394\RMSD=6.317e-09\Dipole=2.0236109,-0.859
 859,-3.08401\Quadrupole=19.2691132,-11.5604731,-7.7086402,23.9412849,-
 36.472139,-0.6566444\PG=C01 [X(C12H12N2O6S2)]\\@


 CONFIDENCE IS WHAT YOU FEEL BEFORE YOU FULLY
 COMPREHEND THE SITUATION.
 Job cpu time:       0 days  1 hours 47 minutes 45.5 seconds.
 Elapsed time:       0 days  0 hours 36 minutes  1.8 seconds.
 File lengths (MBytes):  RWF=   1343 Int=      0 D2E=      0 Chk=     80 Scr=      1
 Normal termination of Gaussian 16 at Thu Jul 18 14:53:30 2024.
