 Entering Gaussian System, Link 0=g16
 Initial command:
 /opt/sw/arch/manual/gaussian/G16_A03/g16/l1.exe "/scratch/1380890/Gau-31077.inp" -scrdir="/scratch/1380890/"
 Entering Link 1 = /opt/sw/arch/manual/gaussian/G16_A03/g16/l1.exe PID=     31078.
  
 Copyright (c) 1988,1990,1992,1993,1995,1998,2003,2009,2016,
            Gaussian, Inc.  All Rights Reserved.
  
 This is part of the Gaussian(R) 16 program.  It is based on
 the Gaussian(R) 09 system (copyright 2009, Gaussian, Inc.),
 the Gaussian(R) 03 system (copyright 2003, Gaussian, Inc.),
 the Gaussian(R) 98 system (copyright 1998, Gaussian, Inc.),
 the Gaussian(R) 94 system (copyright 1995, Gaussian, Inc.),
 the Gaussian 92(TM) system (copyright 1992, Gaussian, Inc.),
 the Gaussian 90(TM) system (copyright 1990, Gaussian, Inc.),
 the Gaussian 88(TM) system (copyright 1988, Gaussian, Inc.),
 the Gaussian 86(TM) system (copyright 1986, Carnegie Mellon
 University), and the Gaussian 82(TM) system (copyright 1983,
 Carnegie Mellon University). Gaussian is a federally registered
 trademark of Gaussian, Inc.
  
 This software contains proprietary and confidential information,
 including trade secrets, belonging to Gaussian, Inc.
  
 This software is provided under written license and may be
 used, copied, transmitted, or stored only in accord with that
 written license.
  
 The following legend is applicable only to US Government
 contracts under FAR:
  
                    RESTRICTED RIGHTS LEGEND
  
 Use, reproduction and disclosure by the US Government is
 subject to restrictions as set forth in subparagraphs (a)
 and (c) of the Commercial Computer Software - Restricted
 Rights clause in FAR 52.227-19.
  
 Gaussian, Inc.
 340 Quinnipiac St., Bldg. 40, Wallingford CT 06492
  
  
 ---------------------------------------------------------------
 Warning -- This program may not be used in any manner that
 competes with the business of Gaussian, Inc. or will provide
 assistance to any competitor of Gaussian, Inc.  The licensee
 of this program is prohibited from giving any competitor of
 Gaussian, Inc. access to this program.  By using this program,
 the user acknowledges that Gaussian, Inc. is engaged in the
 business of creating and licensing software in the field of
 computational chemistry and represents and warrants to the
 licensee that it is not a competitor of Gaussian, Inc. and that
 it will not use this program in any manner prohibited above.
 ---------------------------------------------------------------
  

 Cite this work as:
 Gaussian 16, Revision A.03,
 M. J. Frisch, G. W. Trucks, H. B. Schlegel, G. E. Scuseria, 
 M. A. Robb, J. R. Cheeseman, G. Scalmani, V. Barone, 
 G. A. Petersson, H. Nakatsuji, X. Li, M. Caricato, A. V. Marenich, 
 J. Bloino, B. G. Janesko, R. Gomperts, B. Mennucci, H. P. Hratchian, 
 J. V. Ortiz, A. F. Izmaylov, J. L. Sonnenberg, D. Williams-Young, 
 F. Ding, F. Lipparini, F. Egidi, J. Goings, B. Peng, A. Petrone, 
 T. Henderson, D. Ranasinghe, V. G. Zakrzewski, J. Gao, N. Rega, 
 G. Zheng, W. Liang, M. Hada, M. Ehara, K. Toyota, R. Fukuda, 
 J. Hasegawa, M. Ishida, T. Nakajima, Y. Honda, O. Kitao, H. Nakai, 
 T. Vreven, K. Throssell, J. A. Montgomery, Jr., J. E. Peralta, 
 F. Ogliaro, M. J. Bearpark, J. J. Heyd, E. N. Brothers, K. N. Kudin, 
 V. N. Staroverov, T. A. Keith, R. Kobayashi, J. Normand, 
 K. Raghavachari, A. P. Rendell, J. C. Burant, S. S. Iyengar, 
 J. Tomasi, M. Cossi, J. M. Millam, M. Klene, C. Adamo, R. Cammi, 
 J. W. Ochterski, R. L. Martin, K. Morokuma, O. Farkas, 
 J. B. Foresman, and D. J. Fox, Gaussian, Inc., Wallingford CT, 2016.
 
 ******************************************
 Gaussian 16:  ES64L-G16RevA.03 25-Dec-2016
                18-Jul-2024 
 ******************************************
 %nprocshared=4
 Will use up to    4 processors via shared memory.
 %mem=8GB
 %Chk=JZUHIOJYCPIVLQ-LURJTMIESA-N_conf_0_0.chk
 -------------------------------------------------------
 # opt=CalcFc B3LYP/6-31G** SCRF=(Solvent=water) scf=xqc
 -------------------------------------------------------
 1/10=4,18=20,19=15,26=3,38=1/1,3;
 2/9=110,12=2,17=6,18=5,40=1/2;
 3/5=1,6=6,7=101,11=2,25=1,30=1,70=2201,71=2,72=1,74=-5,140=1/1,2,3;
 4//1;
 5/5=2,8=3,13=1,38=5,53=1/2,8;
 8/6=4,10=90,11=11/1;
 11/6=1,8=1,9=11,15=111,16=1/1,2,10;
 10/6=1,13=1/2;
 6/7=2,8=2,9=2,10=2,28=1/1;
 7/10=1,18=20,25=1/1,2,3,16;
 1/10=4,18=20,19=15,26=3/3(2);
 2/9=110/2;
 99//99;
 2/9=110/2;
 3/5=1,6=6,7=101,11=2,25=1,30=1,70=2205,71=1,72=1,74=-5/1,2,3;
 4/5=5,16=3,69=1/1;
 5/5=2,8=3,13=1,38=5,53=1/2,8;
 7//1,2,3,16;
 1/18=20,19=15,26=3/3(-5);
 2/9=110/2;
 6/7=2,8=2,9=2,10=2,19=2,28=1/1;
 99/9=1/99;
 ----------------------------------
 JZUHIOJYCPIVLQ-LURJTMIESA-N_conf_0
 ----------------------------------
 Symbolic Z-matrix:
 Charge =  0 Multiplicity = 1
 N                    -3.61421  -0.32503  -0.5026 
 C                    -2.25975  -0.85111  -0.63747 
 C                    -1.16951   0.11288  -0.12154 
 C                    -1.31415   0.37801   1.38145 
 C                     0.21858  -0.47246  -0.46504 
 C                     1.38233   0.4787   -0.16469 
 C                     2.707    -0.09757  -0.66611 
 N                     3.8001    0.82293  -0.37748 
 H                    -3.85057  -0.21531   0.48188 
 H                    -3.66145   0.60765  -0.91119 
 H                    -2.09027  -1.06215  -1.69955 
 H                    -2.19872  -1.8105   -0.11075 
 H                    -1.27651   1.07019  -0.64905 
 H                    -2.292     0.8067    1.62128 
 H                    -0.56747   1.09543   1.73423 
 H                    -1.19762  -0.54583   1.9579 
 H                     0.36841  -1.41408   0.07863 
 H                     0.24106  -0.72052  -1.5342 
 H                     1.45317   0.65542   0.91456 
 H                     1.19568   1.44805  -0.64349 
 H                     2.90686  -1.06181  -0.18599 
 H                     2.65984  -0.26604  -1.74729 
 H                     4.68075   0.40688  -0.67796 
 H                     3.87846   0.95957   0.62953 
 

 GradGradGradGradGradGradGradGradGradGradGradGradGradGradGradGradGradGrad
 Berny optimization.
 Initialization pass.
                           ----------------------------
                           !    Initial Parameters    !
                           ! (Angstroms and Degrees)  !
 --------------------------                            --------------------------
 ! Name  Definition              Value          Derivative Info.                !
 --------------------------------------------------------------------------------
 ! R1    R(1,2)                  1.4593         calculate D2E/DX2 analytically  !
 ! R2    R(1,9)                  1.0184         calculate D2E/DX2 analytically  !
 ! R3    R(1,10)                 1.0193         calculate D2E/DX2 analytically  !
 ! R4    R(2,3)                  1.5441         calculate D2E/DX2 analytically  !
 ! R5    R(2,11)                 1.096          calculate D2E/DX2 analytically  !
 ! R6    R(2,12)                 1.0962         calculate D2E/DX2 analytically  !
 ! R7    R(3,4)                  1.533          calculate D2E/DX2 analytically  !
 ! R8    R(3,5)                  1.5451         calculate D2E/DX2 analytically  !
 ! R9    R(3,13)                 1.0983         calculate D2E/DX2 analytically  !
 ! R10   R(4,14)                 1.0943         calculate D2E/DX2 analytically  !
 ! R11   R(4,15)                 1.0939         calculate D2E/DX2 analytically  !
 ! R12   R(4,16)                 1.0952         calculate D2E/DX2 analytically  !
 ! R13   R(5,6)                  1.5327         calculate D2E/DX2 analytically  !
 ! R14   R(5,17)                 1.0976         calculate D2E/DX2 analytically  !
 ! R15   R(5,18)                 1.0978         calculate D2E/DX2 analytically  !
 ! R16   R(6,7)                  1.5291         calculate D2E/DX2 analytically  !
 ! R17   R(6,19)                 1.0959         calculate D2E/DX2 analytically  !
 ! R18   R(6,20)                 1.0971         calculate D2E/DX2 analytically  !
 ! R19   R(7,8)                  1.4579         calculate D2E/DX2 analytically  !
 ! R20   R(7,21)                 1.0955         calculate D2E/DX2 analytically  !
 ! R21   R(7,22)                 1.0952         calculate D2E/DX2 analytically  !
 ! R22   R(8,23)                 1.0193         calculate D2E/DX2 analytically  !
 ! R23   R(8,24)                 1.0193         calculate D2E/DX2 analytically  !
 ! A1    A(2,1,9)              110.0969         calculate D2E/DX2 analytically  !
 ! A2    A(2,1,10)             109.623          calculate D2E/DX2 analytically  !
 ! A3    A(9,1,10)             106.1507         calculate D2E/DX2 analytically  !
 ! A4    A(1,2,3)              113.5413         calculate D2E/DX2 analytically  !
 ! A5    A(1,2,11)             107.6074         calculate D2E/DX2 analytically  !
 ! A6    A(1,2,12)             108.8313         calculate D2E/DX2 analytically  !
 ! A7    A(3,2,11)             109.5621         calculate D2E/DX2 analytically  !
 ! A8    A(3,2,12)             110.2767         calculate D2E/DX2 analytically  !
 ! A9    A(11,2,12)            106.7684         calculate D2E/DX2 analytically  !
 ! A10   A(2,3,4)              111.6508         calculate D2E/DX2 analytically  !
 ! A11   A(2,3,5)              108.8764         calculate D2E/DX2 analytically  !
 ! A12   A(2,3,13)             108.3553         calculate D2E/DX2 analytically  !
 ! A13   A(4,3,5)              111.6069         calculate D2E/DX2 analytically  !
 ! A14   A(4,3,13)             108.1176         calculate D2E/DX2 analytically  !
 ! A15   A(5,3,13)             108.1173         calculate D2E/DX2 analytically  !
 ! A16   A(3,4,14)             111.5267         calculate D2E/DX2 analytically  !
 ! A17   A(3,4,15)             111.4194         calculate D2E/DX2 analytically  !
 ! A18   A(3,4,16)             111.1079         calculate D2E/DX2 analytically  !
 ! A19   A(14,4,15)            106.4001         calculate D2E/DX2 analytically  !
 ! A20   A(14,4,16)            108.0704         calculate D2E/DX2 analytically  !
 ! A21   A(15,4,16)            108.1102         calculate D2E/DX2 analytically  !
 ! A22   A(3,5,6)              113.7939         calculate D2E/DX2 analytically  !
 ! A23   A(3,5,17)             109.7257         calculate D2E/DX2 analytically  !
 ! A24   A(3,5,18)             108.694          calculate D2E/DX2 analytically  !
 ! A25   A(6,5,17)             109.3711         calculate D2E/DX2 analytically  !
 ! A26   A(6,5,18)             108.3921         calculate D2E/DX2 analytically  !
 ! A27   A(17,5,18)            106.605          calculate D2E/DX2 analytically  !
 ! A28   A(5,6,7)              111.0768         calculate D2E/DX2 analytically  !
 ! A29   A(5,6,19)             110.0061         calculate D2E/DX2 analytically  !
 ! A30   A(5,6,20)             109.4877         calculate D2E/DX2 analytically  !
 ! A31   A(7,6,19)             109.129          calculate D2E/DX2 analytically  !
 ! A32   A(7,6,20)             109.7085         calculate D2E/DX2 analytically  !
 ! A33   A(19,6,20)            107.3558         calculate D2E/DX2 analytically  !
 ! A34   A(6,7,8)              110.2828         calculate D2E/DX2 analytically  !
 ! A35   A(6,7,21)             110.2442         calculate D2E/DX2 analytically  !
 ! A36   A(6,7,22)             110.1431         calculate D2E/DX2 analytically  !
 ! A37   A(8,7,21)             109.4004         calculate D2E/DX2 analytically  !
 ! A38   A(8,7,22)             108.9559         calculate D2E/DX2 analytically  !
 ! A39   A(21,7,22)            107.7637         calculate D2E/DX2 analytically  !
 ! A40   A(7,8,23)             109.3728         calculate D2E/DX2 analytically  !
 ! A41   A(7,8,24)             109.748          calculate D2E/DX2 analytically  !
 ! A42   A(23,8,24)            106.2338         calculate D2E/DX2 analytically  !
 ! D1    D(9,1,2,3)            -65.0158         calculate D2E/DX2 analytically  !
 ! D2    D(9,1,2,11)           173.5552         calculate D2E/DX2 analytically  !
 ! D3    D(9,1,2,12)            58.2124         calculate D2E/DX2 analytically  !
 ! D4    D(10,1,2,3)            51.4021         calculate D2E/DX2 analytically  !
 ! D5    D(10,1,2,11)          -70.0269         calculate D2E/DX2 analytically  !
 ! D6    D(10,1,2,12)          174.6303         calculate D2E/DX2 analytically  !
 ! D7    D(1,2,3,4)             62.9205         calculate D2E/DX2 analytically  !
 ! D8    D(1,2,3,5)           -173.4081         calculate D2E/DX2 analytically  !
 ! D9    D(1,2,3,13)           -56.0404         calculate D2E/DX2 analytically  !
 ! D10   D(11,2,3,4)          -176.7497         calculate D2E/DX2 analytically  !
 ! D11   D(11,2,3,5)           -53.0782         calculate D2E/DX2 analytically  !
 ! D12   D(11,2,3,13)           64.2894         calculate D2E/DX2 analytically  !
 ! D13   D(12,2,3,4)           -59.512          calculate D2E/DX2 analytically  !
 ! D14   D(12,2,3,5)            64.1595         calculate D2E/DX2 analytically  !
 ! D15   D(12,2,3,13)         -178.4729         calculate D2E/DX2 analytically  !
 ! D16   D(2,3,4,14)           -58.7516         calculate D2E/DX2 analytically  !
 ! D17   D(2,3,4,15)          -177.4873         calculate D2E/DX2 analytically  !
 ! D18   D(2,3,4,16)            61.8919         calculate D2E/DX2 analytically  !
 ! D19   D(5,3,4,14)           179.1339         calculate D2E/DX2 analytically  !
 ! D20   D(5,3,4,15)            60.3983         calculate D2E/DX2 analytically  !
 ! D21   D(5,3,4,16)           -60.2226         calculate D2E/DX2 analytically  !
 ! D22   D(13,3,4,14)           60.3503         calculate D2E/DX2 analytically  !
 ! D23   D(13,3,4,15)          -58.3853         calculate D2E/DX2 analytically  !
 ! D24   D(13,3,4,16)         -179.0062         calculate D2E/DX2 analytically  !
 ! D25   D(2,3,5,6)            172.5602         calculate D2E/DX2 analytically  !
 ! D26   D(2,3,5,17)           -64.5387         calculate D2E/DX2 analytically  !
 ! D27   D(2,3,5,18)            51.6812         calculate D2E/DX2 analytically  !
 ! D28   D(4,3,5,6)            -63.7422         calculate D2E/DX2 analytically  !
 ! D29   D(4,3,5,17)            59.1589         calculate D2E/DX2 analytically  !
 ! D30   D(4,3,5,18)           175.3788         calculate D2E/DX2 analytically  !
 ! D31   D(13,3,5,6)            55.0415         calculate D2E/DX2 analytically  !
 ! D32   D(13,3,5,17)          177.9427         calculate D2E/DX2 analytically  !
 ! D33   D(13,3,5,18)          -65.8374         calculate D2E/DX2 analytically  !
 ! D34   D(3,5,6,7)           -173.8162         calculate D2E/DX2 analytically  !
 ! D35   D(3,5,6,19)            65.2488         calculate D2E/DX2 analytically  !
 ! D36   D(3,5,6,20)           -52.5            calculate D2E/DX2 analytically  !
 ! D37   D(17,5,6,7)            63.0887         calculate D2E/DX2 analytically  !
 ! D38   D(17,5,6,19)          -57.8463         calculate D2E/DX2 analytically  !
 ! D39   D(17,5,6,20)         -175.5951         calculate D2E/DX2 analytically  !
 ! D40   D(18,5,6,7)           -52.7685         calculate D2E/DX2 analytically  !
 ! D41   D(18,5,6,19)         -173.7034         calculate D2E/DX2 analytically  !
 ! D42   D(18,5,6,20)           68.5477         calculate D2E/DX2 analytically  !
 ! D43   D(5,6,7,8)            179.7322         calculate D2E/DX2 analytically  !
 ! D44   D(5,6,7,21)           -59.3544         calculate D2E/DX2 analytically  !
 ! D45   D(5,6,7,22)            59.4383         calculate D2E/DX2 analytically  !
 ! D46   D(19,6,7,8)           -58.8178         calculate D2E/DX2 analytically  !
 ! D47   D(19,6,7,21)           62.0956         calculate D2E/DX2 analytically  !
 ! D48   D(19,6,7,22)         -179.1117         calculate D2E/DX2 analytically  !
 ! D49   D(20,6,7,8)            58.5455         calculate D2E/DX2 analytically  !
 ! D50   D(20,6,7,21)          179.4589         calculate D2E/DX2 analytically  !
 ! D51   D(20,6,7,22)          -61.7483         calculate D2E/DX2 analytically  !
 ! D52   D(6,7,8,23)           177.3939         calculate D2E/DX2 analytically  !
 ! D53   D(6,7,8,24)            61.2209         calculate D2E/DX2 analytically  !
 ! D54   D(21,7,8,23)           55.9777         calculate D2E/DX2 analytically  !
 ! D55   D(21,7,8,24)          -60.1954         calculate D2E/DX2 analytically  !
 ! D56   D(22,7,8,23)          -61.6008         calculate D2E/DX2 analytically  !
 ! D57   D(22,7,8,24)         -177.7738         calculate D2E/DX2 analytically  !
 --------------------------------------------------------------------------------
 Trust Radius=3.00D-01 FncErr=1.00D-07 GrdErr=1.00D-06 EigMax=2.50D+02 EigMin=1.00D-04
 Number of steps in this run=    132 maximum allowed number of steps=    144.
 GradGradGradGradGradGradGradGradGradGradGradGradGradGradGradGradGradGrad

                          Input orientation:                          
 ---------------------------------------------------------------------
 Center     Atomic      Atomic             Coordinates (Angstroms)
 Number     Number       Type             X           Y           Z
 ---------------------------------------------------------------------
      1          7           0       -3.614206   -0.325026   -0.502601
      2          6           0       -2.259746   -0.851111   -0.637472
      3          6           0       -1.169507    0.112884   -0.121535
      4          6           0       -1.314153    0.378011    1.381445
      5          6           0        0.218582   -0.472459   -0.465035
      6          6           0        1.382328    0.478704   -0.164694
      7          6           0        2.706999   -0.097571   -0.666114
      8          7           0        3.800101    0.822929   -0.377480
      9          1           0       -3.850571   -0.215315    0.481881
     10          1           0       -3.661453    0.607651   -0.911194
     11          1           0       -2.090274   -1.062145   -1.699546
     12          1           0       -2.198723   -1.810504   -0.110745
     13          1           0       -1.276514    1.070189   -0.649052
     14          1           0       -2.292000    0.806699    1.621278
     15          1           0       -0.567465    1.095428    1.734234
     16          1           0       -1.197624   -0.545831    1.957904
     17          1           0        0.368410   -1.414076    0.078634
     18          1           0        0.241065   -0.720516   -1.534200
     19          1           0        1.453169    0.655419    0.914555
     20          1           0        1.195683    1.448046   -0.643495
     21          1           0        2.906855   -1.061810   -0.185995
     22          1           0        2.659838   -0.266040   -1.747285
     23          1           0        4.680748    0.406876   -0.677963
     24          1           0        3.878458    0.959570    0.629526
 ---------------------------------------------------------------------
                    Distance matrix (angstroms):
                    1          2          3          4          5
     1  N    0.000000
     2  C    1.459286   0.000000
     3  C    2.512673   1.544052   0.000000
     4  C    3.055182   2.545764   1.533024   0.000000
     5  C    3.835806   2.513010   1.545125   2.545990   0.000000
     6  C    5.072033   3.905974   2.578284   3.109935   1.532717
     7  C    6.327409   5.023664   3.920224   4.537438   2.524519
     8  N    7.503692   6.292197   5.026597   5.426542   3.809590
     9  H    1.018386   2.046439   2.767657   2.755842   4.185783
    10  H    1.019346   2.041492   2.660479   3.289186   4.052205
    11  H    2.073256   1.096019   2.172239   3.488398   2.683759
    12  H    2.088968   1.096175   2.181472   2.792614   2.785543
    13  H    2.726330   2.158303   1.098252   2.145564   2.156139
    14  H    2.745887   2.802022   2.186039   1.094293   3.505991
    15  H    4.037790   3.503971   2.184428   1.093933   2.812992
    16  H    3.455823   2.820865   2.181459   1.095157   2.807429
    17  H    4.169543   2.781535   2.176433   2.782069   1.097573
    18  H    4.010451   2.659930   2.163306   3.482305   1.097794
    19  H    5.352373   4.296994   2.871630   2.820108   2.167852
    20  H    5.128222   4.150439   2.765723   3.397739   2.162155
    21  H    6.570185   5.190568   4.242734   4.727247   2.766227
    22  H    6.396588   5.077036   4.177383   5.098662   2.765231
    23  H    8.329028   7.053696   5.884007   6.338836   4.552966
    24  H    7.685826   6.523910   5.173290   5.278902   4.079641
                    6          7          8          9         10
     6  C    0.000000
     7  C    1.529140   0.000000
     8  N    2.451406   1.457910   0.000000
     9  H    5.318172   6.658339   7.768476   0.000000
    10  H    5.100354   6.412065   7.483714   1.629017   0.000000
    11  H    4.097432   5.001221   6.324387   2.928206   2.424525
    12  H    4.250566   5.225771   6.556828   2.371589   2.937306
    13  H    2.766568   4.151184   5.089882   3.091488   2.443480
    14  H    4.098531   5.571343   6.411629   2.184464   2.885903
    15  H    2.790693   4.231670   4.858932   3.750362   4.099875
    16  H    3.494459   4.725727   5.683729   3.053852   3.953821
    17  H    2.160985   2.785109   4.121739   4.404479   4.615943
    18  H    2.148525   2.687464   4.048081   4.589258   4.169149
    19  H    1.095913   2.153509   2.684307   5.392127   5.430930
    20  H    1.097137   2.161833   2.691566   5.431198   4.936567
    21  H    2.167446   1.095543   2.094468   6.842910   6.815841
    22  H    2.165934   1.095233   2.088640   6.881655   6.435922
    23  H    3.338889   2.037227   1.019280   8.632251   8.347876
    24  H    2.663209   2.041702   1.019251   7.819210   7.703760
                   11         12         13         14         15
    11  H    0.000000
    12  H    1.759571   0.000000
    13  H    2.512487   3.072236   0.000000
    14  H    3.815907   3.139802   2.501007   0.000000
    15  H    4.331849   3.809119   2.486652   1.752182   0.000000
    16  H    3.800046   2.623148   3.068219   1.772093   1.772247
    17  H    3.054653   2.604456   3.067062   3.793333   3.148727
    18  H    2.362030   3.027682   2.508616   4.325025   3.825445
    19  H    4.726472   4.524194   3.173022   3.814267   2.224509
    20  H    4.267764   4.735394   2.500912   4.207666   2.981044
    21  H    5.221315   5.160730   4.718095   5.812543   4.517948
    22  H    4.816598   5.354367   4.299591   6.084298   4.938628
    23  H    7.003456   7.250216   5.994147   7.352930   5.816918
    24  H    6.718457   6.719631   5.312319   6.251519   4.583129
                   16         17         18         19         20
    16  H    0.000000
    17  H    2.595760   0.000000
    18  H    3.780890   1.760248   0.000000
    19  H    3.091647   2.481588   3.059215   0.000000
    20  H    4.058416   3.065549   2.531267   1.766940   0.000000
    21  H    4.659322   2.576398   3.006755   2.504654   3.071937
    22  H    5.355999   3.146841   2.470307   3.064397   2.510018
    23  H    6.512350   4.741790   4.659930   3.607653   3.637431
    24  H    5.458703   4.272952   4.553574   2.460849   3.009398
                   21         22         23         24
    21  H    0.000000
    22  H    1.769717   0.000000
    23  H    2.354946   2.383348   0.000000
    24  H    2.386434   2.938773   1.630542   0.000000
 Stoichiometry    C6H16N2
 Framework group  C1[X(C6H16N2)]
 Deg. of freedom    66
 Full point group                 C1      NOp   1
 Largest Abelian subgroup         C1      NOp   1
 Largest concise Abelian subgroup C1      NOp   1
                         Standard orientation:                         
 ---------------------------------------------------------------------
 Center     Atomic      Atomic             Coordinates (Angstroms)
 Number     Number       Type             X           Y           Z
 ---------------------------------------------------------------------
      1          7           0       -3.593258   -0.395672   -0.323655
      2          6           0       -2.305109   -0.794672    0.234009
      3          6           0       -1.134303    0.108552   -0.210396
      4          6           0       -1.316139    1.550758    0.276578
      5          6           0        0.189894   -0.501885    0.300758
      6          6           0        1.442078    0.205898   -0.228675
      7          6           0        2.711725   -0.536605    0.189602
      8          7           0        3.890772    0.147173   -0.327891
      9          1           0       -3.860356    0.520112    0.032865
     10          1           0       -3.511806   -0.293659   -1.334608
     11          1           0       -2.112672   -1.826580   -0.081254
     12          1           0       -2.381489   -0.807079    1.327449
     13          1           0       -1.103748    0.120047   -1.308162
     14          1           0       -2.246960    1.986923   -0.098668
     15          1           0       -0.507535    2.196905   -0.077459
     16          1           0       -1.335583    1.598151    1.370536
     17          1           0        0.202913   -0.492359    1.398212
     18          1           0        0.232499   -1.555566   -0.004353
     19          1           0        1.483215    1.231767    0.154632
     20          1           0        1.392791    0.267130   -1.322993
     21          1           0        2.774656   -0.594416    1.281807
     22          1           0        2.695135   -1.560518   -0.198808
     23          1           0        4.729455   -0.333958   -0.005317
     24          1           0        3.938002    1.090313    0.055684
 ---------------------------------------------------------------------
 Rotational constants (GHZ):           5.6097794           0.6924291           0.6477361
 Standard basis: 6-31G(d,p) (6D, 7F)
 There are   200 symmetry adapted cartesian basis functions of A   symmetry.
 There are   200 symmetry adapted basis functions of A   symmetry.
   200 basis functions,   336 primitive gaussians,   200 cartesian basis functions
    33 alpha electrons       33 beta electrons
       nuclear repulsion energy       395.2432174704 Hartrees.
 NAtoms=   24 NActive=   24 NUniq=   24 SFac= 1.00D+00 NAtFMM=   60 NAOKFM=F Big=F
 Integral buffers will be    131072 words long.
 Raffenetti 2 integral format.
 Two-electron integral symmetry is turned on.
 Force inversion solution in PCM.
 ------------------------------------------------------------------------------
 Polarizable Continuum Model (PCM)
 =================================
 Model                : PCM.
 Atomic radii         : UFF (Universal Force Field).
 Polarization charges : Total charges.
 Charge compensation  : None.
 Solution method      : Matrix inversion.
 Cavity type          : Scaled VdW (van der Waals Surface) (Alpha=1.100).
 Cavity algorithm     : GePol (No added spheres)
                        Default sphere list used, NSphG=   24.
                        Lebedev-Laikov grids with approx.  5.0 points / Ang**2.
                        Smoothing algorithm: York/Karplus (Gamma=1.0000).
                        Polarization charges: spherical gaussians, with
                                              point-specific exponents (IZeta= 3).
                        Self-potential: point-specific (ISelfS= 7).
                        Self-field    : sphere-specific E.n sum rule (ISelfD= 2).
 1st derivatives      : Analytical E(r).r(x)/FMM algorithm (CHGder, D1EAlg=3).
                        Cavity 1st derivative terms included.
 2nd derivatives      : Analytical E(r).r(xy)/FMM algorithm (CHGder, D2EAlg=3).
                        Cavity 2nd derivative terms included.
 Solvent              : Water, Eps=  78.355300 Eps(inf)=   1.777849
 ------------------------------------------------------------------------------
 One-electron integrals computed using PRISM.
 NBasis=   200 RedAO= T EigKep=  2.67D-03  NBF=   200
 NBsUse=   200 1.00D-06 EigRej= -1.00D+00 NBFU=   200
 ExpMin= 1.61D-01 ExpMax= 4.17D+03 ExpMxC= 6.27D+02 IAcc=3 IRadAn=         5 AccDes= 0.00D+00
 Harris functional with IExCor=  402 and IRadAn=       5 diagonalized for initial guess.
 HarFok:  IExCor=  402 AccDes= 0.00D+00 IRadAn=         5 IDoV= 1 UseB2=F ITyADJ=14
 ICtDFT=  3500011 ScaDFX=  1.000000  1.000000  1.000000  1.000000
 FoFCou: FMM=F IPFlag=           0 FMFlag=      100000 FMFlg1=           0
         NFxFlg=           0 DoJE=T BraDBF=F KetDBF=T FulRan=T
         wScrn=  0.000000 ICntrl=       500 IOpCl=  0 I1Cent=   200000004 NGrid=           0
         NMat0=    1 NMatS0=      1 NMatT0=    0 NMatD0=    1 NMtDS0=    0 NMtDT0=    0
 Petite list used in FoFCou.
 Keep R1 ints in memory in canonical form, NReq=206134434.
 Requested convergence on RMS density matrix=1.00D-08 within  32 cycles.
 Requested convergence on MAX density matrix=1.00D-06.
 Requested convergence on             energy=1.00D-06.
 No special actions if energy rises.
 Inv3:  Mode=1 IEnd=     8000067.
 Iteration    1 A*A^-1 deviation from unit magnitude is 2.66D-15 for    421.
 Iteration    1 A*A^-1 deviation from orthogonality  is 1.71D-15 for   1379    380.
 Iteration    1 A^-1*A deviation from unit magnitude is 2.66D-15 for    586.
 Iteration    1 A^-1*A deviation from orthogonality  is 4.22D-15 for   1461   1083.
 Error on total polarization charges =  0.00899
 SCF Done:  E(RB3LYP) =  -347.799277496     A.U. after   11 cycles
            NFock= 11  Conv=0.32D-08     -V/T= 2.0097
 QCSCF skips out because SCF is already converged.
 DoSCS=F DFT=T ScalE2(SS,OS)=  1.000000  1.000000
 Range of M.O.s used for correlation:     1   200
 NBasis=   200 NAE=    33 NBE=    33 NFC=     0 NFV=     0
 NROrb=    200 NOA=    33 NOB=    33 NVA=   167 NVB=   167
 Symmetrizing basis deriv contribution to polar:
 IMax=3 JMax=2 DiffMx= 0.00D+00
 G2DrvN: will do    25 centers at a time, making    1 passes.
 Calling FoFCou, ICntrl=  3107 FMM=F I1Cent=   0 AccDes= 0.00D+00.
 NEqPCM:  Using equilibrium solvation (IEInf=0, Eps=  78.3553, EpsInf=   1.7778)
 G2PCM: DoFxE=T DoFxN=T DoGrad=T DoDP/DQ/DG/TGxP=FFFF NFrqRd=   0 IEInf=0 SqF1=F DoCFld=F IF1Alg=4.
 End of G2Drv F.D. properties file   721 does not exist.
 End of G2Drv F.D. properties file   722 does not exist.
 End of G2Drv F.D. properties file   788 does not exist.
          IDoAtm=111111111111111111111111
 NEqPCM:  Using equilibrium solvation (IEInf=0, Eps=  78.3553, EpsInf=   1.7778)
          Differentiating once with respect to nuclear coordinates.
 Keep R1 ints in memory in canonical form, NReq=209426347.
          There are    75 degrees of freedom in the 1st order CPHF.  IDoFFX=6 NUNeed=     0.
     69 vectors produced by pass  0 Test12= 7.35D-15 1.33D-09 XBig12= 7.44D-02 6.02D-02.
 AX will form    69 AO Fock derivatives at one time.
     69 vectors produced by pass  1 Test12= 7.35D-15 1.33D-09 XBig12= 7.97D-03 1.35D-02.
     69 vectors produced by pass  2 Test12= 7.35D-15 1.33D-09 XBig12= 9.06D-05 1.34D-03.
     69 vectors produced by pass  3 Test12= 7.35D-15 1.33D-09 XBig12= 2.25D-07 5.12D-05.
     69 vectors produced by pass  4 Test12= 7.35D-15 1.33D-09 XBig12= 2.17D-10 1.40D-06.
     27 vectors produced by pass  5 Test12= 7.35D-15 1.33D-09 XBig12= 1.26D-13 3.53D-08.
      1 vectors produced by pass  6 Test12= 7.35D-15 1.33D-09 XBig12= 9.78D-17 1.52D-09.
 InvSVY:  IOpt=1 It=  1 EMax= 3.33D-16
 Solved reduced A of dimension   373 with    75 vectors.
 End of Minotr F.D. properties file   721 does not exist.
 End of Minotr F.D. properties file   722 does not exist.
 End of Minotr F.D. properties file   788 does not exist.

 **********************************************************************

            Population analysis using the SCF density.

 **********************************************************************

 Orbital symmetries:
       Occupied  (A) (A) (A) (A) (A) (A) (A) (A) (A) (A) (A) (A)
                 (A) (A) (A) (A) (A) (A) (A) (A) (A) (A) (A) (A)
                 (A) (A) (A) (A) (A) (A) (A) (A) (A)
       Virtual   (A) (A) (A) (A) (A) (A) (A) (A) (A) (A) (A) (A)
                 (A) (A) (A) (A) (A) (A) (A) (A) (A) (A) (A) (A)
                 (A) (A) (A) (A) (A) (A) (A) (A) (A) (A) (A) (A)
                 (A) (A) (A) (A) (A) (A) (A) (A) (A) (A) (A) (A)
                 (A) (A) (A) (A) (A) (A) (A) (A) (A) (A) (A) (A)
                 (A) (A) (A) (A) (A) (A) (A) (A) (A) (A) (A) (A)
                 (A) (A) (A) (A) (A) (A) (A) (A) (A) (A) (A) (A)
                 (A) (A) (A) (A) (A) (A) (A) (A) (A) (A) (A) (A)
                 (A) (A) (A) (A) (A) (A) (A) (A) (A) (A) (A) (A)
                 (A) (A) (A) (A) (A) (A) (A) (A) (A) (A) (A) (A)
                 (A) (A) (A) (A) (A) (A) (A) (A) (A) (A) (A) (A)
                 (A) (A) (A) (A) (A) (A) (A) (A) (A) (A) (A) (A)
                 (A) (A) (A) (A) (A) (A) (A) (A) (A) (A) (A) (A)
                 (A) (A) (A) (A) (A) (A) (A) (A) (A) (A) (A)
 The electronic state is 1-A.
 Alpha  occ. eigenvalues --  -14.30613 -14.30397 -10.19767 -10.19761 -10.17884
 Alpha  occ. eigenvalues --  -10.17284 -10.17263 -10.16826  -0.87662  -0.87364
 Alpha  occ. eigenvalues --   -0.79294  -0.73208  -0.66966  -0.63758  -0.58313
 Alpha  occ. eigenvalues --   -0.55773  -0.48947  -0.47954  -0.45884  -0.44826
 Alpha  occ. eigenvalues --   -0.43334  -0.41657  -0.40757  -0.38536  -0.36878
 Alpha  occ. eigenvalues --   -0.35490  -0.35065  -0.33434  -0.32427  -0.31853
 Alpha  occ. eigenvalues --   -0.31201  -0.23014  -0.22697
 Alpha virt. eigenvalues --    0.08158   0.09073   0.10912   0.11616   0.12637
 Alpha virt. eigenvalues --    0.13676   0.15217   0.16110   0.16648   0.17164
 Alpha virt. eigenvalues --    0.17966   0.19775   0.20352   0.20687   0.22134
 Alpha virt. eigenvalues --    0.22273   0.23885   0.24715   0.25522   0.26478
 Alpha virt. eigenvalues --    0.27821   0.31958   0.32839   0.49128   0.52286
 Alpha virt. eigenvalues --    0.53278   0.54158   0.54790   0.56682   0.59330
 Alpha virt. eigenvalues --    0.62009   0.64401   0.65650   0.66877   0.68551
 Alpha virt. eigenvalues --    0.69911   0.72218   0.72925   0.74807   0.75096
 Alpha virt. eigenvalues --    0.77204   0.79351   0.80108   0.81299   0.83436
 Alpha virt. eigenvalues --    0.85118   0.86885   0.87750   0.88414   0.89747
 Alpha virt. eigenvalues --    0.90390   0.91208   0.92720   0.93046   0.93576
 Alpha virt. eigenvalues --    0.94634   0.94958   0.96288   0.97093   0.99416
 Alpha virt. eigenvalues --    1.01378   1.03645   1.07083   1.16260   1.23983
 Alpha virt. eigenvalues --    1.27618   1.30545   1.33258   1.35878   1.38737
 Alpha virt. eigenvalues --    1.45784   1.49285   1.50125   1.54700   1.54845
 Alpha virt. eigenvalues --    1.61979   1.64086   1.66550   1.69346   1.71822
 Alpha virt. eigenvalues --    1.75620   1.81301   1.82763   1.84205   1.86211
 Alpha virt. eigenvalues --    1.86986   1.89087   1.89450   1.91108   1.97095
 Alpha virt. eigenvalues --    1.97732   1.99708   2.01818   2.06143   2.08025
 Alpha virt. eigenvalues --    2.08727   2.09376   2.12324   2.12852   2.14283
 Alpha virt. eigenvalues --    2.15091   2.17951   2.23011   2.24098   2.24743
 Alpha virt. eigenvalues --    2.25521   2.27299   2.29082   2.30030   2.31429
 Alpha virt. eigenvalues --    2.32848   2.35304   2.36510   2.38955   2.41488
 Alpha virt. eigenvalues --    2.42556   2.46975   2.48595   2.52034   2.57564
 Alpha virt. eigenvalues --    2.59025   2.61410   2.62650   2.68420   2.69856
 Alpha virt. eigenvalues --    2.70838   2.71456   2.73757   2.76141   2.77178
 Alpha virt. eigenvalues --    2.80280   2.81880   2.86569   2.88532   2.89409
 Alpha virt. eigenvalues --    2.91513   2.92384   2.93852   2.94151   2.96255
 Alpha virt. eigenvalues --    2.98144   2.99066   3.00773   3.20475   3.24766
 Alpha virt. eigenvalues --    3.27046   3.28379   3.30532   3.31997   3.34324
 Alpha virt. eigenvalues --    3.36790   3.39759   3.46126   3.46637   3.48487
 Alpha virt. eigenvalues --    3.52686   3.56971   3.58106   3.60588   3.99104
 Alpha virt. eigenvalues --    4.03357   4.30383   4.41499   4.53204   4.55976
 Alpha virt. eigenvalues --    4.65175   4.77471
          Condensed to atoms (all electrons):
               1          2          3          4          5          6
     1  N    6.769488   0.316658  -0.066962  -0.006846   0.004854  -0.000120
     2  C    0.316658   4.829785   0.373292  -0.046689  -0.037189   0.003144
     3  C   -0.066962   0.373292   4.958343   0.369324   0.346986  -0.028686
     4  C   -0.006846  -0.046689   0.369324   4.977135  -0.044385  -0.005497
     5  C    0.004854  -0.037189   0.346986  -0.044385   4.955472   0.348391
     6  C   -0.000120   0.003144  -0.028686  -0.005497   0.348391   4.951894
     7  C    0.000001  -0.000086   0.003161   0.000259  -0.033793   0.370404
     8  N   -0.000000   0.000000  -0.000075   0.000001   0.003241  -0.053561
     9  H    0.350472  -0.043389  -0.004078   0.003267   0.000041   0.000002
    10  H    0.348096  -0.046684  -0.003730  -0.001003   0.000093  -0.000003
    11  H   -0.040557   0.382424  -0.045787   0.005642  -0.003446  -0.000075
    12  H   -0.036538   0.380953  -0.041444  -0.008030  -0.002987  -0.000074
    13  H   -0.003147  -0.043126   0.383618  -0.050015  -0.041680  -0.006291
    14  H    0.007643  -0.006754  -0.033012   0.369619   0.005683   0.000074
    15  H    0.000206   0.004711  -0.028983   0.380847  -0.005541   0.001638
    16  H   -0.000159  -0.005083  -0.036024   0.381697  -0.005507  -0.000595
    17  H   -0.000003  -0.004642  -0.035695  -0.008416   0.377479  -0.038977
    18  H    0.000153  -0.005370  -0.039610   0.005710   0.381501  -0.042609
    19  H   -0.000000   0.000024  -0.004916   0.001541  -0.035363   0.384925
    20  H   -0.000003   0.000139  -0.004078  -0.000960  -0.036842   0.375031
    21  H    0.000000   0.000008   0.000063  -0.000015   0.001199  -0.049203
    22  H    0.000000  -0.000006  -0.000082  -0.000001  -0.005619  -0.030998
    23  H    0.000000  -0.000000   0.000002   0.000000  -0.000239   0.005817
    24  H    0.000000  -0.000000  -0.000001  -0.000004  -0.000132  -0.006180
               7          8          9         10         11         12
     1  N    0.000001  -0.000000   0.350472   0.348096  -0.040557  -0.036538
     2  C   -0.000086   0.000000  -0.043389  -0.046684   0.382424   0.380953
     3  C    0.003161  -0.000075  -0.004078  -0.003730  -0.045787  -0.041444
     4  C    0.000259   0.000001   0.003267  -0.001003   0.005642  -0.008030
     5  C   -0.033793   0.003241   0.000041   0.000093  -0.003446  -0.002987
     6  C    0.370404  -0.053561   0.000002  -0.000003  -0.000075  -0.000074
     7  C    4.800888   0.288917   0.000000   0.000000   0.000002   0.000003
     8  N    0.288917   6.827628   0.000000  -0.000000   0.000000  -0.000000
     9  H    0.000000   0.000000   0.472873  -0.035029   0.006520  -0.006601
    10  H    0.000000  -0.000000  -0.035029   0.480047  -0.004144   0.006616
    11  H    0.000002   0.000000   0.006520  -0.004144   0.638272  -0.037289
    12  H    0.000003  -0.000000  -0.006601   0.006616  -0.037289   0.630329
    13  H    0.000055  -0.000003  -0.000209   0.006330  -0.004195   0.006112
    14  H   -0.000000  -0.000000   0.005070   0.001201   0.000118   0.000210
    15  H   -0.000113   0.000006  -0.000188  -0.000024  -0.000177  -0.000020
    16  H   -0.000029   0.000000   0.000286   0.000092  -0.000002   0.005191
    17  H   -0.003638  -0.000017   0.000005   0.000015  -0.000380   0.004360
    18  H   -0.005288   0.000070   0.000005   0.000010   0.006725  -0.000289
    19  H   -0.038632  -0.003054  -0.000001   0.000000   0.000000   0.000004
    20  H   -0.038030   0.005364   0.000000  -0.000002  -0.000002   0.000005
    21  H    0.387025  -0.053706   0.000000  -0.000000   0.000001  -0.000002
    22  H    0.385392  -0.041718  -0.000000   0.000000  -0.000002   0.000001
    23  H   -0.032277   0.336391  -0.000000   0.000000   0.000000   0.000000
    24  H   -0.038165   0.340839   0.000000   0.000000  -0.000000   0.000000
              13         14         15         16         17         18
     1  N   -0.003147   0.007643   0.000206  -0.000159  -0.000003   0.000153
     2  C   -0.043126  -0.006754   0.004711  -0.005083  -0.004642  -0.005370
     3  C    0.383618  -0.033012  -0.028983  -0.036024  -0.035695  -0.039610
     4  C   -0.050015   0.369619   0.380847   0.381697  -0.008416   0.005710
     5  C   -0.041680   0.005683  -0.005541  -0.005507   0.377479   0.381501
     6  C   -0.006291   0.000074   0.001638  -0.000595  -0.038977  -0.042609
     7  C    0.000055  -0.000000  -0.000113  -0.000029  -0.003638  -0.005288
     8  N   -0.000003  -0.000000   0.000006   0.000000  -0.000017   0.000070
     9  H   -0.000209   0.005070  -0.000188   0.000286   0.000005   0.000005
    10  H    0.006330   0.001201  -0.000024   0.000092   0.000015   0.000010
    11  H   -0.004195   0.000118  -0.000177  -0.000002  -0.000380   0.006725
    12  H    0.006112   0.000210  -0.000020   0.005191   0.004360  -0.000289
    13  H    0.662705  -0.003234  -0.003724   0.006003   0.006252  -0.003770
    14  H   -0.003234   0.623058  -0.030489  -0.032666  -0.000010  -0.000178
    15  H   -0.003724  -0.030489   0.603845  -0.031752   0.000029  -0.000005
    16  H    0.006003  -0.032666  -0.031752   0.609892   0.005376   0.000016
    17  H    0.006252  -0.000010   0.000029   0.005376   0.643497  -0.039304
    18  H   -0.003770  -0.000178  -0.000005   0.000016  -0.039304   0.647976
    19  H   -0.000216  -0.000134   0.002301   0.000487  -0.006604   0.005974
    20  H    0.005758  -0.000043   0.000797   0.000086   0.006053  -0.004980
    21  H    0.000002  -0.000000   0.000018  -0.000000   0.004795  -0.000688
    22  H    0.000010   0.000000  -0.000001   0.000001  -0.000521   0.005788
    23  H    0.000000   0.000000  -0.000000  -0.000000   0.000002   0.000002
    24  H    0.000001   0.000000  -0.000006   0.000000   0.000001   0.000018
              19         20         21         22         23         24
     1  N   -0.000000  -0.000003   0.000000   0.000000   0.000000   0.000000
     2  C    0.000024   0.000139   0.000008  -0.000006  -0.000000  -0.000000
     3  C   -0.004916  -0.004078   0.000063  -0.000082   0.000002  -0.000001
     4  C    0.001541  -0.000960  -0.000015  -0.000001   0.000000  -0.000004
     5  C   -0.035363  -0.036842   0.001199  -0.005619  -0.000239  -0.000132
     6  C    0.384925   0.375031  -0.049203  -0.030998   0.005817  -0.006180
     7  C   -0.038632  -0.038030   0.387025   0.385392  -0.032277  -0.038165
     8  N   -0.003054   0.005364  -0.053706  -0.041718   0.336391   0.340839
     9  H   -0.000001   0.000000   0.000000  -0.000000  -0.000000   0.000000
    10  H    0.000000  -0.000002  -0.000000   0.000000   0.000000   0.000000
    11  H    0.000000  -0.000002   0.000001  -0.000002   0.000000  -0.000000
    12  H    0.000004   0.000005  -0.000002   0.000001   0.000000   0.000000
    13  H   -0.000216   0.005758   0.000002   0.000010   0.000000   0.000001
    14  H   -0.000134  -0.000043  -0.000000   0.000000   0.000000   0.000000
    15  H    0.002301   0.000797   0.000018  -0.000001  -0.000000  -0.000006
    16  H    0.000487   0.000086  -0.000000   0.000001  -0.000000   0.000000
    17  H   -0.006604   0.006053   0.004795  -0.000521   0.000002   0.000001
    18  H    0.005974  -0.004980  -0.000688   0.005788   0.000002   0.000018
    19  H    0.633291  -0.041178  -0.007730   0.005863  -0.000003   0.005896
    20  H   -0.041178   0.640441   0.006899  -0.007451  -0.000096  -0.000713
    21  H   -0.007730   0.006899   0.688543  -0.049823  -0.004073  -0.005309
    22  H    0.005863  -0.007451  -0.049823   0.636224  -0.003333   0.006683
    23  H   -0.000003  -0.000096  -0.004073  -0.003333   0.482406  -0.032163
    24  H    0.005896  -0.000713  -0.005309   0.006683  -0.032163   0.481832
 Mulliken charges:
               1
     1  N   -0.643234
     2  C   -0.052121
     3  C   -0.061624
     4  C   -0.323181
     5  C   -0.172217
     6  C   -0.178449
     7  C   -0.046054
     8  N   -0.650323
     9  H    0.250951
    10  H    0.248118
    11  H    0.096352
    12  H    0.099488
    13  H    0.082763
    14  H    0.093843
    15  H    0.106624
    16  H    0.102691
    17  H    0.090344
    18  H    0.088142
    19  H    0.097524
    20  H    0.093804
    21  H    0.081997
    22  H    0.099595
    23  H    0.247563
    24  H    0.247404
 Sum of Mulliken charges =  -0.00000
 Mulliken charges with hydrogens summed into heavy atoms:
               1
     1  N   -0.144165
     2  C    0.143719
     3  C    0.021139
     4  C   -0.020023
     5  C    0.006269
     6  C    0.012879
     7  C    0.135538
     8  N   -0.155356
 APT charges:
               1
     1  N   -0.957792
     2  C   -0.644984
     3  C   -0.301873
     4  C   -1.080942
     5  C   -0.616131
     6  C   -0.585023
     7  C   -0.511100
     8  N   -1.561343
     9  H    0.485685
    10  H    0.419904
    11  H    0.334947
    12  H    0.345278
    13  H    0.287424
    14  H    0.483832
    15  H    0.274688
    16  H    0.334764
    17  H    0.309217
    18  H    0.322637
    19  H    0.298434
    20  H    0.289683
    21  H    0.360435
    22  H    0.350655
    23  H    0.904062
    24  H    0.457542
 Sum of APT charges =  -0.00000
 APT charges with hydrogens summed into heavy atoms:
               1
     1  N   -0.052202
     2  C    0.035241
     3  C   -0.014450
     4  C    0.012343
     5  C    0.015723
     6  C    0.003094
     7  C    0.199990
     8  N   -0.199739
 Electronic spatial extent (au):  <R**2>=           1796.7104
 Charge=             -0.0000 electrons
 Dipole moment (field-independent basis, Debye):
    X=              1.2031    Y=              1.2367    Z=              1.1390  Tot=              2.0674
 Quadrupole moment (field-independent basis, Debye-Ang):
   XX=            -58.4202   YY=            -52.0101   ZZ=            -52.7981
   XY=             -5.6466   XZ=              8.1862   YZ=              0.8339
 Traceless Quadrupole moment (field-independent basis, Debye-Ang):
   XX=             -4.0108   YY=              2.3994   ZZ=              1.6114
   XY=             -5.6466   XZ=              8.1862   YZ=              0.8339
 Octapole moment (field-independent basis, Debye-Ang**2):
  XXX=             66.2149  YYY=              1.0102  ZZZ=             -0.9902  XYY=              9.4548
  XXY=             25.6104  XXZ=             21.2974  XZZ=            -13.3714  YZZ=             -0.7348
  YYZ=             -0.9149  XYZ=              2.1398
 Hexadecapole moment (field-independent basis, Debye-Ang**3):
 XXXX=          -1983.2866 YYYY=           -279.7451 ZZZZ=           -122.2861 XXXY=           -121.7143
 XXXZ=            127.4503 YYYX=              4.5934 YYYZ=              1.6775 ZZZX=             19.6536
 ZZZY=              2.0361 XXYY=           -358.5497 XXZZ=           -353.3149 YYZZ=            -69.7855
 XXYZ=              7.4530 YYXZ=              2.1332 ZZXY=              0.9563
 N-N= 3.952432174704D+02 E-N=-1.596409909817D+03  KE= 3.444687648950D+02
  Exact polarizability:   0.000   0.000   0.000   0.000   0.000   0.000
 Approx polarizability: 107.496  -1.875 105.855   1.228   1.010 102.982
 D2PCM: PCM CHGder 2nd derivatives, FixD1E=F FixD2E=F DoIter=F DoCFld=F I1PDM=0
 Calling FoFJK, ICntrl=    100147 FMM=F ISym2X=0 I1Cent= 0 IOpClX= 0 NMat=1 NMatS=1 NMatT=0.
 ***** Axes restored to original set *****
 -------------------------------------------------------------------
 Center     Atomic                   Forces (Hartrees/Bohr)
 Number     Number              X              Y              Z
 -------------------------------------------------------------------
      1        7          -0.011781304   -0.004296172   -0.000531347
      2        6          -0.000564981    0.011733775    0.001128847
      3        6           0.008574706   -0.013170829    0.000942801
      4        6          -0.000788015    0.003395996    0.000141565
      5        6          -0.002132380    0.007775629    0.001678127
      6        6          -0.000248684   -0.008260824   -0.004492629
      7        6           0.002221823    0.003370046    0.008137615
      8        7           0.008726276    0.011391522   -0.004965512
      9        1           0.000420806    0.000763809   -0.001612379
     10        1           0.000442219   -0.000848269    0.000942418
     11        1           0.001710019   -0.000278005   -0.000774631
     12        1           0.000184325   -0.000265080    0.001079525
     13        1          -0.001063090    0.000221538   -0.002209741
     14        1          -0.000752058   -0.000619899    0.000133765
     15        1           0.000170739   -0.000644134    0.000473356
     16        1           0.000305225   -0.000962350    0.000567698
     17        1          -0.000881230   -0.001011758    0.000357783
     18        1          -0.000452239   -0.000705505   -0.000572203
     19        1           0.000999570    0.001051261    0.000390500
     20        1           0.001773822    0.000557418    0.000154684
     21        1          -0.006761948   -0.008027065   -0.000990741
     22        1           0.000038273   -0.000037024   -0.000934783
     23        1          -0.000466582    0.001002808    0.001941299
     24        1           0.000324707   -0.002136888   -0.000986016
 -------------------------------------------------------------------
 Cartesian Forces:  Max     0.013170829 RMS     0.004042638
 FormGI is forming the generalized inverse of G from B-inverse, IUseBI=4.

 GradGradGradGradGradGradGradGradGradGradGradGradGradGradGradGradGradGrad
 Berny optimization.
 Internal  Forces:  Max     0.015777693 RMS     0.002813529
 Search for a local minimum.
 Step number   1 out of a maximum of  132
 All quantities printed in internal units (Hartrees-Bohrs-Radians)
 Mixed Optimization -- RFO/linear search
 Second derivative matrix not updated -- analytic derivatives used.
 ITU=  0
     Eigenvalues ---    0.00137   0.00201   0.00245   0.00289   0.00309
     Eigenvalues ---    0.00362   0.00386   0.03212   0.03249   0.03443
     Eigenvalues ---    0.03629   0.03838   0.03936   0.04039   0.04297
     Eigenvalues ---    0.04398   0.04565   0.04635   0.04677   0.04864
     Eigenvalues ---    0.05301   0.05312   0.06688   0.07302   0.08251
     Eigenvalues ---    0.08400   0.09800   0.11693   0.12130   0.12319
     Eigenvalues ---    0.13327   0.13528   0.13651   0.14787   0.15069
     Eigenvalues ---    0.16569   0.17380   0.17971   0.18332   0.18609
     Eigenvalues ---    0.21523   0.23832   0.24235   0.27270   0.28280
     Eigenvalues ---    0.29085   0.30388   0.31747   0.32367   0.32583
     Eigenvalues ---    0.32730   0.32972   0.33001   0.33315   0.33427
     Eigenvalues ---    0.33490   0.33760   0.33780   0.34200   0.34697
     Eigenvalues ---    0.37892   0.38334   0.43931   0.44087   0.44218
     Eigenvalues ---    0.44560
 RFO step:  Lambda=-4.43165264D-03 EMin= 1.37499472D-03
 Linear search not attempted -- first point.
 Iteration  1 RMS(Cart)=  0.03113996 RMS(Int)=  0.00048034
 Iteration  2 RMS(Cart)=  0.00072757 RMS(Int)=  0.00019005
 Iteration  3 RMS(Cart)=  0.00000045 RMS(Int)=  0.00019005
 Variable       Old X    -DE/DX   Delta X   Delta X   Delta X     New X
                                 (Linear)    (Quad)   (Total)
    R1        2.75765   0.00844   0.00000   0.01641   0.01641   2.77407
    R2        1.92447  -0.00158   0.00000  -0.00122  -0.00122   1.92325
    R3        1.92629  -0.00117   0.00000  -0.00018  -0.00018   1.92610
    R4        2.91784   0.00244   0.00000   0.00273   0.00273   2.92056
    R5        2.07118   0.00107   0.00000   0.00317   0.00317   2.07434
    R6        2.07147   0.00076   0.00000   0.00437   0.00437   2.07584
    R7        2.89700   0.00159   0.00000   0.00381   0.00381   2.90081
    R8        2.91986   0.00100   0.00000  -0.00698  -0.00698   2.91288
    R9        2.07540   0.00136   0.00000   0.00660   0.00660   2.08200
   R10        2.06791   0.00046   0.00000   0.00123   0.00123   2.06915
   R11        2.06723  -0.00015   0.00000  -0.00032  -0.00032   2.06691
   R12        2.06955   0.00114   0.00000   0.00417   0.00417   2.07371
   R13        2.89642   0.00400   0.00000   0.00295   0.00295   2.89936
   R14        2.07411   0.00093   0.00000   0.00440   0.00440   2.07851
   R15        2.07453   0.00071   0.00000   0.00287   0.00287   2.07739
   R16        2.88966   0.00072   0.00000   0.00152   0.00152   2.89118
   R17        2.07097   0.00062   0.00000   0.00395   0.00395   2.07492
   R18        2.07329   0.00012   0.00000   0.00150   0.00150   2.07479
   R19        2.75505   0.01212   0.00000   0.02467   0.02467   2.77972
   R20        2.07028   0.00540   0.00000   0.01576   0.01576   2.08604
   R21        2.06969   0.00092   0.00000   0.00424   0.00424   2.07393
   R22        1.92616  -0.00138   0.00000  -0.00149  -0.00149   1.92467
   R23        1.92611  -0.00123   0.00000   0.00023   0.00023   1.92634
    A1        1.92155   0.00038   0.00000  -0.00690  -0.00696   1.91459
    A2        1.91328  -0.00068   0.00000  -0.00810  -0.00816   1.90512
    A3        1.85268  -0.00041   0.00000  -0.01189  -0.01202   1.84066
    A4        1.98167   0.01578   0.00000   0.05990   0.05990   2.04157
    A5        1.87810  -0.00359   0.00000  -0.00039  -0.00049   1.87762
    A6        1.89946  -0.00525   0.00000  -0.01870  -0.01843   1.88103
    A7        1.91222  -0.00502   0.00000  -0.01827  -0.01883   1.89339
    A8        1.92469  -0.00488   0.00000  -0.02153  -0.02154   1.90315
    A9        1.86346   0.00228   0.00000  -0.00412  -0.00453   1.85893
   A10        1.94867  -0.00132   0.00000  -0.00315  -0.00340   1.94527
   A11        1.90025   0.00262   0.00000   0.01448   0.01443   1.91469
   A12        1.89116  -0.00150   0.00000  -0.02153  -0.02151   1.86964
   A13        1.94791   0.00008   0.00000   0.01323   0.01316   1.96106
   A14        1.88701   0.00104   0.00000   0.00115   0.00107   1.88808
   A15        1.88700  -0.00100   0.00000  -0.00559  -0.00552   1.88148
   A16        1.94651  -0.00010   0.00000  -0.00322  -0.00326   1.94325
   A17        1.94463   0.00076   0.00000   0.00804   0.00803   1.95266
   A18        1.93920  -0.00039   0.00000  -0.00590  -0.00591   1.93329
   A19        1.85703   0.00023   0.00000   0.01075   0.01072   1.86775
   A20        1.88618  -0.00009   0.00000  -0.00405  -0.00409   1.88210
   A21        1.88688  -0.00043   0.00000  -0.00536  -0.00535   1.88153
   A22        1.98608   0.00648   0.00000   0.02285   0.02281   2.00889
   A23        1.91508  -0.00277   0.00000  -0.01318  -0.01325   1.90183
   A24        1.89707  -0.00196   0.00000  -0.00429  -0.00444   1.89263
   A25        1.90889  -0.00122   0.00000   0.00018   0.00026   1.90915
   A26        1.89180  -0.00164   0.00000   0.00122   0.00117   1.89297
   A27        1.86061   0.00081   0.00000  -0.00860  -0.00868   1.85193
   A28        1.93866   0.00648   0.00000   0.02915   0.02909   1.96775
   A29        1.91997  -0.00126   0.00000   0.00197   0.00200   1.92197
   A30        1.91092  -0.00070   0.00000   0.00730   0.00743   1.91835
   A31        1.90466  -0.00236   0.00000  -0.00948  -0.00971   1.89495
   A32        1.91477  -0.00306   0.00000  -0.01705  -0.01731   1.89746
   A33        1.87371   0.00068   0.00000  -0.01352  -0.01372   1.86000
   A34        1.92480   0.00257   0.00000   0.01045   0.01018   1.93497
   A35        1.92412  -0.00513   0.00000  -0.02261  -0.02363   1.90050
   A36        1.92236  -0.00053   0.00000  -0.01287  -0.01311   1.90925
   A37        1.90940   0.00626   0.00000   0.06474   0.06488   1.97427
   A38        1.90164  -0.00264   0.00000  -0.01822  -0.01801   1.88363
   A39        1.88083  -0.00053   0.00000  -0.02161  -0.02191   1.85892
   A40        1.90891   0.00186   0.00000  -0.00528  -0.00544   1.90347
   A41        1.91546  -0.00225   0.00000  -0.01978  -0.01994   1.89552
   A42        1.85413  -0.00094   0.00000  -0.02023  -0.02059   1.83354
    D1       -1.13474   0.00058   0.00000   0.03534   0.03551  -1.09923
    D2        3.02911  -0.00061   0.00000   0.02048   0.02025   3.04936
    D3        1.01600   0.00130   0.00000   0.03511   0.03507   1.05106
    D4        0.89714  -0.00009   0.00000   0.01218   0.01242   0.90956
    D5       -1.22220  -0.00128   0.00000  -0.00268  -0.00283  -1.22503
    D6        3.04787   0.00063   0.00000   0.01195   0.01198   3.05985
    D7        1.09817  -0.00099   0.00000  -0.02424  -0.02420   1.07397
    D8       -3.02654   0.00007   0.00000   0.00063   0.00064  -3.02590
    D9       -0.97809  -0.00052   0.00000  -0.01005  -0.01012  -0.98821
   D10       -3.08486   0.00136   0.00000   0.00216   0.00204  -3.08282
   D11       -0.92639   0.00242   0.00000   0.02704   0.02689  -0.89950
   D12        1.12206   0.00183   0.00000   0.01636   0.01612   1.13818
   D13       -1.03868  -0.00175   0.00000  -0.02649  -0.02626  -1.06494
   D14        1.11979  -0.00070   0.00000  -0.00161  -0.00142   1.11838
   D15       -3.11494  -0.00129   0.00000  -0.01229  -0.01218  -3.12712
   D16       -1.02541   0.00196   0.00000   0.03676   0.03676  -0.98865
   D17       -3.09774   0.00123   0.00000   0.01997   0.01997  -3.07777
   D18        1.08022   0.00151   0.00000   0.02535   0.02537   1.10559
   D19        3.12648  -0.00054   0.00000   0.01082   0.01084   3.13731
   D20        1.05415  -0.00127   0.00000  -0.00597  -0.00596   1.04819
   D21       -1.05108  -0.00098   0.00000  -0.00059  -0.00055  -1.05163
   D22        1.05331  -0.00001   0.00000   0.00914   0.00911   1.06242
   D23       -1.01902  -0.00075   0.00000  -0.00765  -0.00769  -1.02670
   D24       -3.12425  -0.00046   0.00000  -0.00227  -0.00228  -3.12653
   D25        3.01174  -0.00053   0.00000  -0.01435  -0.01439   2.99736
   D26       -1.12641   0.00039   0.00000  -0.00782  -0.00795  -1.13436
   D27        0.90201  -0.00129   0.00000  -0.02786  -0.02789   0.87412
   D28       -1.11251  -0.00031   0.00000   0.00077   0.00088  -1.11163
   D29        1.03252   0.00061   0.00000   0.00730   0.00732   1.03983
   D30        3.06094  -0.00106   0.00000  -0.01274  -0.01263   3.04831
   D31        0.96066   0.00038   0.00000   0.00646   0.00647   0.96713
   D32        3.10569   0.00131   0.00000   0.01299   0.01291   3.11859
   D33       -1.14908  -0.00037   0.00000  -0.00705  -0.00704  -1.15612
   D34       -3.03367  -0.00004   0.00000  -0.01343  -0.01346  -3.04713
   D35        1.13881  -0.00047   0.00000  -0.02195  -0.02201   1.11679
   D36       -0.91630  -0.00013   0.00000  -0.01101  -0.01092  -0.92722
   D37        1.10111  -0.00008   0.00000  -0.01256  -0.01262   1.08849
   D38       -1.00961  -0.00052   0.00000  -0.02108  -0.02117  -1.03078
   D39       -3.06471  -0.00018   0.00000  -0.01014  -0.01008  -3.07479
   D40       -0.92098   0.00052   0.00000  -0.00309  -0.00309  -0.92407
   D41       -3.03170   0.00008   0.00000  -0.01161  -0.01164  -3.04334
   D42        1.19638   0.00043   0.00000  -0.00068  -0.00055   1.19584
   D43        3.13692  -0.00256   0.00000  -0.02441  -0.02431   3.11261
   D44       -1.03593   0.00360   0.00000   0.04854   0.04818  -0.98775
   D45        1.03739  -0.00058   0.00000  -0.00018  -0.00004   1.03736
   D46       -1.02656  -0.00154   0.00000  -0.00952  -0.00948  -1.03604
   D47        1.08377   0.00462   0.00000   0.06343   0.06302   1.14679
   D48       -3.12609   0.00044   0.00000   0.01472   0.01479  -3.11130
   D49        1.02181  -0.00386   0.00000  -0.04120  -0.04091   0.98090
   D50        3.13215   0.00229   0.00000   0.03176   0.03158  -3.11946
   D51       -1.07771  -0.00188   0.00000  -0.01696  -0.01664  -1.09436
   D52        3.09611  -0.00050   0.00000   0.01753   0.01804   3.11415
   D53        1.06851   0.00085   0.00000   0.05617   0.05648   1.12498
   D54        0.97699   0.00017   0.00000  -0.00301  -0.00344   0.97355
   D55       -1.05061   0.00152   0.00000   0.03563   0.03500  -1.01561
   D56       -1.07514  -0.00124   0.00000  -0.00348  -0.00326  -1.07840
   D57       -3.10274   0.00011   0.00000   0.03517   0.03518  -3.06756
         Item               Value     Threshold  Converged?
 Maximum Force            0.015778     0.000450     NO 
 RMS     Force            0.002814     0.000300     NO 
 Maximum Displacement     0.132627     0.001800     NO 
 RMS     Displacement     0.030969     0.001200     NO 
 Predicted change in Energy=-2.313856D-03
 GradGradGradGradGradGradGradGradGradGradGradGradGradGradGradGradGradGrad

                          Input orientation:                          
 ---------------------------------------------------------------------
 Center     Atomic      Atomic             Coordinates (Angstroms)
 Number     Number       Type             X           Y           Z
 ---------------------------------------------------------------------
      1          7           0       -3.658979   -0.356551   -0.519992
      2          6           0       -2.272952   -0.826593   -0.633717
      3          6           0       -1.167499    0.116439   -0.107203
      4          6           0       -1.326517    0.383796    1.395990
      5          6           0        0.218238   -0.461116   -0.456727
      6          6           0        1.403057    0.470032   -0.168322
      7          6           0        2.736302   -0.100991   -0.655278
      8          7           0        3.836094    0.840238   -0.393973
      9          1           0       -3.901891   -0.238914    0.461310
     10          1           0       -3.731636    0.573210   -0.931254
     11          1           0       -2.078672   -1.032528   -1.694275
     12          1           0       -2.201508   -1.789830   -0.110512
     13          1           0       -1.277339    1.074394   -0.640216
     14          1           0       -2.314187    0.797368    1.624844
     15          1           0       -0.586475    1.100703    1.763000
     16          1           0       -1.209049   -0.543603    1.970740
     17          1           0        0.357840   -1.408115    0.085018
     18          1           0        0.228759   -0.716911   -1.525811
     19          1           0        1.478171    0.662831    0.910009
     20          1           0        1.239713    1.443163   -0.649760
     21          1           0        2.892599   -1.089983   -0.190496
     22          1           0        2.686471   -0.269871   -1.738539
     23          1           0        4.711837    0.422891   -0.704169
     24          1           0        3.937623    0.949941    0.614382
 ---------------------------------------------------------------------
                    Distance matrix (angstroms):
                    1          2          3          4          5
     1  N    0.000000
     2  C    1.467973   0.000000
     3  C    2.569356   1.545495   0.000000
     4  C    3.107971   2.545681   1.535043   0.000000
     5  C    3.879143   2.524070   1.541429   2.555916   0.000000
     6  C    5.141121   3.925668   2.595480   3.147234   1.534278
     7  C    6.401816   5.061580   3.948079   4.577032   2.551423
     8  N    7.591068   6.336896   5.063799   5.483143   3.845301
     9  H    1.017742   2.048876   2.815383   2.809616   4.227012
    10  H    1.019250   2.043461   2.731757   3.352094   4.110536
    11  H    2.081647   1.097696   2.160824   3.481587   2.670924
    12  H    2.084750   1.098486   2.168651   2.785643   2.782178
    13  H    2.781055   2.145936   1.101747   2.150693   2.151328
    14  H    2.782142   2.782094   2.185988   1.094947   3.511395
    15  H    4.095842   3.507553   2.191808   1.093762   2.830906
    16  H    3.498698   2.827573   2.180649   1.097362   2.817188
    17  H    4.196029   2.788515   2.165149   2.786871   1.099902
    18  H    4.031878   2.658274   2.157882   3.488174   1.099310
    19  H    5.429029   4.321157   2.886664   2.860124   2.172246
    20  H    5.220440   4.182208   2.801648   3.448606   2.169551
    21  H    6.600732   5.191217   4.236365   4.742352   2.760174
    22  H    6.461974   5.111404   4.202806   5.133870   2.787793
    23  H    8.409044   7.096017   5.917505   6.393271   4.586407
    24  H    7.791155   6.579139   5.222804   5.351878   4.119731
                    6          7          8          9         10
     6  C    0.000000
     7  C    1.529947   0.000000
     8  N    2.471364   1.470963   0.000000
     9  H    5.389017   6.732859   7.859547   0.000000
    10  H    5.192088   6.508835   7.591476   1.621038   0.000000
    11  H    4.087622   5.013109   6.338966   2.932660   2.427526
    12  H    4.254786   5.246991   6.591680   2.371418   2.932382
    13  H    2.787914   4.182234   5.124711   3.134710   2.521797
    14  H    4.140108   5.613684   6.473285   2.224521   2.931389
    15  H    2.843587   4.281703   4.927422   3.805384   4.174840
    16  H    3.525073   4.760008   5.741111   3.102033   4.004033
    17  H    2.164277   2.813129   4.169266   4.433275   4.656422
    18  H    2.151879   2.724878   4.088843   4.608622   4.207450
    19  H    1.098003   2.148591   2.700304   5.473530   5.526333
    20  H    1.097929   2.150400   2.677712   5.522675   5.054737
    21  H    2.157052   1.103882   2.158087   6.878536   6.869892
    22  H    2.158747   1.097478   2.088500   6.945992   6.523388
    23  H    3.352220   2.044402   1.018492   8.717375   8.447863
    24  H    2.695731   2.039526   1.019374   7.930623   7.832525
                   11         12         13         14         15
    11  H    0.000000
    12  H    1.759801   0.000000
    13  H    2.488433   3.055888   0.000000
    14  H    3.797438   3.117330   2.506450   0.000000
    15  H    4.327826   3.804413   2.500686   1.759571   0.000000
    16  H    3.798371   2.621004   3.072404   1.771772   1.770451
    17  H    3.040319   2.595033   3.059841   3.791430   3.162518
    18  H    2.335002   3.010054   2.502276   4.322758   3.845075
    19  H    4.723099   4.538397   3.188325   3.861485   2.276420
    20  H    4.269864   4.752371   2.543940   4.268615   3.045266
    21  H    5.194053   5.142578   4.719657   5.828222   4.551836
    22  H    4.825992   5.371507   4.327258   6.120288   4.985120
    23  H    7.014953   7.283056   6.024847   7.411447   5.883746
    24  H    6.742099   6.761712   5.365197   6.334780   4.670066
                   16         17         18         19         20
    16  H    0.000000
    17  H    2.599705   0.000000
    18  H    3.784600   1.757611   0.000000
    19  H    3.130780   2.494909   3.065605   0.000000
    20  H    4.100084   3.073660   2.540751   1.760300   0.000000
    21  H    4.668296   2.569459   3.003047   2.506806   3.059377
    22  H    5.385978   3.169146   2.507079   3.056915   2.492596
    23  H    6.568573   4.788809   4.698109   3.622118   3.619332
    24  H    5.527985   4.319202   4.595051   2.493739   3.019941
                   21         22         23         24
    21  H    0.000000
    22  H    1.763947   0.000000
    23  H    2.421214   2.377382   0.000000
    24  H    2.429238   2.930795   1.617333   0.000000
 Stoichiometry    C6H16N2
 Framework group  C1[X(C6H16N2)]
 Deg. of freedom    66
 Full point group                 C1      NOp   1
 Largest Abelian subgroup         C1      NOp   1
 Largest concise Abelian subgroup C1      NOp   1
                         Standard orientation:                         
 ---------------------------------------------------------------------
 Center     Atomic      Atomic             Coordinates (Angstroms)
 Number     Number       Type             X           Y           Z
 ---------------------------------------------------------------------
      1          7           0       -3.641755   -0.428474   -0.308466
      2          6           0       -2.317246   -0.777175    0.219764
      3          6           0       -1.133632    0.119951   -0.207760
      4          6           0       -1.329355    1.568651    0.260554
      5          6           0        0.188797   -0.487146    0.300784
      6          6           0        1.460752    0.194275   -0.220562
      7          6           0        2.738250   -0.529261    0.209824
      8          7           0        3.928313    0.134661   -0.343973
      9          1           0       -3.914228    0.492159    0.029161
     10          1           0       -3.584867   -0.340222   -1.322294
     11          1           0       -2.099779   -1.808965   -0.085285
     12          1           0       -2.384476   -0.783411    1.316173
     13          1           0       -1.104658    0.115682   -1.309118
     14          1           0       -2.270737    1.984519   -0.113293
     15          1           0       -0.527543    2.223167   -0.093028
     16          1           0       -1.349084    1.624080    1.356338
     17          1           0        0.190233   -0.470440    1.400559
     18          1           0        0.218492   -1.547382    0.011821
     19          1           0        1.508124    1.230887    0.138329
     20          1           0        1.436062    0.243390   -1.317114
     21          1           0        2.754846   -0.600491    1.311281
     22          1           0        2.719012   -1.559097   -0.169023
     23          1           0        4.761994   -0.352472   -0.019929
     24          1           0        3.995303    1.069517    0.056875
 ---------------------------------------------------------------------
 Rotational constants (GHZ):           5.5968302           0.6790653           0.6355960
 Standard basis: 6-31G(d,p) (6D, 7F)
 There are   200 symmetry adapted cartesian basis functions of A   symmetry.
 There are   200 symmetry adapted basis functions of A   symmetry.
   200 basis functions,   336 primitive gaussians,   200 cartesian basis functions
    33 alpha electrons       33 beta electrons
       nuclear repulsion energy       393.1224775137 Hartrees.
 NAtoms=   24 NActive=   24 NUniq=   24 SFac= 1.00D+00 NAtFMM=   60 NAOKFM=F Big=F
 Integral buffers will be    131072 words long.
 Raffenetti 2 integral format.
 Two-electron integral symmetry is turned on.
 ------------------------------------------------------------------------------
 Polarizable Continuum Model (PCM)
 =================================
 Model                : PCM.
 Atomic radii         : UFF (Universal Force Field).
 Polarization charges : Total charges.
 Charge compensation  : None.
 Solution method      : Matrix inversion.
 Cavity type          : Scaled VdW (van der Waals Surface) (Alpha=1.100).
 Cavity algorithm     : GePol (No added spheres)
                        Default sphere list used, NSphG=   24.
                        Lebedev-Laikov grids with approx.  5.0 points / Ang**2.
                        Smoothing algorithm: York/Karplus (Gamma=1.0000).
                        Polarization charges: spherical gaussians, with
                                              point-specific exponents (IZeta= 3).
                        Self-potential: point-specific (ISelfS= 7).
                        Self-field    : sphere-specific E.n sum rule (ISelfD= 2).
 1st derivatives      : Analytical E(r).r(x)/FMM algorithm (CHGder, D1EAlg=3).
                        Cavity 1st derivative terms included.
 Solvent              : Water, Eps=  78.355300 Eps(inf)=   1.777849
 ------------------------------------------------------------------------------
 One-electron integrals computed using PRISM.
 NBasis=   200 RedAO= T EigKep=  2.78D-03  NBF=   200
 NBsUse=   200 1.00D-06 EigRej= -1.00D+00 NBFU=   200
 Initial guess from the checkpoint file:  "JZUHIOJYCPIVLQ-LURJTMIESA-N_conf_0_0.chk"
 B after Tr=    -0.000000    0.000000   -0.000000
         Rot=    0.999983    0.005914    0.000085    0.000018 Ang=   0.68 deg.
 ExpMin= 1.61D-01 ExpMax= 4.17D+03 ExpMxC= 6.27D+02 IAcc=2 IRadAn=         4 AccDes= 0.00D+00
 Harris functional with IExCor=  402 and IRadAn=       4 diagonalized for initial guess.
 HarFok:  IExCor=  402 AccDes= 0.00D+00 IRadAn=         4 IDoV= 1 UseB2=F ITyADJ=14
 ICtDFT=  3500011 ScaDFX=  1.000000  1.000000  1.000000  1.000000
 FoFCou: FMM=F IPFlag=           0 FMFlag=      100000 FMFlg1=           0
         NFxFlg=           0 DoJE=T BraDBF=F KetDBF=T FulRan=T
         wScrn=  0.000000 ICntrl=       500 IOpCl=  0 I1Cent=   200000004 NGrid=           0
         NMat0=    1 NMatS0=      1 NMatT0=    0 NMatD0=    1 NMtDS0=    0 NMtDT0=    0
 Petite list used in FoFCou.
 Keep R1 ints in memory in canonical form, NReq=206134434.
 Requested convergence on RMS density matrix=1.00D-08 within  32 cycles.
 Requested convergence on MAX density matrix=1.00D-06.
 Requested convergence on             energy=1.00D-06.
 No special actions if energy rises.
 Inv3:  Mode=1 IEnd=     8029488.
 Iteration    1 A*A^-1 deviation from unit magnitude is 2.78D-15 for     14.
 Iteration    1 A*A^-1 deviation from orthogonality  is 2.24D-15 for   1272    579.
 Iteration    1 A^-1*A deviation from unit magnitude is 2.89D-15 for    187.
 Iteration    1 A^-1*A deviation from orthogonality  is 2.78D-15 for   1233    628.
 Error on total polarization charges =  0.00905
 SCF Done:  E(RB3LYP) =  -347.801636388     A.U. after    9 cycles
            NFock=  9  Conv=0.32D-08     -V/T= 2.0099
 QCSCF skips out because SCF is already converged.
 D1PCM: PCM CHGder 1st derivatives, ID1Alg=3 FixD1E=F DoIter=F DoCFld=F I1PDM=0.
 Calling FoFJK, ICntrl=      2127 FMM=F ISym2X=0 I1Cent= 0 IOpClX= 0 NMat=1 NMatS=1 NMatT=0.
 ***** Axes restored to original set *****
 -------------------------------------------------------------------
 Center     Atomic                   Forces (Hartrees/Bohr)
 Number     Number              X              Y              Z
 -------------------------------------------------------------------
      1        7          -0.000823720   -0.000541794   -0.000015617
      2        6           0.000086331    0.001166315   -0.000065788
      3        6           0.000572660   -0.000831048    0.000527280
      4        6          -0.000053716    0.000373144   -0.000029354
      5        6          -0.000079598    0.000539945    0.000052690
      6        6           0.000005822   -0.000419890   -0.000493599
      7        6           0.000080966   -0.000329306    0.000916068
      8        7           0.000275255    0.000963493   -0.000168077
      9        1           0.000023646    0.000195088   -0.000034205
     10        1          -0.000044362   -0.000048431   -0.000017024
     11        1           0.000035064   -0.000209173    0.000006444
     12        1          -0.000022631   -0.000146040   -0.000182261
     13        1           0.000013917    0.000006362   -0.000082792
     14        1          -0.000045478   -0.000140896    0.000028554
     15        1          -0.000013260   -0.000026590    0.000025538
     16        1           0.000058375   -0.000019440    0.000020735
     17        1           0.000044090   -0.000095065   -0.000101483
     18        1          -0.000054253   -0.000117185    0.000015388
     19        1          -0.000043680    0.000279218   -0.000031261
     20        1           0.000029519    0.000049862    0.000046799
     21        1          -0.000367596   -0.000463570   -0.000336996
     22        1           0.000073530   -0.000032630   -0.000046166
     23        1           0.000031937    0.000037192   -0.000028643
     24        1           0.000217181   -0.000189562   -0.000006232
 -------------------------------------------------------------------
 Cartesian Forces:  Max     0.001166315 RMS     0.000319598

 GradGradGradGradGradGradGradGradGradGradGradGradGradGradGradGradGradGrad
 Berny optimization.
 Using GEDIIS/GDIIS optimizer.
 FormGI is forming the generalized inverse of G from B-inverse, IUseBI=4.
 Internal  Forces:  Max     0.001163867 RMS     0.000197177
 Search for a local minimum.
 Step number   2 out of a maximum of  132
 All quantities printed in internal units (Hartrees-Bohrs-Radians)
 Mixed Optimization -- En-DIIS/RFO-DIIS
 Update second derivatives using D2CorX and points    1    2
 DE= -2.36D-03 DEPred=-2.31D-03 R= 1.02D+00
 TightC=F SS=  1.41D+00  RLast= 2.10D-01 DXNew= 5.0454D-01 6.3104D-01
 Trust test= 1.02D+00 RLast= 2.10D-01 DXMaxT set to 5.05D-01
 ITU=  1  0
 Use linear search instead of GDIIS.
     Eigenvalues ---    0.00137   0.00201   0.00246   0.00289   0.00309
     Eigenvalues ---    0.00362   0.00386   0.03213   0.03253   0.03443
     Eigenvalues ---    0.03632   0.03838   0.03933   0.04041   0.04298
     Eigenvalues ---    0.04397   0.04561   0.04641   0.04665   0.04863
     Eigenvalues ---    0.05270   0.05306   0.06689   0.07303   0.08271
     Eigenvalues ---    0.08408   0.09799   0.11682   0.12129   0.12318
     Eigenvalues ---    0.13317   0.13525   0.13668   0.14786   0.15061
     Eigenvalues ---    0.16564   0.17381   0.17980   0.18324   0.18607
     Eigenvalues ---    0.21484   0.23680   0.24285   0.27276   0.28219
     Eigenvalues ---    0.29059   0.30299   0.31746   0.32366   0.32582
     Eigenvalues ---    0.32730   0.32965   0.33001   0.33308   0.33373
     Eigenvalues ---    0.33469   0.33744   0.33770   0.34203   0.34694
     Eigenvalues ---    0.37434   0.37940   0.43936   0.44083   0.44217
     Eigenvalues ---    0.44553
 RFO step:  Lambda=-6.43776993D-05 EMin= 1.37496604D-03
 Quartic linear search produced a step of  0.08425.
 Iteration  1 RMS(Cart)=  0.01600611 RMS(Int)=  0.00014070
 Iteration  2 RMS(Cart)=  0.00022823 RMS(Int)=  0.00001724
 Iteration  3 RMS(Cart)=  0.00000003 RMS(Int)=  0.00001724
 Variable       Old X    -DE/DX   Delta X   Delta X   Delta X     New X
                                 (Linear)    (Quad)   (Total)
    R1        2.77407   0.00067   0.00138  -0.00032   0.00106   2.77513
    R2        1.92325  -0.00002  -0.00010   0.00027   0.00017   1.92342
    R3        1.92610  -0.00003  -0.00002   0.00014   0.00013   1.92623
    R4        2.92056   0.00038   0.00023   0.00073   0.00096   2.92152
    R5        2.07434   0.00004   0.00027  -0.00031  -0.00004   2.07430
    R6        2.07584   0.00004   0.00037   0.00024   0.00061   2.07645
    R7        2.90081   0.00008   0.00032  -0.00040  -0.00008   2.90073
    R8        2.91288   0.00015  -0.00059   0.00063   0.00005   2.91292
    R9        2.08200   0.00004   0.00056  -0.00023   0.00033   2.08233
   R10        2.06915  -0.00001   0.00010  -0.00008   0.00003   2.06918
   R11        2.06691  -0.00002  -0.00003   0.00000  -0.00003   2.06688
   R12        2.07371   0.00003   0.00035  -0.00022   0.00014   2.07385
   R13        2.89936   0.00014   0.00025  -0.00067  -0.00042   2.89894
   R14        2.07851   0.00004   0.00037  -0.00005   0.00032   2.07884
   R15        2.07739   0.00001   0.00024  -0.00007   0.00017   2.07757
   R16        2.89118   0.00017   0.00013   0.00034   0.00047   2.89165
   R17        2.07492   0.00002   0.00033  -0.00006   0.00027   2.07520
   R18        2.07479   0.00002   0.00013  -0.00015  -0.00002   2.07477
   R19        2.77972   0.00087   0.00208   0.00002   0.00210   2.78182
   R20        2.08604   0.00022   0.00133  -0.00071   0.00061   2.08665
   R21        2.07393   0.00005   0.00036  -0.00021   0.00015   2.07408
   R22        1.92467   0.00002  -0.00013   0.00039   0.00026   1.92494
   R23        1.92634  -0.00000   0.00002   0.00014   0.00016   1.92649
    A1        1.91459   0.00005  -0.00059   0.00081   0.00022   1.91481
    A2        1.90512   0.00003  -0.00069   0.00007  -0.00062   1.90450
    A3        1.84066  -0.00008  -0.00101  -0.00027  -0.00130   1.83936
    A4        2.04157   0.00116   0.00505   0.00136   0.00640   2.04797
    A5        1.87762  -0.00033  -0.00004  -0.00136  -0.00141   1.87621
    A6        1.88103  -0.00041  -0.00155   0.00020  -0.00133   1.87970
    A7        1.89339  -0.00022  -0.00159   0.00128  -0.00036   1.89303
[...]
    11  H    0.000121   0.000201   0.000006   0.000009   0.000000   0.000000
    12  H    0.000177   0.000059   0.000004   0.000003   0.000000   0.000000
    13  H    0.004381   0.011959   0.000026   0.000051   0.000000   0.000002
    14  H    0.001239   0.000226   0.000001   0.000000   0.000000   0.000000
    15  H    0.019437   0.002926   0.000042   0.000006   0.000000   0.000005
    16  H    0.002808   0.000228   0.000013   0.000002   0.000000   0.000001
    17  H   -0.003518   0.006354   0.005576  -0.000409   0.000002   0.000005
    18  H    0.008297  -0.002075  -0.000262   0.006159   0.000003   0.000021
    19  H    0.664605  -0.032200  -0.006119   0.006305   0.000019   0.005826
    20  H   -0.032200   0.644827   0.007276  -0.007375  -0.000058  -0.000624
    21  H   -0.006119   0.007276   0.684181  -0.048747  -0.002958  -0.005560
    22  H    0.006305  -0.007375  -0.048747   0.634258  -0.003959   0.006735
    23  H    0.000019  -0.000058  -0.002958  -0.003959   0.476469  -0.031941
    24  H    0.005826  -0.000624  -0.005560   0.006735  -0.031941   0.481953
 Mulliken charges:
               1
     1  N   -0.090515
     2  C   -0.100254
     3  C   -0.035509
     4  C   -0.246563
     5  C   -0.169050
     6  C   -0.167232
     7  C   -0.053934
     8  N   -0.643962
     9  H    0.000627
    10  H    0.035614
    11  H    0.112035
    12  H    0.113859
    13  H    0.049969
    14  H   -0.008533
    15  H    0.059492
    16  H    0.079732
    17  H    0.100362
    18  H    0.090278
    19  H    0.087772
    20  H    0.094465
    21  H    0.084858
    22  H    0.102911
    23  H    0.253248
    24  H    0.250330
 Sum of Mulliken charges =  -0.00000
 Mulliken charges with hydrogens summed into heavy atoms:
               1
     1  N   -0.054274
     2  C    0.125640
     3  C    0.014460
     4  C   -0.115872
     5  C    0.021590
     6  C    0.015005
     7  C    0.133835
     8  N   -0.140384
 Electronic spatial extent (au):  <R**2>=           1830.7786
 Charge=             -0.0000 electrons
 Dipole moment (field-independent basis, Debye):
    X=              0.6713    Y=             -2.0255    Z=              2.1220  Tot=              3.0094
 Quadrupole moment (field-independent basis, Debye-Ang):
   XX=            -51.8530   YY=            -55.4225   ZZ=            -57.2568
   XY=              4.5489   XZ=              5.8184   YZ=              0.0783
 Traceless Quadrupole moment (field-independent basis, Debye-Ang):
   XX=              2.9911   YY=             -0.5784   ZZ=             -2.4127
   XY=              4.5489   XZ=              5.8184   YZ=              0.0783
 Octapole moment (field-independent basis, Debye-Ang**2):
  XXX=             48.9499  YYY=             -8.8868  ZZZ=              6.0995  XYY=             16.0199
  XXY=            -15.5540  XXZ=             28.0087  XZZ=             -0.2063  YZZ=             -1.6237
  YYZ=              1.1398  XYZ=              3.4745
 Hexadecapole moment (field-independent basis, Debye-Ang**3):
 XXXX=          -1876.4747 YYYY=           -302.6697 ZZZZ=           -144.3811 XXXY=             45.1754
 XXXZ=            105.9089 YYYX=             26.8116 YYYZ=              0.7888 ZZZX=             -1.8970
 ZZZY=             -1.3282 XXYY=           -386.6820 XXZZ=           -405.9672 YYZZ=            -75.4388
 XXYZ=              3.9957 YYXZ=             -2.4393 ZZXY=              2.5310
 N-N= 3.928844388406D+02 E-N=-1.590250970301D+03  KE= 3.445484341049D+02
 Evaluate density.
 Using the total density.
 Monte-Carlo method of calculating molar volume:
 based on  0.001 e/bohr**3 density envelope.
 Number of points per bohr**3 =   20 CutOff= 1.00D-04
 Using the CI density.
 There are       367 points.  Will hold       367 in memory.
 LenV=  1073626756 MDV=  1073741824.
 Box volume = 6198.670 fraction occupied=0.177
 Integrated density= 3.9934038032092907D+01 error=-2.6065961967907093D+01
 Molar volume = 1097.857 bohr**3/mol ( 97.972 cm**3/mol)
 Recommended a0 for SCRF calculation =  4.23 angstrom (  7.99 bohr)
 ******************************Gaussian NBO Version 3.1******************************
             N A T U R A L   A T O M I C   O R B I T A L   A N D
          N A T U R A L   B O N D   O R B I T A L   A N A L Y S I S
 ******************************Gaussian NBO Version 3.1******************************
       /RESON  / : Allow strongly delocalized NBO set

 Analyzing the CI density

 Job title: JZUHIOJYCPIVLQ-LURJTMIESA-N_conf_0                              

 Storage needed:    121952 in NPA (1073738704 available)
 GSVD:  LWork=       21190 too small for GESVD, short by       15575 words or       15575 for optimal perf.


 NATURAL POPULATIONS:  Natural atomic orbital occupancies 
                                                          
   NAO  Atom  No  lang   Type(AO)    Occupancy
 --------------------------------------------
     1    N    1  S      Cor( 1S)     1.99937
     2    N    1  S      Val( 2S)     1.48369
     3    N    1  S      Ryd( 3S)     0.01508
     4    N    1  S      Ryd( 4S)     0.00001
     5    N    1  px     Val( 2p)     1.16870
     6    N    1  px     Ryd( 3p)     0.00000
     7    N    1  py     Val( 2p)     1.32780
     8    N    1  py     Ryd( 3p)     0.00542
     9    N    1  pz     Val( 2p)     1.39143
    10    N    1  pz     Ryd( 3p)     0.00212
    11    N    1  dxy    Ryd( 3d)     0.00000
    12    N    1  dxz    Ryd( 3d)     0.00030
    13    N    1  dyz    Ryd( 3d)     0.00005
    14    N    1  dx2y2  Ryd( 3d)     0.00088
    15    N    1  dz2    Ryd( 3d)     0.00075

    16    C    2  S      Cor( 1S)     1.99929
    17    C    2  S      Val( 2S)     1.04675
    18    C    2  S      Ryd( 3S)     0.00212
    19    C    2  S      Ryd( 4S)     0.00004
    20    C    2  px     Val( 2p)     0.88530
    21    C    2  px     Ryd( 3p)     0.00656
    22    C    2  py     Val( 2p)     1.18543
    23    C    2  py     Ryd( 3p)     0.00338
    24    C    2  pz     Val( 2p)     1.21934
    25    C    2  pz     Ryd( 3p)     0.00478
    26    C    2  dxy    Ryd( 3d)     0.00073
    27    C    2  dxz    Ryd( 3d)     0.00080
    28    C    2  dyz    Ryd( 3d)     0.00048
    29    C    2  dx2y2  Ryd( 3d)     0.00130
    30    C    2  dz2    Ryd( 3d)     0.00121

    31    C    3  S      Cor( 1S)     1.99918
    32    C    3  S      Val( 2S)     0.98592
    33    C    3  S      Ryd( 3S)     0.00095
    34    C    3  S      Ryd( 4S)     0.00003
    35    C    3  px     Val( 2p)     0.98304
    36    C    3  px     Ryd( 3p)     0.00275
    37    C    3  py     Val( 2p)     1.03104
    38    C    3  py     Ryd( 3p)     0.00272
    39    C    3  pz     Val( 2p)     1.22288
    40    C    3  pz     Ryd( 3p)     0.00277
    41    C    3  dxy    Ryd( 3d)     0.00088
    42    C    3  dxz    Ryd( 3d)     0.00040
    43    C    3  dyz    Ryd( 3d)     0.00043
    44    C    3  dx2y2  Ryd( 3d)     0.00065
    45    C    3  dz2    Ryd( 3d)     0.00117

    46    C    4  S      Cor( 1S)     1.99940
    47    C    4  S      Val( 2S)     1.11765
    48    C    4  S      Ryd( 3S)     0.00065
    49    C    4  S      Ryd( 4S)     0.00003
    50    C    4  px     Val( 2p)     1.24727
    51    C    4  px     Ryd( 3p)     0.00216
    52    C    4  py     Val( 2p)     1.10027
    53    C    4  py     Ryd( 3p)     0.00411
    54    C    4  pz     Val( 2p)     1.22621
    55    C    4  pz     Ryd( 3p)     0.00165
    56    C    4  dxy    Ryd( 3d)     0.00070
    57    C    4  dxz    Ryd( 3d)     0.00028
    58    C    4  dyz    Ryd( 3d)     0.00034
    59    C    4  dx2y2  Ryd( 3d)     0.00049
    60    C    4  dz2    Ryd( 3d)     0.00093

    61    C    5  S      Cor( 1S)     1.99929
    62    C    5  S      Val( 2S)     1.02717
    63    C    5  S      Ryd( 3S)     0.00093
    64    C    5  S      Ryd( 4S)     0.00002
    65    C    5  px     Val( 2p)     1.01517
    66    C    5  px     Ryd( 3p)     0.00224
    67    C    5  py     Val( 2p)     1.19448
    68    C    5  py     Ryd( 3p)     0.00410
    69    C    5  pz     Val( 2p)     1.21357
    70    C    5  pz     Ryd( 3p)     0.00318
    71    C    5  dxy    Ryd( 3d)     0.00049
    72    C    5  dxz    Ryd( 3d)     0.00040
    73    C    5  dyz    Ryd( 3d)     0.00025
    74    C    5  dx2y2  Ryd( 3d)     0.00092
    75    C    5  dz2    Ryd( 3d)     0.00114

    76    C    6  S      Cor( 1S)     1.99931
    77    C    6  S      Val( 2S)     1.03981
    78    C    6  S      Ryd( 3S)     0.00100
    79    C    6  S      Ryd( 4S)     0.00002
    80    C    6  px     Val( 2p)     1.02206
    81    C    6  px     Ryd( 3p)     0.00342
    82    C    6  py     Val( 2p)     1.18447
    83    C    6  py     Ryd( 3p)     0.00212
    84    C    6  pz     Val( 2p)     1.21274
    85    C    6  pz     Ryd( 3p)     0.00258
    86    C    6  dxy    Ryd( 3d)     0.00053
    87    C    6  dxz    Ryd( 3d)     0.00042
    88    C    6  dyz    Ryd( 3d)     0.00029
    89    C    6  dx2y2  Ryd( 3d)     0.00081
    90    C    6  dz2    Ryd( 3d)     0.00106

    91    C    7  S      Cor( 1S)     1.99935
    92    C    7  S      Val( 2S)     1.02090
    93    C    7  S      Ryd( 3S)     0.00210
    94    C    7  S      Ryd( 4S)     0.00004
    95    C    7  px     Val( 2p)     0.91486
    96    C    7  px     Ryd( 3p)     0.00214
    97    C    7  py     Val( 2p)     1.13389
    98    C    7  py     Ryd( 3p)     0.00140
    99    C    7  pz     Val( 2p)     1.17462
   100    C    7  pz     Ryd( 3p)     0.00281
   101    C    7  dxy    Ryd( 3d)     0.00087
   102    C    7  dxz    Ryd( 3d)     0.00099
   103    C    7  dyz    Ryd( 3d)     0.00054
   104    C    7  dx2y2  Ryd( 3d)     0.00112
   105    C    7  dz2    Ryd( 3d)     0.00135

   106    N    8  S      Cor( 1S)     1.99968
   107    N    8  S      Val( 2S)     1.44812
   108    N    8  S      Ryd( 3S)     0.00045
   109    N    8  S      Ryd( 4S)     0.00000
   110    N    8  px     Val( 2p)     1.29721
   111    N    8  px     Ryd( 3p)     0.00215
   112    N    8  py     Val( 2p)     1.35608
   113    N    8  py     Ryd( 3p)     0.00203
   114    N    8  pz     Val( 2p)     1.80960
   115    N    8  pz     Ryd( 3p)     0.00548
   116    N    8  dxy    Ryd( 3d)     0.00032
   117    N    8  dxz    Ryd( 3d)     0.00123
   118    N    8  dyz    Ryd( 3d)     0.00129
   119    N    8  dx2y2  Ryd( 3d)     0.00037
   120    N    8  dz2    Ryd( 3d)     0.00139

   121    H    9  S      Val( 1S)     0.73153
   122    H    9  S      Ryd( 2S)     0.07779
   123    H    9  px     Ryd( 2p)     0.00019
   124    H    9  py     Ryd( 2p)     0.00069
   125    H    9  pz     Ryd( 2p)     0.00026

   126    H   10  S      Val( 1S)     0.69968
   127    H   10  S      Ryd( 2S)     0.07662
   128    H   10  px     Ryd( 2p)     0.00023
   129    H   10  py     Ryd( 2p)     0.00020
   130    H   10  pz     Ryd( 2p)     0.00076

   131    H   11  S      Val( 1S)     0.74102
   132    H   11  S      Ryd( 2S)     0.01623
   133    H   11  px     Ryd( 2p)     0.00008
   134    H   11  py     Ryd( 2p)     0.00035
   135    H   11  pz     Ryd( 2p)     0.00010

   136    H   12  S      Val( 1S)     0.74485
   137    H   12  S      Ryd( 2S)     0.01509
   138    H   12  px     Ryd( 2p)     0.00006
   139    H   12  py     Ryd( 2p)     0.00009
   140    H   12  pz     Ryd( 2p)     0.00038

   141    H   13  S      Val( 1S)     0.76099
   142    H   13  S      Ryd( 2S)     0.02779
   143    H   13  px     Ryd( 2p)     0.00010
   144    H   13  py     Ryd( 2p)     0.00010
   145    H   13  pz     Ryd( 2p)     0.00038

   146    H   14  S      Val( 1S)     0.81395
   147    H   14  S      Ryd( 2S)     0.03341
   148    H   14  px     Ryd( 2p)     0.00030
   149    H   14  py     Ryd( 2p)     0.00013
   150    H   14  pz     Ryd( 2p)     0.00010

   151    H   15  S      Val( 1S)     0.78622
   152    H   15  S      Ryd( 2S)     0.01189
   153    H   15  px     Ryd( 2p)     0.00021
   154    H   15  py     Ryd( 2p)     0.00018
   155    H   15  pz     Ryd( 2p)     0.00011

   156    H   16  S      Val( 1S)     0.77127
   157    H   16  S      Ryd( 2S)     0.00828
   158    H   16  px     Ryd( 2p)     0.00009
   159    H   16  py     Ryd( 2p)     0.00009
   160    H   16  pz     Ryd( 2p)     0.00033

   161    H   17  S      Val( 1S)     0.75973
   162    H   17  S      Ryd( 2S)     0.00298
   163    H   17  px     Ryd( 2p)     0.00010
   164    H   17  py     Ryd( 2p)     0.00010
   165    H   17  pz     Ryd( 2p)     0.00037

   166    H   18  S      Val( 1S)     0.76434
   167    H   18  S      Ryd( 2S)     0.00473
   168    H   18  px     Ryd( 2p)     0.00010
   169    H   18  py     Ryd( 2p)     0.00035
   170    H   18  pz     Ryd( 2p)     0.00011

   171    H   19  S      Val( 1S)     0.76963
   172    H   19  S      Ryd( 2S)     0.00660
   173    H   19  px     Ryd( 2p)     0.00011
   174    H   19  py     Ryd( 2p)     0.00034
   175    H   19  pz     Ryd( 2p)     0.00011

   176    H   20  S      Val( 1S)     0.76229
   177    H   20  S      Ryd( 2S)     0.00377
   178    H   20  px     Ryd( 2p)     0.00009
   179    H   20  py     Ryd( 2p)     0.00009
   180    H   20  pz     Ryd( 2p)     0.00036

   181    H   21  S      Val( 1S)     0.79324
   182    H   21  S      Ryd( 2S)     0.00224
   183    H   21  px     Ryd( 2p)     0.00009
   184    H   21  py     Ryd( 2p)     0.00008
   185    H   21  pz     Ryd( 2p)     0.00040

   186    H   22  S      Val( 1S)     0.77296
   187    H   22  S      Ryd( 2S)     0.00176
   188    H   22  px     Ryd( 2p)     0.00007
   189    H   22  py     Ryd( 2p)     0.00036
   190    H   22  pz     Ryd( 2p)     0.00013

   191    H   23  S      Val( 1S)     0.60581
   192    H   23  S      Ryd( 2S)     0.00128
   193    H   23  px     Ryd( 2p)     0.00047
   194    H   23  py     Ryd( 2p)     0.00036
   195    H   23  pz     Ryd( 2p)     0.00058

   196    H   24  S      Val( 1S)     0.61345
   197    H   24  S      Ryd( 2S)     0.00166
   198    H   24  px     Ryd( 2p)     0.00030
   199    H   24  py     Ryd( 2p)     0.00052
   200    H   24  pz     Ryd( 2p)     0.00060


 Summary of Natural Population Analysis:                  
                                                          
                                       Natural Population 
                Natural  -----------------------------------------------
    Atom  No    Charge         Core      Valence    Rydberg      Total
 -----------------------------------------------------------------------
      N    1   -0.39558      1.99937     5.37161    0.02460     7.39558
      C    2   -0.35751      1.99929     4.33681    0.02140     6.35751
      C    3   -0.23481      1.99918     4.22288    0.01276     6.23481
      C    4   -0.70214      1.99940     4.69140    0.01133     6.70214
      C    5   -0.46335      1.99929     4.45039    0.01368     6.46335
      C    6   -0.47065      1.99931     4.45909    0.01225     6.47065
      C    7   -0.25697      1.99935     4.24426    0.01336     6.25697
      N    8   -0.92539      1.99968     5.91101    0.01471     7.92539
      H    9    0.18954      0.00000     0.73153    0.07894     0.81046
      H   10    0.22251      0.00000     0.69968    0.07781     0.77749
      H   11    0.24221      0.00000     0.74102    0.01677     0.75779
      H   12    0.23952      0.00000     0.74485    0.01563     0.76048
      H   13    0.21063      0.00000     0.76099    0.02838     0.78937
      H   14    0.15212      0.00000     0.81395    0.03394     0.84788
      H   15    0.20138      0.00000     0.78622    0.01239     0.79862
      H   16    0.21993      0.00000     0.77127    0.00880     0.78007
      H   17    0.23673      0.00000     0.75973    0.00354     0.76327
      H   18    0.23037      0.00000     0.76434    0.00529     0.76963
      H   19    0.22321      0.00000     0.76963    0.00716     0.77679
      H   20    0.23340      0.00000     0.76229    0.00430     0.76660
      H   21    0.20394      0.00000     0.79324    0.00281     0.79606
      H   22    0.22472      0.00000     0.77296    0.00232     0.77528
      H   23    0.39150      0.00000     0.60581    0.00269     0.60850
      H   24    0.38347      0.00000     0.61345    0.00308     0.61653
 =======================================================================
   * Total *   -0.00123     15.99487    49.57843    0.42793    66.00123

                                 Natural Population      
 --------------------------------------------------------
   Core                      15.99487 ( 99.9680% of  16)
   Valence                   49.57843 ( 99.1569% of  50)
   Natural Minimal Basis     65.57330 ( 99.3535% of  66)
   Natural Rydberg Basis      0.42793 (  0.6484% of  66)
 --------------------------------------------------------

    Atom  No          Natural Electron Configuration
 ----------------------------------------------------------------------------
      N    1      [core]2S( 1.48)2p( 3.89)3S( 0.02)3p( 0.01)
      C    2      [core]2S( 1.05)2p( 3.29)3p( 0.01)
      C    3      [core]2S( 0.99)2p( 3.24)3p( 0.01)
      C    4      [core]2S( 1.12)2p( 3.57)3p( 0.01)
      C    5      [core]2S( 1.03)2p( 3.42)3p( 0.01)
      C    6      [core]2S( 1.04)2p( 3.42)3p( 0.01)
      C    7      [core]2S( 1.02)2p( 3.22)3p( 0.01)
      N    8      [core]2S( 1.45)2p( 4.46)3p( 0.01)
      H    9            1S( 0.73)2S( 0.08)
      H   10            1S( 0.70)2S( 0.08)
      H   11            1S( 0.74)2S( 0.02)
      H   12            1S( 0.74)2S( 0.02)
      H   13            1S( 0.76)2S( 0.03)
      H   14            1S( 0.81)2S( 0.03)
      H   15            1S( 0.79)2S( 0.01)
      H   16            1S( 0.77)2S( 0.01)
      H   17            1S( 0.76)
      H   18            1S( 0.76)
      H   19            1S( 0.77)2S( 0.01)
      H   20            1S( 0.76)
      H   21            1S( 0.79)
      H   22            1S( 0.77)
      H   23            1S( 0.61)
      H   24            1S( 0.61)


 NBO analysis skipped by request.
 1\1\GINC-DRG2-W014\SP\RB3LYP TD-FC\6-31G(d,p)\C6H16N2\QDUEZ\18-Jul-202
 4\0\\# TD(NStates=10, Root=1) B3LYP/6-31G** SCRF=(Solvent=water) volum
 e pop=NPA density=current Geom=AllCheck Guess=Read\\JZUHIOJYCPIVLQ-LUR
 JTMIESA-N_conf_0\\0,1\N,0,-3.6646024188,-0.3615982165,-0.5173536926\C,
 0,-2.2745047546,-0.8202164857,-0.636630088\C,0,-1.1685339217,0.1186771
 951,-0.102367608\C,0,-1.3262774447,0.3763677898,1.4026116063\C,0,0.217
 0302954,-0.4555489571,-0.4581746502\C,0,1.4017952931,0.4791876566,-0.1
 823591789\C,0,2.7387361627,-0.1047250036,-0.6441272588\N,0,3.840286459
 4,0.8374389315,-0.3867849039\H,0,-3.9016085065,-0.2356474486,0.4644586
 159\H,0,-3.7481255893,0.5637122048,-0.9366281573\H,0,-2.0812665404,-1.
 0156607024,-1.6993574571\H,0,-2.1977884793,-1.7899335649,-0.1256228252
 \H,0,-1.2792377936,1.0803659007,-0.6288081699\H,0,-2.3180515506,0.7769
 188612,1.6368541112\H,0,-0.5931400959,1.0992122857,1.7717708594\H,0,-1
 .1966741556,-0.5528396685,1.9719434528\H,0,0.3627649819,-1.400114145,0
 .0865476062\H,0,0.2216245748,-0.7177286599,-1.5258288909\H,0,1.4676792
 066,0.6998675629,0.8913601683\H,0,1.2447146475,1.441100771,-0.68777202
 75\H,0,2.8838832299,-1.0901146962,-0.1675508772\H,0,2.7004042018,-0.28
 75675095,-1.7257002369\H,0,4.7118329261,0.4262153155,-0.7166274015\H,0
 ,3.9590592718,0.932630583,0.6211959402\\Version=ES64L-G16RevA.03\State
 =1-A\HF=-347.8016794\RMSD=3.229e-09\Dipole=0.3797044,-1.075736,-0.3169
 572\Quadrupole=3.1298709,-1.987065,-1.1428059,-1.6200438,4.7659422,1.2
 099711\PG=C01 [X(C6H16N2)]\\@


 WHEN YOU REACH FOR THE STARS, YOU MAY NOT QUITE GET ONE,
 BUT YOU WON'T COME UP WITH A HANDFUL OF MUD, EITHER.

                                         -- LEO BURNETT (AD AGENCY HEAD)
 Job cpu time:       0 days  0 hours 20 minutes 48.8 seconds.
 Elapsed time:       0 days  0 hours  7 minutes  1.9 seconds.
 File lengths (MBytes):  RWF=    374 Int=      0 D2E=      0 Chk=     24 Scr=      1
 Normal termination of Gaussian 16 at Thu Jul 18 04:59:53 2024.
