 Entering Gaussian System, Link 0=g16
 Initial command:
 /opt/sw/arch/manual/gaussian/G16_A03/g16/l1.exe "/scratch/1380817/Gau-30862.inp" -scrdir="/scratch/1380817/"
 Entering Link 1 = /opt/sw/arch/manual/gaussian/G16_A03/g16/l1.exe PID=     30863.
  
 Copyright (c) 1988,1990,1992,1993,1995,1998,2003,2009,2016,
            Gaussian, Inc.  All Rights Reserved.
  
 This is part of the Gaussian(R) 16 program.  It is based on
 the Gaussian(R) 09 system (copyright 2009, Gaussian, Inc.),
 the Gaussian(R) 03 system (copyright 2003, Gaussian, Inc.),
 the Gaussian(R) 98 system (copyright 1998, Gaussian, Inc.),
 the Gaussian(R) 94 system (copyright 1995, Gaussian, Inc.),
 the Gaussian 92(TM) system (copyright 1992, Gaussian, Inc.),
 the Gaussian 90(TM) system (copyright 1990, Gaussian, Inc.),
 the Gaussian 88(TM) system (copyright 1988, Gaussian, Inc.),
 the Gaussian 86(TM) system (copyright 1986, Carnegie Mellon
 University), and the Gaussian 82(TM) system (copyright 1983,
 Carnegie Mellon University). Gaussian is a federally registered
 trademark of Gaussian, Inc.
  
 This software contains proprietary and confidential information,
 including trade secrets, belonging to Gaussian, Inc.
  
 This software is provided under written license and may be
 used, copied, transmitted, or stored only in accord with that
 written license.
  
 The following legend is applicable only to US Government
 contracts under FAR:
  
                    RESTRICTED RIGHTS LEGEND
  
 Use, reproduction and disclosure by the US Government is
 subject to restrictions as set forth in subparagraphs (a)
 and (c) of the Commercial Computer Software - Restricted
 Rights clause in FAR 52.227-19.
  
 Gaussian, Inc.
 340 Quinnipiac St., Bldg. 40, Wallingford CT 06492
  
  
 ---------------------------------------------------------------
 Warning -- This program may not be used in any manner that
 competes with the business of Gaussian, Inc. or will provide
 assistance to any competitor of Gaussian, Inc.  The licensee
 of this program is prohibited from giving any competitor of
 Gaussian, Inc. access to this program.  By using this program,
 the user acknowledges that Gaussian, Inc. is engaged in the
 business of creating and licensing software in the field of
 computational chemistry and represents and warrants to the
 licensee that it is not a competitor of Gaussian, Inc. and that
 it will not use this program in any manner prohibited above.
 ---------------------------------------------------------------
  

 Cite this work as:
 Gaussian 16, Revision A.03,
 M. J. Frisch, G. W. Trucks, H. B. Schlegel, G. E. Scuseria, 
 M. A. Robb, J. R. Cheeseman, G. Scalmani, V. Barone, 
 G. A. Petersson, H. Nakatsuji, X. Li, M. Caricato, A. V. Marenich, 
 J. Bloino, B. G. Janesko, R. Gomperts, B. Mennucci, H. P. Hratchian, 
 J. V. Ortiz, A. F. Izmaylov, J. L. Sonnenberg, D. Williams-Young, 
 F. Ding, F. Lipparini, F. Egidi, J. Goings, B. Peng, A. Petrone, 
 T. Henderson, D. Ranasinghe, V. G. Zakrzewski, J. Gao, N. Rega, 
 G. Zheng, W. Liang, M. Hada, M. Ehara, K. Toyota, R. Fukuda, 
 J. Hasegawa, M. Ishida, T. Nakajima, Y. Honda, O. Kitao, H. Nakai, 
 T. Vreven, K. Throssell, J. A. Montgomery, Jr., J. E. Peralta, 
 F. Ogliaro, M. J. Bearpark, J. J. Heyd, E. N. Brothers, K. N. Kudin, 
 V. N. Staroverov, T. A. Keith, R. Kobayashi, J. Normand, 
 K. Raghavachari, A. P. Rendell, J. C. Burant, S. S. Iyengar, 
 J. Tomasi, M. Cossi, J. M. Millam, M. Klene, C. Adamo, R. Cammi, 
 J. W. Ochterski, R. L. Martin, K. Morokuma, O. Farkas, 
 J. B. Foresman, and D. J. Fox, Gaussian, Inc., Wallingford CT, 2016.
 
 ******************************************
 Gaussian 16:  ES64L-G16RevA.03 25-Dec-2016
                17-Jul-2024 
 ******************************************
 %nprocshared=5
 Will use up to    5 processors via shared memory.
 %mem=10GB
 %Chk=FTVFPPFZRRKJIH-UHFFFAOYSA-N_conf_0_0.chk
 -------------------------------------------------------
 # opt=CalcFc B3LYP/6-31G** SCRF=(Solvent=water) scf=xqc
 -------------------------------------------------------
 1/10=4,18=20,19=15,26=3,38=1/1,3;
 2/9=110,12=2,17=6,18=5,40=1/2;
 3/5=1,6=6,7=101,11=2,25=1,30=1,70=2201,71=2,72=1,74=-5,140=1/1,2,3;
 4//1;
 5/5=2,8=3,13=1,38=5,53=1/2,8;
 8/6=4,10=90,11=11/1;
 11/6=1,8=1,9=11,15=111,16=1/1,2,10;
 10/6=1,13=1/2;
 6/7=2,8=2,9=2,10=2,28=1/1;
 7/10=1,18=20,25=1/1,2,3,16;
 1/10=4,18=20,19=15,26=3/3(2);
 2/9=110/2;
 99//99;
 2/9=110/2;
 3/5=1,6=6,7=101,11=2,25=1,30=1,70=2205,71=1,72=1,74=-5/1,2,3;
 4/5=5,16=3,69=1/1;
 5/5=2,8=3,13=1,38=5,53=1/2,8;
 7//1,2,3,16;
 1/18=20,19=15,26=3/3(-5);
 2/9=110/2;
 6/7=2,8=2,9=2,10=2,19=2,28=1/1;
 99/9=1/99;
 ----------------------------------
 FTVFPPFZRRKJIH-UHFFFAOYSA-N_conf_0
 ----------------------------------
 Symbolic Z-matrix:
 Charge =  0 Multiplicity = 1
 C                     1.85182  -0.10143   1.24926 
 C                     1.29258  -0.40988  -0.15047 
 C                     2.31589  -1.35773  -0.82297 
 C                     1.1779    0.84991  -1.03412 
 C                    -0.08214   1.694    -0.83225 
 N                     0.0075    2.60916   0.30481 
 C                    -1.3207    0.79425  -0.81923 
 C                    -1.22794  -0.46585   0.06722 
 C                    -1.5513   -0.17324   1.54261 
 C                    -2.30992  -1.4596   -0.42179 
 N                     0.0437   -1.17713  -0.08935 
 H                     1.22502   0.56912   1.83379 
 H                     1.97427  -1.01913   1.83745 
 H                     2.83965   0.36925   1.17725 
 H                     2.47153  -2.2693   -0.23295 
 H                     1.98383  -1.66568  -1.82207 
 H                     3.29027  -0.86799  -0.93699 
 H                     1.17606   0.53797  -2.08934 
 H                     2.07321   1.47642  -0.92234 
 H                    -0.16984   2.34943  -1.70877 
 H                     0.09095   2.10193   1.17848 
 H                    -0.85304   3.15101   0.37472 
 H                    -2.21093   1.38089  -0.55524 
 H                    -1.48428   0.47787  -1.86035 
 H                    -2.55826   0.24938   1.64257 
 H                    -0.86642   0.53175   2.00969 
 H                    -1.5259   -1.0909    2.14287 
 H                    -2.14147  -1.75807  -1.46382 
 H                    -3.30947  -1.01238  -0.36568 
 H                    -2.32278  -2.37396   0.18408 
 H                     0.12021  -1.94006   0.58292 
 

 GradGradGradGradGradGradGradGradGradGradGradGradGradGradGradGradGradGrad
 Berny optimization.
 Initialization pass.
                           ----------------------------
                           !    Initial Parameters    !
                           ! (Angstroms and Degrees)  !
 --------------------------                            --------------------------
 ! Name  Definition              Value          Derivative Info.                !
 --------------------------------------------------------------------------------
 ! R1    R(1,2)                  1.5386         calculate D2E/DX2 analytically  !
 ! R2    R(1,12)                 1.0882         calculate D2E/DX2 analytically  !
 ! R3    R(1,13)                 1.0969         calculate D2E/DX2 analytically  !
 ! R4    R(1,14)                 1.0966         calculate D2E/DX2 analytically  !
 ! R5    R(2,3)                  1.5485         calculate D2E/DX2 analytically  !
 ! R6    R(2,4)                  1.5431         calculate D2E/DX2 analytically  !
 ! R7    R(2,11)                 1.467          calculate D2E/DX2 analytically  !
 ! R8    R(3,15)                 1.097          calculate D2E/DX2 analytically  !
 ! R9    R(3,16)                 1.097          calculate D2E/DX2 analytically  !
 ! R10   R(3,17)                 1.0965         calculate D2E/DX2 analytically  !
 ! R11   R(4,5)                  1.53           calculate D2E/DX2 analytically  !
 ! R12   R(4,18)                 1.1004         calculate D2E/DX2 analytically  !
 ! R13   R(4,19)                 1.0985         calculate D2E/DX2 analytically  !
 ! R14   R(5,6)                  1.4624         calculate D2E/DX2 analytically  !
 ! R15   R(5,7)                  1.5309         calculate D2E/DX2 analytically  !
 ! R16   R(5,20)                 1.098          calculate D2E/DX2 analytically  !
 ! R17   R(6,21)                 1.0137         calculate D2E/DX2 analytically  !
 ! R18   R(6,22)                 1.0193         calculate D2E/DX2 analytically  !
 ! R19   R(7,8)                  1.5435         calculate D2E/DX2 analytically  !
 ! R20   R(7,23)                 1.0983         calculate D2E/DX2 analytically  !
 ! R21   R(7,24)                 1.1004         calculate D2E/DX2 analytically  !
 ! R22   R(8,9)                  1.5385         calculate D2E/DX2 analytically  !
 ! R23   R(8,10)                 1.5483         calculate D2E/DX2 analytically  !
 ! R24   R(8,11)                 1.4654         calculate D2E/DX2 analytically  !
 ! R25   R(9,25)                 1.0966         calculate D2E/DX2 analytically  !
 ! R26   R(9,26)                 1.0882         calculate D2E/DX2 analytically  !
 ! R27   R(9,27)                 1.0968         calculate D2E/DX2 analytically  !
 ! R28   R(10,28)                1.097          calculate D2E/DX2 analytically  !
 ! R29   R(10,29)                1.0965         calculate D2E/DX2 analytically  !
 ! R30   R(10,30)                1.097          calculate D2E/DX2 analytically  !
 ! R31   R(11,31)                1.0197         calculate D2E/DX2 analytically  !
 ! A1    A(2,1,12)             113.7566         calculate D2E/DX2 analytically  !
 ! A2    A(2,1,13)             111.1433         calculate D2E/DX2 analytically  !
 ! A3    A(2,1,14)             110.7162         calculate D2E/DX2 analytically  !
 ! A4    A(12,1,13)            106.9659         calculate D2E/DX2 analytically  !
 ! A5    A(12,1,14)            106.8368         calculate D2E/DX2 analytically  !
 ! A6    A(13,1,14)            107.0835         calculate D2E/DX2 analytically  !
 ! A7    A(1,2,3)              106.1179         calculate D2E/DX2 analytically  !
 ! A8    A(1,2,4)              112.6017         calculate D2E/DX2 analytically  !
 ! A9    A(1,2,11)             112.1107         calculate D2E/DX2 analytically  !
 ! A10   A(3,2,4)              107.4664         calculate D2E/DX2 analytically  !
 ! A11   A(3,2,11)             105.1022         calculate D2E/DX2 analytically  !
 ! A12   A(4,2,11)             112.8039         calculate D2E/DX2 analytically  !
 ! A13   A(2,3,15)             111.6438         calculate D2E/DX2 analytically  !
 ! A14   A(2,3,16)             111.552          calculate D2E/DX2 analytically  !
 ! A15   A(2,3,17)             111.0403         calculate D2E/DX2 analytically  !
 ! A16   A(15,3,16)            107.4303         calculate D2E/DX2 analytically  !
 ! A17   A(15,3,17)            107.5184         calculate D2E/DX2 analytically  !
 ! A18   A(16,3,17)            107.4385         calculate D2E/DX2 analytically  !
 ! A19   A(2,4,5)              115.8527         calculate D2E/DX2 analytically  !
 ! A20   A(2,4,18)             108.5327         calculate D2E/DX2 analytically  !
 ! A21   A(2,4,19)             110.2921         calculate D2E/DX2 analytically  !
 ! A22   A(5,4,18)             106.3523         calculate D2E/DX2 analytically  !
 ! A23   A(5,4,19)             110.0696         calculate D2E/DX2 analytically  !
 ! A24   A(18,4,19)            105.1077         calculate D2E/DX2 analytically  !
 ! A25   A(4,5,6)              113.4133         calculate D2E/DX2 analytically  !
 ! A26   A(4,5,7)              110.0696         calculate D2E/DX2 analytically  !
 ! A27   A(4,5,20)             106.8449         calculate D2E/DX2 analytically  !
 ! A28   A(6,5,7)              114.2535         calculate D2E/DX2 analytically  !
 ! A29   A(6,5,20)             104.5986         calculate D2E/DX2 analytically  !
 ! A30   A(7,5,20)             107.0377         calculate D2E/DX2 analytically  !
 ! A31   A(5,6,21)             111.2269         calculate D2E/DX2 analytically  !
 ! A32   A(5,6,22)             109.5272         calculate D2E/DX2 analytically  !
 ! A33   A(21,6,22)            106.0445         calculate D2E/DX2 analytically  !
 ! A34   A(5,7,8)              115.8542         calculate D2E/DX2 analytically  !
 ! A35   A(5,7,23)             110.1134         calculate D2E/DX2 analytically  !
 ! A36   A(5,7,24)             106.332          calculate D2E/DX2 analytically  !
 ! A37   A(8,7,23)             110.2872         calculate D2E/DX2 analytically  !
 ! A38   A(8,7,24)             108.5178         calculate D2E/DX2 analytically  !
 ! A39   A(23,7,24)            105.0995         calculate D2E/DX2 analytically  !
 ! A40   A(7,8,9)              112.5109         calculate D2E/DX2 analytically  !
 ! A41   A(7,8,10)             107.494          calculate D2E/DX2 analytically  !
 ! A42   A(7,8,11)             112.7714         calculate D2E/DX2 analytically  !
 ! A43   A(9,8,10)             106.145          calculate D2E/DX2 analytically  !
 ! A44   A(9,8,11)             112.1577         calculate D2E/DX2 analytically  !
 ! A45   A(10,8,11)            105.137          calculate D2E/DX2 analytically  !
 ! A46   A(8,9,25)             110.7141         calculate D2E/DX2 analytically  !
 ! A47   A(8,9,26)             113.7378         calculate D2E/DX2 analytically  !
 ! A48   A(8,9,27)             111.1507         calculate D2E/DX2 analytically  !
 ! A49   A(25,9,26)            106.8046         calculate D2E/DX2 analytically  !
 ! A50   A(25,9,27)            107.086          calculate D2E/DX2 analytically  !
 ! A51   A(26,9,27)            107.01           calculate D2E/DX2 analytically  !
 ! A52   A(8,10,28)            111.552          calculate D2E/DX2 analytically  !
 ! A53   A(8,10,29)            111.0446         calculate D2E/DX2 analytically  !
 ! A54   A(8,10,30)            111.6379         calculate D2E/DX2 analytically  !
 ! A55   A(28,10,29)           107.4322         calculate D2E/DX2 analytically  !
 ! A56   A(28,10,30)           107.4374         calculate D2E/DX2 analytically  !
 ! A57   A(29,10,30)           107.5193         calculate D2E/DX2 analytically  !
 ! A58   A(2,11,8)             119.2965         calculate D2E/DX2 analytically  !
 ! A59   A(2,11,31)            110.7861         calculate D2E/DX2 analytically  !
 ! A60   A(8,11,31)            110.9655         calculate D2E/DX2 analytically  !
 ! D1    D(12,1,2,3)           179.579          calculate D2E/DX2 analytically  !
 ! D2    D(12,1,2,4)            62.2748         calculate D2E/DX2 analytically  !
 ! D3    D(12,1,2,11)          -66.2078         calculate D2E/DX2 analytically  !
 ! D4    D(13,1,2,3)           -59.6205         calculate D2E/DX2 analytically  !
 ! D5    D(13,1,2,4)          -176.9247         calculate D2E/DX2 analytically  !
 ! D6    D(13,1,2,11)           54.5927         calculate D2E/DX2 analytically  !
 ! D7    D(14,1,2,3)            59.2611         calculate D2E/DX2 analytically  !
 ! D8    D(14,1,2,4)           -58.0432         calculate D2E/DX2 analytically  !
 ! D9    D(14,1,2,11)          173.4742         calculate D2E/DX2 analytically  !
 ! D10   D(1,2,3,15)            57.7346         calculate D2E/DX2 analytically  !
 ! D11   D(1,2,3,16)           177.9476         calculate D2E/DX2 analytically  !
 ! D12   D(1,2,3,17)           -62.2404         calculate D2E/DX2 analytically  !
 ! D13   D(4,2,3,15)           178.4191         calculate D2E/DX2 analytically  !
 ! D14   D(4,2,3,16)           -61.3679         calculate D2E/DX2 analytically  !
 ! D15   D(4,2,3,17)            58.4441         calculate D2E/DX2 analytically  !
 ! D16   D(11,2,3,15)          -61.199          calculate D2E/DX2 analytically  !
 ! D17   D(11,2,3,16)           59.014          calculate D2E/DX2 analytically  !
 ! D18   D(11,2,3,17)          178.826          calculate D2E/DX2 analytically  !
 ! D19   D(1,2,4,5)            -83.1652         calculate D2E/DX2 analytically  !
 ! D20   D(1,2,4,18)           157.3361         calculate D2E/DX2 analytically  !
 ! D21   D(1,2,4,19)            42.6889         calculate D2E/DX2 analytically  !
 ! D22   D(3,2,4,5)            160.3325         calculate D2E/DX2 analytically  !
 ! D23   D(3,2,4,18)            40.8339         calculate D2E/DX2 analytically  !
 ! D24   D(3,2,4,19)           -73.8134         calculate D2E/DX2 analytically  !
 ! D25   D(11,2,4,5)            44.9545         calculate D2E/DX2 analytically  !
 ! D26   D(11,2,4,18)          -74.5441         calculate D2E/DX2 analytically  !
 ! D27   D(11,2,4,19)          170.8086         calculate D2E/DX2 analytically  !
 ! D28   D(1,2,11,8)            85.5085         calculate D2E/DX2 analytically  !
 ! D29   D(1,2,11,31)          -45.1711         calculate D2E/DX2 analytically  !
 ! D30   D(3,2,11,8)          -159.6564         calculate D2E/DX2 analytically  !
 ! D31   D(3,2,11,31)           69.664          calculate D2E/DX2 analytically  !
 ! D32   D(4,2,11,8)           -42.8675         calculate D2E/DX2 analytically  !
 ! D33   D(4,2,11,31)         -173.5471         calculate D2E/DX2 analytically  !
 ! D34   D(2,4,5,6)             82.1931         calculate D2E/DX2 analytically  !
 ! D35   D(2,4,5,7)            -47.21           calculate D2E/DX2 analytically  !
 ! D36   D(2,4,5,20)          -163.0936         calculate D2E/DX2 analytically  !
 ! D37   D(18,4,5,6)          -157.1259         calculate D2E/DX2 analytically  !
 ! D38   D(18,4,5,7)            73.4711         calculate D2E/DX2 analytically  !
 ! D39   D(18,4,5,20)          -42.4125         calculate D2E/DX2 analytically  !
 ! D40   D(19,4,5,6)           -43.774          calculate D2E/DX2 analytically  !
 ! D41   D(19,4,5,7)          -173.177          calculate D2E/DX2 analytically  !
 ! D42   D(19,4,5,20)           70.9394         calculate D2E/DX2 analytically  !
 ! D43   D(4,5,6,21)           -64.0723         calculate D2E/DX2 analytically  !
 ! D44   D(4,5,6,22)           179.0333         calculate D2E/DX2 analytically  !
 ! D45   D(7,5,6,21)            63.1741         calculate D2E/DX2 analytically  !
 ! D46   D(7,5,6,22)           -53.7203         calculate D2E/DX2 analytically  !
 ! D47   D(20,5,6,21)          179.8813         calculate D2E/DX2 analytically  !
 ! D48   D(20,5,6,22)           62.9869         calculate D2E/DX2 analytically  !
 ! D49   D(4,5,7,8)             47.2488         calculate D2E/DX2 analytically  !
 ! D50   D(4,5,7,23)           173.2482         calculate D2E/DX2 analytically  !
 ! D51   D(4,5,7,24)           -73.3991         calculate D2E/DX2 analytically  !
 ! D52   D(6,5,7,8)            -81.6987         calculate D2E/DX2 analytically  !
 ! D53   D(6,5,7,23)            44.3007         calculate D2E/DX2 analytically  !
 ! D54   D(6,5,7,24)           157.6534         calculate D2E/DX2 analytically  !
 ! D55   D(20,5,7,8)           163.0111         calculate D2E/DX2 analytically  !
 ! D56   D(20,5,7,23)          -70.9895         calculate D2E/DX2 analytically  !
 ! D57   D(20,5,7,24)           42.3632         calculate D2E/DX2 analytically  !
 ! D58   D(5,7,8,9)             83.0538         calculate D2E/DX2 analytically  !
 ! D59   D(5,7,8,10)          -160.4445         calculate D2E/DX2 analytically  !
 ! D60   D(5,7,8,11)           -45.0251         calculate D2E/DX2 analytically  !
 ! D61   D(23,7,8,9)           -42.8574         calculate D2E/DX2 analytically  !
 ! D62   D(23,7,8,10)           73.6443         calculate D2E/DX2 analytically  !
 ! D63   D(23,7,8,11)         -170.9363         calculate D2E/DX2 analytically  !
 ! D64   D(24,7,8,9)          -157.484          calculate D2E/DX2 analytically  !
 ! D65   D(24,7,8,10)          -40.9823         calculate D2E/DX2 analytically  !
 ! D66   D(24,7,8,11)           74.4371         calculate D2E/DX2 analytically  !
 ! D67   D(7,8,9,25)            58.3909         calculate D2E/DX2 analytically  !
 ! D68   D(7,8,9,26)           -61.8708         calculate D2E/DX2 analytically  !
 ! D69   D(7,8,9,27)           177.279          calculate D2E/DX2 analytically  !
 ! D70   D(10,8,9,25)          -58.9146         calculate D2E/DX2 analytically  !
 ! D71   D(10,8,9,26)         -179.1763         calculate D2E/DX2 analytically  !
 ! D72   D(10,8,9,27)           59.9736         calculate D2E/DX2 analytically  !
 ! D73   D(11,8,9,25)         -173.2083         calculate D2E/DX2 analytically  !
 ! D74   D(11,8,9,26)           66.53           calculate D2E/DX2 analytically  !
 ! D75   D(11,8,9,27)          -54.3201         calculate D2E/DX2 analytically  !
 ! D76   D(7,8,10,28)           61.4005         calculate D2E/DX2 analytically  !
 ! D77   D(7,8,10,29)          -58.4064         calculate D2E/DX2 analytically  !
 ! D78   D(7,8,10,30)         -178.3815         calculate D2E/DX2 analytically  !
 ! D79   D(9,8,10,28)         -177.9924         calculate D2E/DX2 analytically  !
 ! D80   D(9,8,10,29)           62.2007         calculate D2E/DX2 analytically  !
 ! D81   D(9,8,10,30)          -57.7743         calculate D2E/DX2 analytically  !
 ! D82   D(11,8,10,28)         -58.9756         calculate D2E/DX2 analytically  !
 ! D83   D(11,8,10,29)        -178.7825         calculate D2E/DX2 analytically  !
 ! D84   D(11,8,10,30)          61.2425         calculate D2E/DX2 analytically  !
 ! D85   D(7,8,11,2)            42.8901         calculate D2E/DX2 analytically  !
 ! D86   D(7,8,11,31)          173.49           calculate D2E/DX2 analytically  !
 ! D87   D(9,8,11,2)           -85.3733         calculate D2E/DX2 analytically  !
 ! D88   D(9,8,11,31)           45.2266         calculate D2E/DX2 analytically  !
 ! D89   D(10,8,11,2)          159.7166         calculate D2E/DX2 analytically  !
 ! D90   D(10,8,11,31)         -69.6835         calculate D2E/DX2 analytically  !
 --------------------------------------------------------------------------------
 Trust Radius=3.00D-01 FncErr=1.00D-07 GrdErr=1.00D-06 EigMax=2.50D+02 EigMin=1.00D-04
 Number of steps in this run=    186 maximum allowed number of steps=    186.
 GradGradGradGradGradGradGradGradGradGradGradGradGradGradGradGradGradGrad

                          Input orientation:                          
 ---------------------------------------------------------------------
 Center     Atomic      Atomic             Coordinates (Angstroms)
 Number     Number       Type             X           Y           Z
 ---------------------------------------------------------------------
      1          6           0        1.851822   -0.101432    1.249262
      2          6           0        1.292576   -0.409885   -0.150466
      3          6           0        2.315888   -1.357727   -0.822965
      4          6           0        1.177900    0.849905   -1.034116
      5          6           0       -0.082140    1.693996   -0.832255
      6          7           0        0.007497    2.609159    0.304809
      7          6           0       -1.320698    0.794254   -0.819231
      8          6           0       -1.227939   -0.465852    0.067215
      9          6           0       -1.551296   -0.173238    1.542608
     10          6           0       -2.309918   -1.459596   -0.421788
     11          7           0        0.043699   -1.177133   -0.089354
     12          1           0        1.225022    0.569122    1.833789
     13          1           0        1.974269   -1.019126    1.837450
     14          1           0        2.839648    0.369254    1.177248
     15          1           0        2.471526   -2.269302   -0.232951
     16          1           0        1.983825   -1.665679   -1.822065
     17          1           0        3.290271   -0.867991   -0.936987
     18          1           0        1.176063    0.537967   -2.089340
     19          1           0        2.073210    1.476417   -0.922339
     20          1           0       -0.169840    2.349425   -1.708772
     21          1           0        0.090949    2.101933    1.178478
     22          1           0       -0.853039    3.151011    0.374719
     23          1           0       -2.210931    1.380889   -0.555237
     24          1           0       -1.484276    0.477873   -1.860347
     25          1           0       -2.558257    0.249381    1.642567
     26          1           0       -0.866418    0.531754    2.009694
     27          1           0       -1.525898   -1.090905    2.142868
     28          1           0       -2.141473   -1.758075   -1.463823
     29          1           0       -3.309472   -1.012378   -0.365677
     30          1           0       -2.322778   -2.373960    0.184082
     31          1           0        0.120210   -1.940061    0.582923
 ---------------------------------------------------------------------
                    Distance matrix (angstroms):
                    1          2          3          4          5
     1  C    0.000000
     2  C    1.538550   0.000000
     3  C    2.467339   1.548493   0.000000
     4  C    2.563792   1.543068   2.492638   0.000000
     5  C    3.361024   2.604034   3.881190   1.530012   0.000000
     6  N    3.411866   3.312601   4.726174   2.501507   1.462351
     7  C    3.891760   2.954048   4.225612   2.508439   1.530925
     8  C    3.318880   2.530516   3.761193   2.955031   2.605157
     9  C    3.416492   3.318149   4.685517   3.890352   3.359309
    10  C    4.685840   3.762110   4.644287   4.227720   3.882862
    11  N    2.493658   1.467003   2.394502   2.507562   2.968352
    12  H    1.088206   2.213659   3.458479   2.882003   3.175186
    13  H    1.096869   2.188079   2.703547   3.517581   4.326335
    14  H    1.096600   2.182501   2.694001   2.807590   3.785484
    15  H    2.698268   2.203216   1.096954   3.470560   4.752695
    16  H    3.449253   2.202065   1.096951   2.756546   4.066369
    17  H    2.726983   2.195282   1.096478   2.724466   4.236496
    18  H    3.465797   2.161304   2.548836   1.100367   2.121259
    19  H    2.693412   2.182501   2.846250   1.098450   2.168177
    20  H    4.340943   3.490096   4.550437   2.126059   1.097981
    21  H    2.821436   3.085324   4.574426   2.764888   2.058985
    22  H    4.319662   4.190401   5.639616   3.377072   2.043028
    23  H    4.686091   3.955410   5.297526   3.463444   2.169452
    24  H    4.597262   3.379751   4.345899   2.812160   2.121771
    25  H    4.441459   4.298664   5.693763   4.635098   3.787190
    26  H    2.892751   3.195970   4.660597   3.680385   3.169001
    27  H    3.631333   3.696886   4.860729   4.601141   4.323363
    28  H    5.104086   3.916020   4.520956   4.243164   4.068970
    29  H    5.484233   4.646306   5.654472   4.904225   4.237668
    30  H    4.870963   4.127990   4.854286   4.912439   4.754121
    31  H    2.612095   2.062459   2.671448   3.393734   3.905130
                    6          7          8          9         10
     6  N    0.000000
     7  C    2.514248   0.000000
     8  C    3.322415   1.543457   0.000000
     9  C    3.421069   2.562713   1.538495   0.000000
    10  C    4.738473   2.493263   1.548332   2.467606   0.000000
    11  N    3.806925   2.506126   1.465434   2.493014   2.393703
    12  H    2.825226   3.683734   3.195149   2.888569   4.658233
    13  H    4.402458   4.604684   3.700538   3.637591   4.863377
    14  H    3.714754   4.634116   4.298236   4.439389   5.693825
    15  H    5.491812   4.910200   4.126570   4.871263   4.853195
    16  H    5.167563   4.239909   3.914639   5.103479   4.521005
    17  H    4.940570   4.902852   4.645897   5.483781   5.654869
    18  H    3.374512   2.812948   3.381954   4.597320   4.350064
    19  H    2.656345   3.463321   3.955909   4.683415   5.299296
    20  H    2.037994   2.129393   3.492777   4.340936   4.554658
    21  H    1.013676   2.773736   3.093201   2.829481   4.583613
    22  H    1.019320   2.683007   3.649220   3.591957   4.900472
    23  H    2.677638   1.098339   2.182699   2.692839   2.845341
    24  H    3.384622   1.100354   2.161440   3.465334   2.550476
    25  H    3.733797   2.808716   2.182438   1.096617   2.691438
    26  H    2.825946   2.877167   2.213399   1.088228   3.458507
    27  H    4.406839   3.517096   2.188105   1.096846   2.707043
    28  H    5.178693   2.757454   2.201922   3.449442   1.096951
    29  H    4.956548   2.724859   2.195192   2.727067   1.096476
    30  H    5.502384   3.471078   2.203000   2.698881   1.096953
    31  H    4.559106   3.393925   2.063190   2.614688   2.673166
                   11         12         13         14         15
    11  N    0.000000
    12  H    2.853666   0.000000
    13  H    2.732149   1.756108   0.000000
    14  H    3.436993   1.754426   1.764185   0.000000
    15  H    2.666046   3.725834   2.469163   3.014324   0.000000
    16  H    2.646706   4.351481   3.716204   3.724146   1.768473
    17  H    3.369611   3.742693   3.074444   2.490748   1.769091
    18  H    2.867710   3.923559   4.298995   3.669683   3.606268
    19  H    3.442979   3.023053   3.722091   2.494293   3.829402
    20  H    3.886480   4.202959   5.340416   4.615973   5.521550
    21  H    3.515949   2.016201   3.704342   3.249234   5.173681
    22  H    4.444359   3.621239   5.246265   4.692351   6.387628
    23  H    3.441494   4.262885   5.385251   5.434450   5.945853
    24  H    2.865339   4.582060   5.279796   5.285366   5.083676
    25  H    3.435792   3.801579   4.710720   5.419250   5.929591
    26  H    2.855627   2.099157   3.241049   3.801880   4.900739
    27  H    2.730181   3.227814   3.514200   4.703454   4.797139
    28  H    2.646061   5.255795   5.327643   6.025972   4.801683
    29  H    3.368569   5.282087   5.724660   6.488544   5.917552
    30  H    2.665967   4.895933   4.799356   5.929776   4.813546
    31  H    1.019740   3.013515   2.420639   3.616835   2.510526
                   16         17         18         19         20
    16  H    0.000000
    17  H    1.768182   0.000000
    18  H    2.362197   2.788281   0.000000
    19  H    3.269597   2.641533   1.745696   0.000000
    20  H    4.557650   4.787462   2.288595   2.532173   0.000000
    21  H    5.175050   4.850907   3.781811   2.955344   2.909549
    22  H    6.006177   5.919457   4.125147   3.612417   2.334574
    23  H    5.336892   5.955369   3.812573   4.300902   2.536682
    24  H    4.077255   5.045815   2.670853   3.812173   2.292035
    25  H    6.025085   6.489060   5.287302   5.434598   4.620195
    26  H    5.256898   5.283964   4.579721   4.258006   4.197159
    27  H    5.326277   5.721074   5.278770   5.379611   5.339466
    28  H    4.141855   5.529344   4.082784   5.340290   4.562772
    29  H    5.528731   6.625998   5.049219   5.956278   4.791964
    30  H    4.803449   5.918704   5.088188   5.947629   5.525252
    31  H    3.054884   3.675425   3.794264   4.213352   4.871928
                   21         22         23         24         25
    21  H    0.000000
    22  H    1.624101   0.000000
    23  H    2.970576   2.417027   0.000000
    24  H    3.788583   3.541137   1.745502   0.000000
    25  H    3.265826   3.596480   2.496255   3.670974   0.000000
    26  H    2.018151   3.087690   3.017883   3.919422   1.754091
    27  H    3.706543   4.644668   3.722742   4.299829   1.764209
    28  H    5.183157   5.398095   3.268554   2.364022   3.721995
    29  H    4.862737   4.890405   2.640162   2.790382   2.487851
    30  H    5.181556   5.720296   3.828576   3.607732   3.010739
    31  H    4.085738   5.187444   4.214064   3.793461   3.618105
                   26         27         28         29         30
    26  H    0.000000
    27  H    1.756608   0.000000
    28  H    4.351367   3.719176   0.000000
    29  H    3.741022   3.078977   1.768110   0.000000
    30  H    3.727870   2.473478   1.768552   1.769097   0.000000
    31  H    3.019764   2.421604   3.055732   3.677385   2.513073
                   31
    31  H    0.000000
 Stoichiometry    C9H20N2
 Framework group  C1[X(C9H20N2)]
 Deg. of freedom    87
 Full point group                 C1      NOp   1
 Largest Abelian subgroup         C1      NOp   1
 Largest concise Abelian subgroup C1      NOp   1
                         Standard orientation:                         
 ---------------------------------------------------------------------
 Center     Atomic      Atomic             Coordinates (Angstroms)
 Number     Number       Type             X           Y           Z
 ---------------------------------------------------------------------
      1          6           0        1.722131   -0.187101    1.453273
      2          6           0        1.292897   -0.447801   -0.001007
      3          6           0        2.388572   -1.352111   -0.617082
      4          6           0        1.231984    0.844459   -0.842085
      5          6           0       -0.056510    1.660325   -0.719268
      6          7           0       -0.083538    2.530480    0.455708
      7          6           0       -1.274343    0.741857   -0.849763
      8          6           0       -1.235498   -0.551168   -0.007840
      9          6           0       -1.691649   -0.322885    1.443636
     10          6           0       -2.251858   -1.541038   -0.627921
     11          7           0        0.058103   -1.235982   -0.079434
     12          1           0        1.034273    0.449792    2.005912
     13          1           0        1.810096   -1.125628    2.014122
     14          1           0        2.703444    0.301215    1.486488
     15          1           0        2.509323   -2.284086   -0.051264
     16          1           0        2.150694   -1.624866   -1.652611
     17          1           0        3.359798   -0.843286   -0.626127
     18          1           0        1.327983    0.575045   -1.904633
     19          1           0        2.102202    1.479675   -0.628042
     20          1           0       -0.079806    2.348910   -1.574178
     21          1           0       -0.067014    1.990011    1.313123
     22          1           0       -0.956934    3.055810    0.470615
     23          1           0       -2.195074    1.303699   -0.642550
     24          1           0       -1.340588    0.464953   -1.912643
     25          1           0       -2.711261    0.079867    1.470996
     26          1           0       -1.063466    0.373274    1.995894
     27          1           0       -1.701398   -1.263359    2.007979
     28          1           0       -1.987658   -1.794917   -1.661867
     29          1           0       -3.260735   -1.111839   -0.642608
     30          1           0       -2.300264   -2.479024   -0.061226
     31          1           0        0.090075   -2.023958    0.567049
 ---------------------------------------------------------------------
 Rotational constants (GHZ):           1.2841550           1.0508560           0.8117115
 Standard basis: 6-31G(d,p) (6D, 7F)
 There are   265 symmetry adapted cartesian basis functions of A   symmetry.
 There are   265 symmetry adapted basis functions of A   symmetry.
   265 basis functions,   448 primitive gaussians,   265 cartesian basis functions
    44 alpha electrons       44 beta electrons
       nuclear repulsion energy       720.9021155105 Hartrees.
 NAtoms=   31 NActive=   31 NUniq=   31 SFac= 1.00D+00 NAtFMM=   60 NAOKFM=F Big=F
 Integral buffers will be    131072 words long.
 Raffenetti 2 integral format.
 Two-electron integral symmetry is turned on.
 Force inversion solution in PCM.
 ------------------------------------------------------------------------------
 Polarizable Continuum Model (PCM)
 =================================
 Model                : PCM.
 Atomic radii         : UFF (Universal Force Field).
 Polarization charges : Total charges.
 Charge compensation  : None.
 Solution method      : Matrix inversion.
 Cavity type          : Scaled VdW (van der Waals Surface) (Alpha=1.100).
 Cavity algorithm     : GePol (No added spheres)
                        Default sphere list used, NSphG=   31.
                        Lebedev-Laikov grids with approx.  5.0 points / Ang**2.
                        Smoothing algorithm: York/Karplus (Gamma=1.0000).
                        Polarization charges: spherical gaussians, with
                                              point-specific exponents (IZeta= 3).
                        Self-potential: point-specific (ISelfS= 7).
                        Self-field    : sphere-specific E.n sum rule (ISelfD= 2).
 1st derivatives      : Analytical E(r).r(x)/FMM algorithm (CHGder, D1EAlg=3).
                        Cavity 1st derivative terms included.
 2nd derivatives      : Analytical E(r).r(xy)/FMM algorithm (CHGder, D2EAlg=3).
                        Cavity 2nd derivative terms included.
 Solvent              : Water, Eps=  78.355300 Eps(inf)=   1.777849
 ------------------------------------------------------------------------------
 One-electron integrals computed using PRISM.
 NBasis=   265 RedAO= T EigKep=  2.38D-03  NBF=   265
 NBsUse=   265 1.00D-06 EigRej= -1.00D+00 NBFU=   265
 ExpMin= 1.61D-01 ExpMax= 4.17D+03 ExpMxC= 6.27D+02 IAcc=3 IRadAn=         5 AccDes= 0.00D+00
 Harris functional with IExCor=  402 and IRadAn=       5 diagonalized for initial guess.
 HarFok:  IExCor=  402 AccDes= 0.00D+00 IRadAn=         5 IDoV= 1 UseB2=F ITyADJ=14
 ICtDFT=  3500011 ScaDFX=  1.000000  1.000000  1.000000  1.000000
 FoFCou: FMM=F IPFlag=           0 FMFlag=      100000 FMFlg1=           0
         NFxFlg=           0 DoJE=T BraDBF=F KetDBF=T FulRan=T
         wScrn=  0.000000 ICntrl=       500 IOpCl=  0 I1Cent=   200000004 NGrid=           0
         NMat0=    1 NMatS0=      1 NMatT0=    0 NMatD0=    1 NMtDS0=    0 NMtDT0=    0
 Petite list used in FoFCou.
 Requested convergence on RMS density matrix=1.00D-08 within  32 cycles.
 Requested convergence on MAX density matrix=1.00D-06.
 Requested convergence on             energy=1.00D-06.
 No special actions if energy rises.
 Inv3:  Mode=1 IEnd=     9774075.
 Iteration    1 A*A^-1 deviation from unit magnitude is 3.11D-15 for    774.
 Iteration    1 A*A^-1 deviation from orthogonality  is 2.21D-15 for   1477    996.
 Iteration    1 A^-1*A deviation from unit magnitude is 3.11D-15 for   1148.
 Iteration    1 A^-1*A deviation from orthogonality  is 3.48D-15 for   1475   1010.
 Error on total polarization charges =  0.01059
 SCF Done:  E(RB3LYP) =  -464.530306125     A.U. after   11 cycles
            NFock= 11  Conv=0.47D-08     -V/T= 2.0096
 QCSCF skips out because SCF is already converged.
 DoSCS=F DFT=T ScalE2(SS,OS)=  1.000000  1.000000
 Range of M.O.s used for correlation:     1   265
 NBasis=   265 NAE=    44 NBE=    44 NFC=     0 NFV=     0
 NROrb=    265 NOA=    44 NOB=    44 NVA=   221 NVB=   221
 Symmetrizing basis deriv contribution to polar:
 IMax=3 JMax=2 DiffMx= 0.00D+00
 G2DrvN: will do    32 centers at a time, making    1 passes.
 Calling FoFCou, ICntrl=  3107 FMM=F I1Cent=   0 AccDes= 0.00D+00.
 NEqPCM:  Using equilibrium solvation (IEInf=0, Eps=  78.3553, EpsInf=   1.7778)
 G2PCM: DoFxE=T DoFxN=T DoGrad=T DoDP/DQ/DG/TGxP=FFFF NFrqRd=   0 IEInf=0 SqF1=F DoCFld=F IF1Alg=4.
 End of G2Drv F.D. properties file   721 does not exist.
 End of G2Drv F.D. properties file   722 does not exist.
 End of G2Drv F.D. properties file   788 does not exist.
          IDoAtm=1111111111111111111111111111111
 NEqPCM:  Using equilibrium solvation (IEInf=0, Eps=  78.3553, EpsInf=   1.7778)
          Differentiating once with respect to nuclear coordinates.
 Keep R1 ints in memory in canonical form, NReq=630547478.
          There are    96 degrees of freedom in the 1st order CPHF.  IDoFFX=6 NUNeed=     0.
     90 vectors produced by pass  0 Test12= 1.01D-14 1.04D-09 XBig12= 8.96D-02 5.83D-02.
 AX will form    90 AO Fock derivatives at one time.
     90 vectors produced by pass  1 Test12= 1.01D-14 1.04D-09 XBig12= 8.46D-03 1.49D-02.
     90 vectors produced by pass  2 Test12= 1.01D-14 1.04D-09 XBig12= 5.18D-05 1.14D-03.
     90 vectors produced by pass  3 Test12= 1.01D-14 1.04D-09 XBig12= 1.31D-07 3.34D-05.
     90 vectors produced by pass  4 Test12= 1.01D-14 1.04D-09 XBig12= 1.40D-10 1.12D-06.
     38 vectors produced by pass  5 Test12= 1.01D-14 1.04D-09 XBig12= 1.05D-13 3.29D-08.
      1 vectors produced by pass  6 Test12= 1.01D-14 1.04D-09 XBig12= 5.98D-17 1.23D-09.
 InvSVY:  IOpt=1 It=  1 EMax= 3.33D-16
 Solved reduced A of dimension   489 with    96 vectors.
 End of Minotr F.D. properties file   721 does not exist.
 End of Minotr F.D. properties file   722 does not exist.
 End of Minotr F.D. properties file   788 does not exist.

 **********************************************************************

            Population analysis using the SCF density.

 **********************************************************************

 Orbital symmetries:
       Occupied  (A) (A) (A) (A) (A) (A) (A) (A) (A) (A) (A) (A)
                 (A) (A) (A) (A) (A) (A) (A) (A) (A) (A) (A) (A)
                 (A) (A) (A) (A) (A) (A) (A) (A) (A) (A) (A) (A)
                 (A) (A) (A) (A) (A) (A) (A) (A)
       Virtual   (A) (A) (A) (A) (A) (A) (A) (A) (A) (A) (A) (A)
                 (A) (A) (A) (A) (A) (A) (A) (A) (A) (A) (A) (A)
                 (A) (A) (A) (A) (A) (A) (A) (A) (A) (A) (A) (A)
                 (A) (A) (A) (A) (A) (A) (A) (A) (A) (A) (A) (A)
                 (A) (A) (A) (A) (A) (A) (A) (A) (A) (A) (A) (A)
                 (A) (A) (A) (A) (A) (A) (A) (A) (A) (A) (A) (A)
                 (A) (A) (A) (A) (A) (A) (A) (A) (A) (A) (A) (A)
                 (A) (A) (A) (A) (A) (A) (A) (A) (A) (A) (A) (A)
                 (A) (A) (A) (A) (A) (A) (A) (A) (A) (A) (A) (A)
                 (A) (A) (A) (A) (A) (A) (A) (A) (A) (A) (A) (A)
                 (A) (A) (A) (A) (A) (A) (A) (A) (A) (A) (A) (A)
                 (A) (A) (A) (A) (A) (A) (A) (A) (A) (A) (A) (A)
                 (A) (A) (A) (A) (A) (A) (A) (A) (A) (A) (A) (A)
                 (A) (A) (A) (A) (A) (A) (A) (A) (A) (A) (A) (A)
                 (A) (A) (A) (A) (A) (A) (A) (A) (A) (A) (A) (A)
                 (A) (A) (A) (A) (A) (A) (A) (A) (A) (A) (A) (A)
                 (A) (A) (A) (A) (A) (A) (A) (A) (A) (A) (A) (A)
                 (A) (A) (A) (A) (A) (A) (A) (A) (A) (A) (A) (A)
                 (A) (A) (A) (A) (A)
 The electronic state is 1-A.
 Alpha  occ. eigenvalues --  -14.30502 -14.30397 -10.21610 -10.21549 -10.20579
 Alpha  occ. eigenvalues --  -10.17580 -10.17230 -10.16683 -10.16614 -10.16529
 Alpha  occ. eigenvalues --  -10.16494  -0.91109  -0.87568  -0.79905  -0.75561
 Alpha  occ. eigenvalues --   -0.71668  -0.68069  -0.67608  -0.67065  -0.59805
 Alpha  occ. eigenvalues --   -0.56861  -0.51708  -0.49450  -0.47738  -0.45854
 Alpha  occ. eigenvalues --   -0.43715  -0.43540  -0.42285  -0.41238  -0.40123
 Alpha  occ. eigenvalues --   -0.39727  -0.38514  -0.38143  -0.37427  -0.35733
 Alpha  occ. eigenvalues --   -0.34997  -0.34775  -0.34106  -0.33269  -0.32459
 Alpha  occ. eigenvalues --   -0.30869  -0.29556  -0.22832  -0.20478
 Alpha virt. eigenvalues --    0.06188   0.09445   0.10181   0.11249   0.12354
 Alpha virt. eigenvalues --    0.13011   0.14496   0.15770   0.16191   0.16687
 Alpha virt. eigenvalues --    0.16991   0.17476   0.18336   0.18928   0.19434
 Alpha virt. eigenvalues --    0.19983   0.20253   0.21211   0.21982   0.22285
 Alpha virt. eigenvalues --    0.23585   0.24521   0.25178   0.25939   0.26234
 Alpha virt. eigenvalues --    0.28455   0.29118   0.29452   0.30552   0.33470
 Alpha virt. eigenvalues --    0.34527   0.48714   0.50310   0.50946   0.53193
 Alpha virt. eigenvalues --    0.53969   0.54222   0.54632   0.56063   0.61521
 Alpha virt. eigenvalues --    0.61588   0.61887   0.63310   0.64552   0.65492
 Alpha virt. eigenvalues --    0.66908   0.67927   0.69062   0.72710   0.73423
 Alpha virt. eigenvalues --    0.75222   0.75778   0.76643   0.78157   0.79773
 Alpha virt. eigenvalues --    0.81669   0.82910   0.84264   0.84354   0.86947
 Alpha virt. eigenvalues --    0.87230   0.87668   0.88559   0.88937   0.89434
 Alpha virt. eigenvalues --    0.90111   0.90643   0.91112   0.92324   0.92486
 Alpha virt. eigenvalues --    0.93340   0.95182   0.95468   0.96335   0.97137
 Alpha virt. eigenvalues --    0.98019   0.98814   0.99576   1.01281   1.04924
 Alpha virt. eigenvalues --    1.05310   1.06997   1.11264   1.16364   1.18157
 Alpha virt. eigenvalues --    1.23044   1.24204   1.28623   1.31271   1.36312
 Alpha virt. eigenvalues --    1.38186   1.40847   1.46171   1.49330   1.50514
 Alpha virt. eigenvalues --    1.52486   1.53650   1.57374   1.58297   1.59456
 Alpha virt. eigenvalues --    1.64027   1.67982   1.70613   1.73908   1.79160
 Alpha virt. eigenvalues --    1.80015   1.81639   1.83118   1.84484   1.85039
 Alpha virt. eigenvalues --    1.86971   1.87985   1.90066   1.90448   1.91409
 Alpha virt. eigenvalues --    1.92180   1.94492   1.96614   1.98926   1.99355
 Alpha virt. eigenvalues --    2.04073   2.04887   2.05299   2.05389   2.06365
 Alpha virt. eigenvalues --    2.07073   2.08597   2.09167   2.10421   2.11234
 Alpha virt. eigenvalues --    2.12707   2.13507   2.13804   2.13989   2.14566
 Alpha virt. eigenvalues --    2.14835   2.16529   2.18749   2.19895   2.20908
 Alpha virt. eigenvalues --    2.23302   2.24163   2.26060   2.27260   2.27651
 Alpha virt. eigenvalues --    2.31216   2.32108   2.33136   2.35090   2.38046
 Alpha virt. eigenvalues --    2.38996   2.40768   2.41152   2.42441   2.42902
 Alpha virt. eigenvalues --    2.47039   2.54450   2.55324   2.56935   2.57181
 Alpha virt. eigenvalues --    2.61048   2.62990   2.64106   2.66354   2.67628
 Alpha virt. eigenvalues --    2.68144   2.72641   2.75122   2.75362   2.75723
 Alpha virt. eigenvalues --    2.76230   2.78125   2.78615   2.79134   2.82979
 Alpha virt. eigenvalues --    2.86038   2.87249   2.88365   2.88758   2.89707
 Alpha virt. eigenvalues --    2.90467   2.93296   2.93557   2.95002   2.95892
 Alpha virt. eigenvalues --    2.98829   3.02430   3.04637   3.05667   3.10470
 Alpha virt. eigenvalues --    3.19475   3.20645   3.24059   3.24469   3.29620
 Alpha virt. eigenvalues --    3.33976   3.35282   3.37742   3.40644   3.43134
 Alpha virt. eigenvalues --    3.44057   3.44260   3.45894   3.47398   3.48893
 Alpha virt. eigenvalues --    3.51533   3.51981   3.53276   3.56249   3.60399
 Alpha virt. eigenvalues --    4.01953   4.08990   4.38002   4.39761   4.51611
 Alpha virt. eigenvalues --    4.55637   4.58508   4.68487   4.77871   4.80562
 Alpha virt. eigenvalues --    4.81824
          Condensed to atoms (all electrons):
               1          2          3          4          5          6
     1  C    5.061105   0.368828  -0.078603  -0.061105  -0.004589   0.000191
     2  C    0.368828   4.714972   0.387649   0.389760  -0.028061  -0.001440
     3  C   -0.078603   0.387649   5.028295  -0.044876   0.004599  -0.000047
     4  C   -0.061105   0.389760  -0.044876   4.992650   0.364157  -0.055436
     5  C   -0.004589  -0.028061   0.004599   0.364157   4.812043   0.321173
     6  N    0.000191  -0.001440  -0.000047  -0.055436   0.321173   6.809709
     7  C    0.000032  -0.023992   0.000322  -0.046366   0.352820  -0.074132
     8  C   -0.001278  -0.031395   0.005554  -0.021436  -0.026937  -0.002741
     9  C    0.001413  -0.001248  -0.000179  -0.000146  -0.004202  -0.000336
    10  C   -0.000180   0.005344  -0.000327   0.000470   0.004312  -0.000069
    11  N   -0.074001   0.299924  -0.073358  -0.046412  -0.009552  -0.000879
    12  H    0.370790  -0.029491   0.006069  -0.004061   0.001560  -0.002272
    13  H    0.372184  -0.025475  -0.007625   0.004970  -0.000065   0.000044
    14  H    0.356665  -0.022612  -0.003186  -0.003346   0.000123   0.000019
    15  H   -0.006353  -0.024932   0.371077   0.004879  -0.000177   0.000001
    16  H    0.006445  -0.026216   0.365594  -0.007907  -0.000016   0.000002
    17  H    0.001274  -0.029388   0.359574  -0.005792   0.000011  -0.000001
    18  H    0.006773  -0.035604  -0.012511   0.367940  -0.034354   0.004765
    19  H   -0.006448  -0.032918  -0.002961   0.365642  -0.030628   0.001773
    20  H   -0.000145   0.004971  -0.000161  -0.037970   0.389311  -0.051317
    21  H   -0.000209   0.002616  -0.000051  -0.007378  -0.043430   0.342737
    22  H   -0.000012   0.000026   0.000005   0.006213  -0.036547   0.341301
    23  H   -0.000004   0.000429   0.000006   0.005095  -0.031619  -0.005366
    24  H    0.000111   0.000602  -0.000090  -0.003020  -0.028698   0.006628
    25  H   -0.000005  -0.000010   0.000005  -0.000020   0.000100  -0.000014
    26  H   -0.002783   0.001292  -0.000022   0.000100   0.001377   0.001409
    27  H    0.000017  -0.000366  -0.000007  -0.000023  -0.000069   0.000151
    28  H    0.000022  -0.000040  -0.000038  -0.000005  -0.000027   0.000003
    29  H    0.000011  -0.000190   0.000003   0.000007   0.000001  -0.000006
    30  H   -0.000014   0.000009  -0.000001  -0.000018  -0.000159   0.000004
    31  H   -0.006902  -0.032756  -0.004270   0.005609   0.000073  -0.000036
               7          8          9         10         11         12
     1  C    0.000032  -0.001278   0.001413  -0.000180  -0.074001   0.370790
     2  C   -0.023992  -0.031395  -0.001248   0.005344   0.299924  -0.029491
     3  C    0.000322   0.005554  -0.000179  -0.000327  -0.073358   0.006069
     4  C   -0.046366  -0.021436  -0.000146   0.000470  -0.046412  -0.004061
     5  C    0.352820  -0.026937  -0.004202   0.004312  -0.009552   0.001560
     6  N   -0.074132  -0.002741  -0.000336  -0.000069  -0.000879  -0.002272
     7  C    5.065407   0.384177  -0.061738  -0.043940  -0.044930   0.000206
     8  C    0.384177   4.713464   0.369316   0.388396   0.300126   0.000990
     9  C   -0.061738   0.369316   5.068457  -0.079238  -0.074393  -0.002434
    10  C   -0.043940   0.388396  -0.079238   5.027833  -0.072776  -0.000030
    11  N   -0.044930   0.300126  -0.074393  -0.072776   6.976428  -0.001635
    12  H    0.000206   0.000990  -0.002434  -0.000030  -0.001635   0.628183
    13  H   -0.000000  -0.000414   0.000047  -0.000009  -0.003535  -0.032131
    14  H   -0.000019  -0.000012  -0.000006   0.000005   0.005166  -0.031002
    15  H   -0.000008  -0.000015  -0.000013  -0.000001  -0.004636  -0.000000
    16  H   -0.000011  -0.000029   0.000022  -0.000040   0.003837  -0.000243
    17  H    0.000005  -0.000187   0.000011   0.000003   0.005615  -0.000039
    18  H   -0.001305  -0.000119   0.000119  -0.000100   0.000716  -0.000104
    19  H    0.006320   0.000268  -0.000004   0.000008   0.003666   0.000236
    20  H   -0.051142   0.004794  -0.000101  -0.000168   0.000078  -0.000051
    21  H   -0.002642   0.001891  -0.000573  -0.000033   0.000052   0.003282
    22  H   -0.003239  -0.000637   0.000065   0.000003  -0.000004   0.000113
    23  H    0.371877  -0.031357  -0.006727  -0.002742   0.003559   0.000004
    24  H    0.345784  -0.033949   0.007210  -0.012970  -0.000052  -0.000013
    25  H   -0.003194  -0.022832   0.356555  -0.003230   0.005171   0.000111
    26  H   -0.005009  -0.030252   0.367109   0.005949  -0.001868   0.001200
    27  H    0.004967  -0.026546   0.369554  -0.007805  -0.003781   0.000200
    28  H   -0.007866  -0.026128   0.006469   0.365339   0.003838  -0.000001
    29  H   -0.006010  -0.029026   0.001133   0.359666   0.005632   0.000001
    30  H    0.004928  -0.025488  -0.006051   0.370073  -0.004812  -0.000000
    31  H    0.005615  -0.032971  -0.006986  -0.004169   0.336402  -0.000178
              13         14         15         16         17         18
     1  C    0.372184   0.356665  -0.006353   0.006445   0.001274   0.006773
     2  C   -0.025475  -0.022612  -0.024932  -0.026216  -0.029388  -0.035604
     3  C   -0.007625  -0.003186   0.371077   0.365594   0.359574  -0.012511
     4  C    0.004970  -0.003346   0.004879  -0.007907  -0.005792   0.367940
     5  C   -0.000065   0.000123  -0.000177  -0.000016   0.000011  -0.034354
     6  N    0.000044   0.000019   0.000001   0.000002  -0.000001   0.004765
     7  C   -0.000000  -0.000019  -0.000008  -0.000011   0.000005  -0.001305
     8  C   -0.000414  -0.000012  -0.000015  -0.000029  -0.000187  -0.000119
     9  C    0.000047  -0.000006  -0.000013   0.000022   0.000011   0.000119
    10  C   -0.000009   0.000005  -0.000001  -0.000040   0.000003  -0.000100
    11  N   -0.003535   0.005166  -0.004636   0.003837   0.005615   0.000716
    12  H   -0.032131  -0.031002  -0.000000  -0.000243  -0.000039  -0.000104
    13  H    0.614958  -0.030200   0.004353  -0.000004  -0.000060  -0.000202
    14  H   -0.030200   0.626309   0.000092  -0.000098   0.000641  -0.000107
    15  H    0.004353   0.000092   0.621862  -0.031523  -0.031606   0.000230
    16  H   -0.000004  -0.000098  -0.031523   0.616244  -0.028424   0.006319
    17  H   -0.000060   0.000641  -0.031606  -0.028424   0.631552   0.000591
    18  H   -0.000202  -0.000107   0.000230   0.006319   0.000591   0.640135
    19  H    0.000141   0.002828  -0.000105  -0.000046   0.002608  -0.033539
    20  H    0.000005   0.000001   0.000003  -0.000009  -0.000003  -0.008962
    21  H   -0.000028   0.000071   0.000002  -0.000000  -0.000001  -0.000103
    22  H   -0.000003  -0.000001  -0.000000  -0.000000  -0.000000  -0.000253
    23  H   -0.000000  -0.000001  -0.000000   0.000000  -0.000000  -0.000049
    24  H   -0.000002  -0.000002  -0.000001   0.000059   0.000003   0.002600
    25  H    0.000001  -0.000000   0.000000  -0.000000  -0.000000  -0.000002
    26  H    0.000191   0.000115  -0.000001  -0.000001   0.000000  -0.000016
    27  H    0.000095   0.000002  -0.000001  -0.000000  -0.000000  -0.000002
    28  H   -0.000000  -0.000000  -0.000000   0.000061   0.000001   0.000053
    29  H   -0.000000  -0.000000  -0.000000   0.000001  -0.000000   0.000003
    30  H   -0.000001   0.000000   0.000000   0.000000  -0.000000  -0.000001
    31  H    0.005191   0.000033   0.003892  -0.000344  -0.000244  -0.000180
              19         20         21         22         23         24
     1  C   -0.006448  -0.000145  -0.000209  -0.000012  -0.000004   0.000111
     2  C   -0.032918   0.004971   0.002616   0.000026   0.000429   0.000602
     3  C   -0.002961  -0.000161  -0.000051   0.000005   0.000006  -0.000090
     4  C    0.365642  -0.037970  -0.007378   0.006213   0.005095  -0.003020
     5  C   -0.030628   0.389311  -0.043430  -0.036547  -0.031619  -0.028698
     6  N    0.001773  -0.051317   0.342737   0.341301  -0.005366   0.006628
     7  C    0.006320  -0.051142  -0.002642  -0.003239   0.371877   0.345784
     8  C    0.000268   0.004794   0.001891  -0.000637  -0.031357  -0.033949
     9  C   -0.000004  -0.000101  -0.000573   0.000065  -0.006727   0.007210
    10  C    0.000008  -0.000168  -0.000033   0.000003  -0.002742  -0.012970
    11  N    0.003666   0.000078   0.000052  -0.000004   0.003559  -0.000052
    12  H    0.000236  -0.000051   0.003282   0.000113   0.000004  -0.000013
    13  H    0.000141   0.000005  -0.000028  -0.000003  -0.000000  -0.000002
    14  H    0.002828   0.000001   0.000071  -0.000001  -0.000001  -0.000002
    15  H   -0.000105   0.000003   0.000002  -0.000000  -0.000000  -0.000001
    16  H   -0.000046  -0.000009  -0.000000  -0.000000   0.000000   0.000059
    17  H    0.002608  -0.000003  -0.000001  -0.000000  -0.000000   0.000003
    18  H   -0.033539  -0.008962  -0.000103  -0.000253  -0.000049   0.002600
    19  H    0.630116  -0.003172  -0.000282  -0.000048  -0.000196  -0.000219
    20  H   -0.003172   0.668149   0.007486  -0.005706  -0.002026  -0.006265
    21  H   -0.000282   0.007486   0.479361  -0.034572  -0.000201  -0.000097
    22  H   -0.000048  -0.005706  -0.034572   0.479140   0.005227   0.000035
    23  H   -0.000196  -0.002026  -0.000201   0.005227   0.629182  -0.034093
    24  H   -0.000219  -0.006265  -0.000097   0.000035  -0.034093   0.660951
    25  H   -0.000001   0.000000   0.000057   0.000052   0.002795  -0.000108
    26  H   -0.000025  -0.000012   0.006016   0.000742   0.000191  -0.000011
    27  H   -0.000001   0.000006   0.000009  -0.000000   0.000130  -0.000178
    28  H    0.000000  -0.000009  -0.000000  -0.000000  -0.000027   0.006423
    29  H   -0.000000  -0.000004  -0.000001  -0.000001   0.002616   0.000493
    30  H   -0.000000   0.000004   0.000002   0.000000  -0.000111   0.000315
    31  H   -0.000161   0.000024   0.000027  -0.000001  -0.000164  -0.000195
              25         26         27         28         29         30
     1  C   -0.000005  -0.002783   0.000017   0.000022   0.000011  -0.000014
     2  C   -0.000010   0.001292  -0.000366  -0.000040  -0.000190   0.000009
     3  C    0.000005  -0.000022  -0.000007  -0.000038   0.000003  -0.000001
     4  C   -0.000020   0.000100  -0.000023  -0.000005   0.000007  -0.000018
     5  C    0.000100   0.001377  -0.000069  -0.000027   0.000001  -0.000159
     6  N   -0.000014   0.001409   0.000151   0.000003  -0.000006   0.000004
     7  C   -0.003194  -0.005009   0.004967  -0.007866  -0.006010   0.004928
     8  C   -0.022832  -0.030252  -0.026546  -0.026128  -0.029026  -0.025488
     9  C    0.356555   0.367109   0.369554   0.006469   0.001133  -0.006051
    10  C   -0.003230   0.005949  -0.007805   0.365339   0.359666   0.370073
    11  N    0.005171  -0.001868  -0.003781   0.003838   0.005632  -0.004812
    12  H    0.000111   0.001200   0.000200  -0.000001   0.000001  -0.000000
    13  H    0.000001   0.000191   0.000095  -0.000000  -0.000000  -0.000001
    14  H   -0.000000   0.000115   0.000002  -0.000000  -0.000000   0.000000
    15  H    0.000000  -0.000001  -0.000001  -0.000000  -0.000000   0.000000
    16  H   -0.000000  -0.000001  -0.000000   0.000061   0.000001   0.000000
    17  H   -0.000000   0.000000  -0.000000   0.000001  -0.000000  -0.000000
    18  H   -0.000002  -0.000016  -0.000002   0.000053   0.000003  -0.000001
    19  H   -0.000001  -0.000025  -0.000001   0.000000  -0.000000  -0.000000
    20  H    0.000000  -0.000012   0.000006  -0.000009  -0.000004   0.000004
    21  H    0.000057   0.006016   0.000009  -0.000000  -0.000001   0.000002
    22  H    0.000052   0.000742  -0.000000  -0.000000  -0.000001   0.000000
    23  H    0.002795   0.000191   0.000130  -0.000027   0.002616  -0.000111
    24  H   -0.000108  -0.000011  -0.000178   0.006423   0.000493   0.000315
    25  H    0.627731  -0.031001  -0.030213  -0.000095   0.000652   0.000094
    26  H   -0.031001   0.630798  -0.031006  -0.000243  -0.000051   0.000041
    27  H   -0.030213  -0.031006   0.619232  -0.000007  -0.000090   0.004683
    28  H   -0.000095  -0.000243  -0.000007   0.616779  -0.028445  -0.031549
    29  H    0.000652  -0.000051  -0.000090  -0.028445   0.632309  -0.031805
    30  H    0.000094   0.000041   0.004683  -0.031549  -0.031805   0.624037
    31  H    0.000034  -0.000199   0.005203  -0.000343  -0.000240   0.003865
              31
     1  C   -0.006902
     2  C   -0.032756
     3  C   -0.004270
     4  C    0.005609
     5  C    0.000073
     6  N   -0.000036
     7  C    0.005615
     8  C   -0.032971
     9  C   -0.006986
    10  C   -0.004169
    11  N    0.336402
    12  H   -0.000178
    13  H    0.005191
    14  H    0.000033
    15  H    0.003892
    16  H   -0.000344
    17  H   -0.000244
    18  H   -0.000180
    19  H   -0.000161
    20  H    0.000024
    21  H    0.000027
    22  H   -0.000001
    23  H   -0.000164
    24  H   -0.000195
    25  H    0.000034
    26  H   -0.000199
    27  H    0.005203
    28  H   -0.000343
    29  H   -0.000240
    30  H    0.003865
    31  H    0.484999
 Mulliken charges:
               1
     1  C   -0.303230
     2  C    0.169713
     3  C   -0.300438
     4  C   -0.162176
     5  C    0.027466
     6  N   -0.635819
     7  C   -0.166917
     8  C    0.174773
     9  C   -0.303105
    10  C   -0.299575
    11  N   -0.533588
    12  H    0.090740
    13  H    0.097574
    14  H    0.098522
    15  H    0.092982
    16  H    0.096325
    17  H    0.093856
    18  H    0.097269
    19  H    0.097147
    20  H    0.092390
    21  H    0.245990
    22  H    0.248104
    23  H    0.093573
    24  H    0.088747
    25  H    0.097369
    26  H    0.085965
    27  H    0.095847
    28  H    0.095835
    29  H    0.093339
    30  H    0.091954
    31  H    0.239370
 Sum of Mulliken charges =  -0.00000
 Mulliken charges with hydrogens summed into heavy atoms:
               1
     1  C   -0.016394
     2  C    0.169713
     3  C   -0.017275
     4  C    0.032240
     5  C    0.119856
     6  N   -0.141725
     7  C    0.015402
     8  C    0.174773
     9  C   -0.023925
    10  C   -0.018447
    11  N   -0.294218
 APT charges:
               1
     1  C   -1.040430
     2  C   -0.158345
     3  C   -1.157229
     4  C   -0.738612
     5  C   -0.564883
     6  N   -0.921546
     7  C   -0.694979
     8  C   -0.152785
     9  C   -1.036255
    10  C   -1.152779
    11  N   -0.653041
    12  H    0.220890
    13  H    0.426969
    14  H    0.469326
    15  H    0.430505
    16  H    0.337586
    17  H    0.461246
    18  H    0.387016
    19  H    0.454013
    20  H    0.504199
    21  H    0.244554
    22  H    0.644964
    23  H    0.452469
    24  H    0.363184
    25  H    0.466567
    26  H    0.215862
    27  H    0.422065
    28  H    0.337536
    29  H    0.458871
    30  H    0.427868
    31  H    0.545193
 Sum of APT charges =   0.00000
 APT charges with hydrogens summed into heavy atoms:
               1
     1  C    0.076755
     2  C   -0.158345
     3  C    0.072108
     4  C    0.102417
     5  C   -0.060684
     6  N   -0.032029
     7  C    0.120674
     8  C   -0.152785
     9  C    0.068240
    10  C    0.071497
    11  N   -0.107848
 Electronic spatial extent (au):  <R**2>=           1794.6941
 Charge=              0.0000 electrons
 Dipole moment (field-independent basis, Debye):
    X=             -1.2549    Y=             -0.5215    Z=              0.9546  Tot=              1.6607
 Quadrupole moment (field-independent basis, Debye-Ang):
   XX=            -70.1173   YY=            -74.7587   ZZ=            -70.2943
   XY=             -4.4758   XZ=             -0.6426   YZ=             -3.2724
 Traceless Quadrupole moment (field-independent basis, Debye-Ang):
   XX=              1.6061   YY=             -3.0353   ZZ=              1.4292
   XY=             -4.4758   XZ=             -0.6426   YZ=             -3.2724
 Octapole moment (field-independent basis, Debye-Ang**2):
  XXX=             -1.7813  YYY=            -14.7137  ZZZ=              0.1198  XYY=            -14.2042
  XXY=              6.2430  XXZ=              0.6507  XZZ=             -0.3234  YZZ=              3.7101
  YYZ=              4.3616  XYZ=             -2.5692
 Hexadecapole moment (field-independent basis, Debye-Ang**3):
 XXXX=          -1140.9065 YYYY=           -858.3472 ZZZZ=           -472.9262 XXXY=             -6.5106
 XXXZ=             -0.7562 YYYX=            -50.2083 YYYZ=            -22.5981 ZZZX=             -1.2953
 ZZZY=              3.4279 XXYY=           -323.3705 XXZZ=           -277.4114 YYZZ=           -209.1303
 XXYZ=             -2.0839 YYXZ=             -6.7693 ZZXY=             -2.8233
 N-N= 7.209021155105D+02 E-N=-2.517747797663D+03  KE= 4.601055162741D+02
  Exact polarizability:   0.000   0.000   0.000   0.000   0.000   0.000
 Approx polarizability: 151.172  -1.963 149.771  -0.039  -1.876 147.022
 D2PCM: PCM CHGder 2nd derivatives, FixD1E=F FixD2E=F DoIter=F DoCFld=F I1PDM=0
 Calling FoFJK, ICntrl=    100147 FMM=F ISym2X=0 I1Cent= 0 IOpClX= 0 NMat=1 NMatS=1 NMatT=0.
 ***** Axes restored to original set *****
 -------------------------------------------------------------------
 Center     Atomic                   Forces (Hartrees/Bohr)
 Number     Number              X              Y              Z
 -------------------------------------------------------------------
      1        6           0.007008155    0.005754230    0.004795129
      2        6           0.016331293   -0.015327042    0.001972080
      3        6           0.004852654    0.000362967   -0.004092924
      4        6          -0.002543449   -0.000224431   -0.005117042
      5        6          -0.005220443    0.006114364    0.000086376
      6        7           0.007902751    0.008403296    0.005827530
      7        6           0.002035895   -0.005414301   -0.010820970
      8        6          -0.016040637   -0.014950855    0.004904932
      9        6          -0.006007338    0.005136194    0.006560938
     10        6          -0.005464064    0.000020363   -0.003142881
     11        7          -0.000712065    0.011196051   -0.015775430
     12        1          -0.001759910    0.001282207    0.001173170
     13        1          -0.001113923   -0.000474720   -0.001714550
     14        1           0.000145968    0.000046320    0.000315183
     15        1          -0.000947118    0.001094654    0.001034338
     16        1          -0.001822666    0.001464550    0.002061295
     17        1           0.000349983   -0.000177220    0.000995883
     18        1          -0.001162737   -0.002166477    0.002670492
     19        1          -0.001780898   -0.001956362    0.003096159
     20        1          -0.000107042   -0.000534562   -0.000836401
     21        1          -0.000923610    0.000108382    0.000975838
     22        1           0.000688786   -0.001699683    0.000023354
     23        1           0.001638603   -0.001948808    0.002366695
     24        1          -0.000004475   -0.003119081    0.001461851
     25        1          -0.000129054    0.000072063    0.000322554
     26        1           0.001588118    0.001311234    0.000494202
     27        1           0.000653405   -0.000640161   -0.001854193
     28        1           0.002060752    0.001517094    0.001725500
     29        1          -0.000137430   -0.000174445    0.001046156
     30        1           0.001042213    0.001012617    0.000950034
     31        1          -0.000421717    0.003911562   -0.001505296
 -------------------------------------------------------------------
 Cartesian Forces:  Max     0.016331293 RMS     0.004881210
 FormGI is forming the generalized inverse of G from B-inverse, IUseBI=4.

 GradGradGradGradGradGradGradGradGradGradGradGradGradGradGradGradGradGrad
 Berny optimization.
 Internal  Forces:  Max     0.010040425 RMS     0.002708028
 Search for a local minimum.
 Step number   1 out of a maximum of  186
 All quantities printed in internal units (Hartrees-Bohrs-Radians)
 Mixed Optimization -- RFO/linear search
 Second derivative matrix not updated -- analytic derivatives used.
 ITU=  0
     Eigenvalues ---    0.00098   0.00207   0.00239   0.00375   0.00383
     Eigenvalues ---    0.00525   0.00531   0.00611   0.01313   0.02663
     Eigenvalues ---    0.02787   0.03055   0.03828   0.03849   0.04294
     Eigenvalues ---    0.04376   0.04446   0.04501   0.04510   0.04601
     Eigenvalues ---    0.04625   0.04681   0.04697   0.04818   0.04829
     Eigenvalues ---    0.05006   0.05507   0.05610   0.06322   0.06864
     Eigenvalues ---    0.07308   0.07327   0.07654   0.08423   0.09114
     Eigenvalues ---    0.09811   0.11515   0.11774   0.11845   0.12226
     Eigenvalues ---    0.12264   0.12760   0.13591   0.13882   0.14259
     Eigenvalues ---    0.14402   0.14871   0.14940   0.15012   0.15522
     Eigenvalues ---    0.16066   0.16339   0.17346   0.18440   0.19018
     Eigenvalues ---    0.22269   0.24531   0.25603   0.25737   0.26083
     Eigenvalues ---    0.26190   0.27468   0.27946   0.28486   0.31873
     Eigenvalues ---    0.32200   0.32314   0.33044   0.33087   0.33136
     Eigenvalues ---    0.33152   0.33183   0.33247   0.33270   0.33354
     Eigenvalues ---    0.33428   0.33568   0.33743   0.33947   0.34152
     Eigenvalues ---    0.34662   0.35435   0.36042   0.37932   0.43514
     Eigenvalues ---    0.44071   0.46192
 RFO step:  Lambda=-7.68857576D-03 EMin= 9.84584423D-04
 Linear search not attempted -- first point.
 Iteration  1 RMS(Cart)=  0.02605621 RMS(Int)=  0.00062572
 Iteration  2 RMS(Cart)=  0.00142760 RMS(Int)=  0.00032815
 Iteration  3 RMS(Cart)=  0.00000160 RMS(Int)=  0.00032815
 Iteration  4 RMS(Cart)=  0.00000000 RMS(Int)=  0.00032815
 Variable       Old X    -DE/DX   Delta X   Delta X   Delta X     New X
                                 (Linear)    (Quad)   (Total)
    R1        2.90744   0.00704   0.00000   0.02138   0.02138   2.92882
    R2        2.05641   0.00243   0.00000   0.00523   0.00523   2.06164
    R3        2.07278  -0.00064   0.00000  -0.00142  -0.00142   2.07136
    R4        2.07227   0.00013   0.00000  -0.00167  -0.00167   2.07060
    R5        2.92623  -0.00007   0.00000  -0.00893  -0.00893   2.91730
    R6        2.91598  -0.00128   0.00000   0.00495   0.00493   2.92090
    R7        2.77223   0.00793   0.00000   0.02066   0.02079   2.79302
    R8        2.07294  -0.00048   0.00000  -0.00118  -0.00118   2.07176
    R9        2.07294  -0.00174   0.00000  -0.00633  -0.00633   2.06661
   R10        2.07204   0.00013   0.00000  -0.00182  -0.00182   2.07023
   R11        2.89130   0.00495   0.00000   0.01323   0.01314   2.90444
   R12        2.07939  -0.00195   0.00000  -0.00674  -0.00674   2.07265
   R13        2.07577  -0.00225   0.00000  -0.00582  -0.00582   2.06995
   R14        2.76344   0.01004   0.00000   0.02458   0.02458   2.78803
   R15        2.89303   0.01003   0.00000   0.02380   0.02368   2.91671
   R16        2.07488   0.00036   0.00000  -0.00008  -0.00008   2.07480
   R17        1.91557   0.00071   0.00000   0.00308   0.00308   1.91865
   R18        1.92624  -0.00149   0.00000  -0.00068  -0.00068   1.92555
   R19        2.91671  -0.00046   0.00000   0.00260   0.00261   2.91932
   R20        2.07556  -0.00180   0.00000  -0.00297  -0.00297   2.07259
   R21        2.07937  -0.00048   0.00000  -0.00433  -0.00433   2.07504
   R22        2.90733   0.00723   0.00000   0.02144   0.02144   2.92878
   R23        2.92592   0.00004   0.00000  -0.00906  -0.00906   2.91687
   R24        2.76927   0.00816   0.00000   0.02354   0.02365   2.79292
   R25        2.07231   0.00018   0.00000  -0.00141  -0.00141   2.07090
   R26        2.05645   0.00206   0.00000   0.00461   0.00461   2.06107
   R27        2.07274  -0.00047   0.00000  -0.00127  -0.00127   2.07147
   R28        2.07294  -0.00173   0.00000  -0.00616  -0.00616   2.06678
   R29        2.07204   0.00011   0.00000  -0.00183  -0.00183   2.07021
   R30        2.07294  -0.00033   0.00000  -0.00085  -0.00085   2.07209
   R31        1.92703  -0.00395   0.00000  -0.00382  -0.00382   1.92320
    A1        1.98543  -0.00007   0.00000  -0.00133  -0.00139   1.98404
    A2        1.93982  -0.00294   0.00000  -0.02149  -0.02156   1.91826
    A3        1.93236   0.00115   0.00000   0.00116   0.00115   1.93351
    A4        1.86691   0.00112   0.00000   0.00377   0.00367   1.87058
    A5        1.86465  -0.00003   0.00000   0.00989   0.00988   1.87453
    A6        1.86896   0.00093   0.00000   0.00989   0.00988   1.87884
    A7        1.85211  -0.00220   0.00000   0.00856   0.00819   1.86029
    A8        1.96527   0.00053   0.00000  -0.00041  -0.00025   1.96503
    A9        1.95670   0.00442   0.00000   0.03056   0.02961   1.98631
   A10        1.87564   0.00205   0.00000   0.01053   0.01045   1.88609
   A11        1.83438   0.00278   0.00000   0.01453   0.01447   1.84885
   A12        1.96880  -0.00719   0.00000  -0.05888  -0.05850   1.91030
   A13        1.94855  -0.00203   0.00000  -0.01532  -0.01544   1.93311
   A14        1.94695  -0.00311   0.00000  -0.01867  -0.01877   1.92818
   A15        1.93802   0.00092   0.00000   0.00050   0.00051   1.93853
   A16        1.87501   0.00222   0.00000   0.01163   0.01141   1.88643
   A17        1.87655   0.00051   0.00000   0.00368   0.00366   1.88021
   A18        1.87516   0.00178   0.00000   0.02054   0.02058   1.89573
   A19        2.02201   0.00489   0.00000   0.01186   0.01203   2.03404
   A20        1.89425  -0.00295   0.00000  -0.02067  -0.02054   1.87371
   A21        1.92496  -0.00267   0.00000  -0.01606  -0.01634   1.90862
   A22        1.85620  -0.00054   0.00000   0.00952   0.00911   1.86531
   A23        1.92108  -0.00112   0.00000  -0.00954  -0.00912   1.91196
   A24        1.83447   0.00223   0.00000   0.02759   0.02754   1.86201
   A25        1.97944  -0.00346   0.00000  -0.02084  -0.02012   1.95932
   A26        1.92108  -0.00329   0.00000  -0.00972  -0.01095   1.91013
   A27        1.86480   0.00089   0.00000  -0.00424  -0.00438   1.86042
   A28        1.99410   0.00774   0.00000   0.04467   0.04539   2.03949
   A29        1.82559  -0.00060   0.00000   0.00020  -0.00016   1.82543
   A30        1.86816  -0.00142   0.00000  -0.01244  -0.01258   1.85558
   A31        1.94128   0.00082   0.00000  -0.00615  -0.00626   1.93502
   A32        1.91161  -0.00128   0.00000  -0.01470  -0.01481   1.89680
   A33        1.85083  -0.00049   0.00000  -0.01371  -0.01394   1.83689
   A34        2.02204   0.00329   0.00000   0.01089   0.01109   2.03312
   A35        1.92184   0.00034   0.00000  -0.00541  -0.00499   1.91685
   A36        1.85584   0.00019   0.00000   0.01133   0.01085   1.86669
   A37        1.92487  -0.00354   0.00000  -0.01939  -0.01971   1.90517
   A38        1.89399  -0.00185   0.00000  -0.01577  -0.01567   1.87832
   A39        1.83433   0.00156   0.00000   0.02065   0.02056   1.85489
   A40        1.96369   0.00089   0.00000  -0.00370  -0.00355   1.96014
   A41        1.87612   0.00183   0.00000   0.01388   0.01378   1.88991
   A42        1.96823  -0.00688   0.00000  -0.05919  -0.05880   1.90943
   A43        1.85258  -0.00237   0.00000   0.00982   0.00945   1.86203
   A44        1.95752   0.00361   0.00000   0.03109   0.03001   1.98753
   A45        1.83499   0.00331   0.00000   0.01342   0.01343   1.84841
   A46        1.93233   0.00111   0.00000  -0.00053  -0.00054   1.93179
   A47        1.98510  -0.00026   0.00000  -0.00516  -0.00521   1.97989
   A48        1.93995  -0.00292   0.00000  -0.01936  -0.01943   1.92052
   A49        1.86409   0.00001   0.00000   0.00833   0.00834   1.87243
   A50        1.86900   0.00091   0.00000   0.00987   0.00984   1.87885
   A51        1.86768   0.00134   0.00000   0.00902   0.00892   1.87660
   A52        1.94695  -0.00305   0.00000  -0.01787  -0.01796   1.92899
   A53        1.93809   0.00086   0.00000   0.00013   0.00013   1.93823
   A54        1.94845  -0.00201   0.00000  -0.01543  -0.01555   1.93290
   A55        1.87505   0.00178   0.00000   0.02056   0.02059   1.89564
   A56        1.87514   0.00220   0.00000   0.01143   0.01122   1.88636
   A57        1.87657   0.00052   0.00000   0.00352   0.00349   1.88006
   A58        2.08212   0.00836   0.00000   0.04885   0.04759   2.12970
   A59        1.93358  -0.00363   0.00000  -0.02997  -0.02932   1.90426
   A60        1.93671  -0.00361   0.00000  -0.03302  -0.03235   1.90436
    D1        3.13425  -0.00046   0.00000   0.00104   0.00081   3.13505
    D2        1.08690  -0.00188   0.00000  -0.01677  -0.01687   1.07003
    D3       -1.15554   0.00379   0.00000   0.03852   0.03878  -1.11677
    D4       -1.04057  -0.00124   0.00000  -0.01095  -0.01114  -1.05171
    D5       -3.08792  -0.00265   0.00000  -0.02877  -0.02882  -3.11674
    D6        0.95282   0.00301   0.00000   0.02652   0.02683   0.97965
    D7        1.03430  -0.00122   0.00000  -0.01168  -0.01189   1.02241
    D8       -1.01304  -0.00263   0.00000  -0.02950  -0.02957  -1.04261
    D9        3.02770   0.00303   0.00000   0.02579   0.02608   3.05378
   D10        1.00766   0.00186   0.00000   0.01603   0.01578   1.02344
   D11        3.10577   0.00116   0.00000   0.00747   0.00733   3.11311
   D12       -1.08630   0.00196   0.00000   0.02132   0.02111  -1.06519
   D13        3.11400   0.00238   0.00000   0.02566   0.02557   3.13958
   D14       -1.07107   0.00168   0.00000   0.01710   0.01713  -1.05394
   D15        1.02004   0.00247   0.00000   0.03095   0.03090   1.05094
   D16       -1.06812  -0.00348   0.00000  -0.02982  -0.02964  -1.09776
   D17        1.02999  -0.00418   0.00000  -0.03839  -0.03809   0.99190
   D18        3.12110  -0.00339   0.00000  -0.02453  -0.02431   3.09679
   D19       -1.45151  -0.00048   0.00000   0.03391   0.03309  -1.41841
   D20        2.74603  -0.00081   0.00000   0.02922   0.02890   2.77493
   D21        0.74506  -0.00038   0.00000   0.01649   0.01610   0.76116
   D22        2.79833   0.00063   0.00000   0.01716   0.01663   2.81496
   D23        0.71269   0.00030   0.00000   0.01246   0.01243   0.72512
   D24       -1.28829   0.00073   0.00000  -0.00027  -0.00036  -1.28865
   D25        0.78460  -0.00008   0.00000   0.02527   0.02458   0.80918
   D26       -1.30104  -0.00041   0.00000   0.02058   0.02038  -1.28066
   D27        2.98117   0.00002   0.00000   0.00785   0.00759   2.98876
   D28        1.49240  -0.00185   0.00000  -0.08956  -0.09041   1.40199
   D29       -0.78839  -0.00074   0.00000  -0.05575  -0.05599  -0.84437
   D30       -2.78653  -0.00071   0.00000  -0.05628  -0.05663  -2.84316
   D31        1.21587   0.00040   0.00000  -0.02246  -0.02220   1.19366
   D32       -0.74818  -0.00026   0.00000  -0.06511  -0.06545  -0.81363
   D33       -3.02897   0.00085   0.00000  -0.03129  -0.03102  -3.05999
   D34        1.43454   0.00260   0.00000   0.01109   0.01102   1.44556
   D35       -0.82397  -0.00229   0.00000  -0.02443  -0.02488  -0.84885
   D36       -2.84652   0.00058   0.00000  -0.00239  -0.00225  -2.84877
   D37       -2.74236   0.00152   0.00000  -0.00082  -0.00091  -2.74327
   D38        1.28231  -0.00338   0.00000  -0.03634  -0.03681   1.24550
   D39       -0.74024  -0.00050   0.00000  -0.01429  -0.01419  -0.75442
   D40       -0.76400   0.00330   0.00000   0.03182   0.03168  -0.73232
   D41       -3.02251  -0.00159   0.00000  -0.00370  -0.00423  -3.02674
   D42        1.23813   0.00128   0.00000   0.01835   0.01840   1.25653
   D43       -1.11827  -0.00052   0.00000  -0.02671  -0.02631  -1.14458
   D44        3.12472   0.00038   0.00000   0.00280   0.00308   3.12780
   D45        1.10260  -0.00139   0.00000  -0.01947  -0.01983   1.08276
   D46       -0.93760  -0.00050   0.00000   0.01004   0.00955  -0.92804
   D47        3.13952   0.00052   0.00000  -0.01128  -0.01113   3.12839
   D48        1.09933   0.00141   0.00000   0.01823   0.01826   1.11759
   D49        0.82465   0.00164   0.00000   0.02385   0.02433   0.84898
   D50        3.02375  -0.00028   0.00000   0.00133   0.00187   3.02562
   D51       -1.28106   0.00180   0.00000   0.02880   0.02929  -1.25177
   D52       -1.42591   0.00283   0.00000   0.02382   0.02381  -1.40210
   D53        0.77319   0.00091   0.00000   0.00130   0.00136   0.77455
   D54        2.75157   0.00299   0.00000   0.02877   0.02877   2.78034
   D55        2.84508   0.00021   0.00000   0.00693   0.00693   2.85201
   D56       -1.23900  -0.00172   0.00000  -0.01559  -0.01553  -1.25453
   D57        0.73938   0.00037   0.00000   0.01187   0.01188   0.75126
   D58        1.44956   0.00079   0.00000  -0.03366  -0.03275   1.41681
   D59       -2.80028  -0.00046   0.00000  -0.01515  -0.01456  -2.81485
   D60       -0.78584   0.00092   0.00000  -0.02279  -0.02214  -0.80798
   D61       -0.74800   0.00074   0.00000  -0.01823  -0.01776  -0.76577
   D62        1.28534  -0.00050   0.00000   0.00028   0.00042   1.28576
   D63       -2.98340   0.00087   0.00000  -0.00736  -0.00716  -2.99056
   D64       -2.74861   0.00182   0.00000  -0.02362  -0.02323  -2.77184
   D65       -0.71528   0.00057   0.00000  -0.00511  -0.00504  -0.72032
   D66        1.29917   0.00195   0.00000  -0.01275  -0.01263   1.28655
   D67        1.01911   0.00254   0.00000   0.03743   0.03750   1.05661
   D68       -1.07985   0.00190   0.00000   0.03062   0.03073  -1.04912
   D69        3.09410   0.00251   0.00000   0.03694   0.03700   3.13110
   D70       -1.02825   0.00130   0.00000   0.01660   0.01684  -1.01141
   D71       -3.12722   0.00066   0.00000   0.00979   0.01007  -3.11715
[...]
             N A T U R A L   A T O M I C   O R B I T A L   A N D
          N A T U R A L   B O N D   O R B I T A L   A N A L Y S I S
 ******************************Gaussian NBO Version 3.1******************************
       /RESON  / : Allow strongly delocalized NBO set

 Analyzing the CI density

 Job title: FTVFPPFZRRKJIH-UHFFFAOYSA-N_conf_0                              

 Storage needed:    213854 in NPA (1342172165 available)
 GSVD:  LWork=       37465 too small for GESVD, short by       26921 words or       26921 for optimal perf.


 NATURAL POPULATIONS:  Natural atomic orbital occupancies 
                                                          
   NAO  Atom  No  lang   Type(AO)    Occupancy
 --------------------------------------------
     1    C    1  S      Cor( 1S)     1.99928
     2    C    1  S      Val( 2S)     1.12175
     3    C    1  S      Ryd( 3S)     0.00076
     4    C    1  S      Ryd( 4S)     0.00004
     5    C    1  px     Val( 2p)     1.24176
     6    C    1  px     Ryd( 3p)     0.00187
     7    C    1  py     Val( 2p)     1.25255
     8    C    1  py     Ryd( 3p)     0.00235
     9    C    1  pz     Val( 2p)     1.06064
    10    C    1  pz     Ryd( 3p)     0.00367
    11    C    1  dxy    Ryd( 3d)     0.00055
    12    C    1  dxz    Ryd( 3d)     0.00037
    13    C    1  dyz    Ryd( 3d)     0.00070
    14    C    1  dx2y2  Ryd( 3d)     0.00050
    15    C    1  dz2    Ryd( 3d)     0.00062

    16    C    2  S      Cor( 1S)     1.99911
    17    C    2  S      Val( 2S)     0.91242
    18    C    2  S      Ryd( 3S)     0.00081
    19    C    2  S      Ryd( 4S)     0.00003
    20    C    2  px     Val( 2p)     0.88495
    21    C    2  px     Ryd( 3p)     0.00391
    22    C    2  py     Val( 2p)     1.02610
    23    C    2  py     Ryd( 3p)     0.00348
    24    C    2  pz     Val( 2p)     1.06563
    25    C    2  pz     Ryd( 3p)     0.00254
    26    C    2  dxy    Ryd( 3d)     0.00139
    27    C    2  dxz    Ryd( 3d)     0.00067
    28    C    2  dyz    Ryd( 3d)     0.00091
    29    C    2  dx2y2  Ryd( 3d)     0.00089
    30    C    2  dz2    Ryd( 3d)     0.00113

    31    C    3  S      Cor( 1S)     1.99936
    32    C    3  S      Val( 2S)     1.10328
    33    C    3  S      Ryd( 3S)     0.00069
    34    C    3  S      Ryd( 4S)     0.00002
    35    C    3  px     Val( 2p)     1.16603
    36    C    3  px     Ryd( 3p)     0.00319
    37    C    3  py     Val( 2p)     1.18910
    38    C    3  py     Ryd( 3p)     0.00319
    39    C    3  pz     Val( 2p)     1.23117
    40    C    3  pz     Ryd( 3p)     0.00304
    41    C    3  dxy    Ryd( 3d)     0.00061
    42    C    3  dxz    Ryd( 3d)     0.00027
    43    C    3  dyz    Ryd( 3d)     0.00065
    44    C    3  dx2y2  Ryd( 3d)     0.00049
    45    C    3  dz2    Ryd( 3d)     0.00074

    46    C    4  S      Cor( 1S)     1.99921
    47    C    4  S      Val( 2S)     1.03269
    48    C    4  S      Ryd( 3S)     0.00138
    49    C    4  S      Ryd( 4S)     0.00003
    50    C    4  px     Val( 2p)     1.16435
    51    C    4  px     Ryd( 3p)     0.00293
    52    C    4  py     Val( 2p)     1.08699
    53    C    4  py     Ryd( 3p)     0.00346
    54    C    4  pz     Val( 2p)     1.18667
    55    C    4  pz     Ryd( 3p)     0.00431
    56    C    4  dxy    Ryd( 3d)     0.00079
    57    C    4  dxz    Ryd( 3d)     0.00019
    58    C    4  dyz    Ryd( 3d)     0.00072
    59    C    4  dx2y2  Ryd( 3d)     0.00053
    60    C    4  dz2    Ryd( 3d)     0.00086

    61    C    5  S      Cor( 1S)     1.99921
    62    C    5  S      Val( 2S)     0.94476
    63    C    5  S      Ryd( 3S)     0.00158
    64    C    5  S      Ryd( 4S)     0.00004
    65    C    5  px     Val( 2p)     1.01850
    66    C    5  px     Ryd( 3p)     0.00317
    67    C    5  py     Val( 2p)     1.04101
    68    C    5  py     Ryd( 3p)     0.00571
    69    C    5  pz     Val( 2p)     1.04536
    70    C    5  pz     Ryd( 3p)     0.00494
    71    C    5  dxy    Ryd( 3d)     0.00111
    72    C    5  dxz    Ryd( 3d)     0.00066
    73    C    5  dyz    Ryd( 3d)     0.00162
    74    C    5  dx2y2  Ryd( 3d)     0.00069
    75    C    5  dz2    Ryd( 3d)     0.00103

    76    N    6  S      Cor( 1S)     1.99965
    77    N    6  S      Val( 2S)     1.44433
    78    N    6  S      Ryd( 3S)     0.00162
    79    N    6  S      Ryd( 4S)     0.00004
    80    N    6  px     Val( 2p)     1.67976
    81    N    6  px     Ryd( 3p)     0.00445
    82    N    6  py     Val( 2p)     1.48508
    83    N    6  py     Ryd( 3p)     0.00342
    84    N    6  pz     Val( 2p)     1.30919
    85    N    6  pz     Ryd( 3p)     0.00214
    86    N    6  dxy    Ryd( 3d)     0.00122
    87    N    6  dxz    Ryd( 3d)     0.00045
    88    N    6  dyz    Ryd( 3d)     0.00089
    89    N    6  dx2y2  Ryd( 3d)     0.00097
    90    N    6  dz2    Ryd( 3d)     0.00068

    91    C    7  S      Cor( 1S)     1.99920
    92    C    7  S      Val( 2S)     1.03877
    93    C    7  S      Ryd( 3S)     0.00128
    94    C    7  S      Ryd( 4S)     0.00003
    95    C    7  px     Val( 2p)     1.17485
    96    C    7  px     Ryd( 3p)     0.00312
    97    C    7  py     Val( 2p)     1.08286
    98    C    7  py     Ryd( 3p)     0.00315
    99    C    7  pz     Val( 2p)     1.18400
   100    C    7  pz     Ryd( 3p)     0.00357
   101    C    7  dxy    Ryd( 3d)     0.00076
   102    C    7  dxz    Ryd( 3d)     0.00018
   103    C    7  dyz    Ryd( 3d)     0.00070
   104    C    7  dx2y2  Ryd( 3d)     0.00055
   105    C    7  dz2    Ryd( 3d)     0.00089

   106    C    8  S      Cor( 1S)     1.99910
   107    C    8  S      Val( 2S)     0.91124
   108    C    8  S      Ryd( 3S)     0.00081
   109    C    8  S      Ryd( 4S)     0.00003
   110    C    8  px     Val( 2p)     0.87885
   111    C    8  px     Ryd( 3p)     0.00395
   112    C    8  py     Val( 2p)     1.03289
   113    C    8  py     Ryd( 3p)     0.00350
   114    C    8  pz     Val( 2p)     1.06603
   115    C    8  pz     Ryd( 3p)     0.00241
   116    C    8  dxy    Ryd( 3d)     0.00136
   117    C    8  dxz    Ryd( 3d)     0.00067
   118    C    8  dyz    Ryd( 3d)     0.00091
   119    C    8  dx2y2  Ryd( 3d)     0.00094
   120    C    8  dz2    Ryd( 3d)     0.00112

   121    C    9  S      Cor( 1S)     1.99928
   122    C    9  S      Val( 2S)     1.12218
   123    C    9  S      Ryd( 3S)     0.00078
   124    C    9  S      Ryd( 4S)     0.00004
   125    C    9  px     Val( 2p)     1.24070
   126    C    9  px     Ryd( 3p)     0.00181
   127    C    9  py     Val( 2p)     1.25254
   128    C    9  py     Ryd( 3p)     0.00241
   129    C    9  pz     Val( 2p)     1.06063
   130    C    9  pz     Ryd( 3p)     0.00377
   131    C    9  dxy    Ryd( 3d)     0.00050
   132    C    9  dxz    Ryd( 3d)     0.00035
   133    C    9  dyz    Ryd( 3d)     0.00074
   134    C    9  dx2y2  Ryd( 3d)     0.00055
   135    C    9  dz2    Ryd( 3d)     0.00061

   136    C   10  S      Cor( 1S)     1.99936
   137    C   10  S      Val( 2S)     1.10273
   138    C   10  S      Ryd( 3S)     0.00067
   139    C   10  S      Ryd( 4S)     0.00002
   140    C   10  px     Val( 2p)     1.17197
   141    C   10  px     Ryd( 3p)     0.00307
   142    C   10  py     Val( 2p)     1.18345
   143    C   10  py     Ryd( 3p)     0.00318
   144    C   10  pz     Val( 2p)     1.23151
   145    C   10  pz     Ryd( 3p)     0.00306
   146    C   10  dxy    Ryd( 3d)     0.00059
   147    C   10  dxz    Ryd( 3d)     0.00027
   148    C   10  dyz    Ryd( 3d)     0.00066
   149    C   10  dx2y2  Ryd( 3d)     0.00051
   150    C   10  dz2    Ryd( 3d)     0.00073

   151    N   11  S      Cor( 1S)     1.99930
   152    N   11  S      Val( 2S)     1.34628
   153    N   11  S      Ryd( 3S)     0.00237
   154    N   11  S      Ryd( 4S)     0.00008
   155    N   11  px     Val( 2p)     1.28448
   156    N   11  px     Ryd( 3p)     0.00155
   157    N   11  py     Val( 2p)     1.37628
   158    N   11  py     Ryd( 3p)     0.00188
   159    N   11  pz     Val( 2p)     1.17120
   160    N   11  pz     Ryd( 3p)     0.00357
   161    N   11  dxy    Ryd( 3d)     0.00076
   162    N   11  dxz    Ryd( 3d)     0.00063
   163    N   11  dyz    Ryd( 3d)     0.00084
   164    N   11  dx2y2  Ryd( 3d)     0.00079
   165    N   11  dz2    Ryd( 3d)     0.00027

   166    H   12  S      Val( 1S)     0.78088
   167    H   12  S      Ryd( 2S)     0.01526
   168    H   12  px     Ryd( 2p)     0.00020
   169    H   12  py     Ryd( 2p)     0.00020
   170    H   12  pz     Ryd( 2p)     0.00015

   171    H   13  S      Val( 1S)     0.77596
   172    H   13  S      Ryd( 2S)     0.01919
   173    H   13  px     Ryd( 2p)     0.00008
   174    H   13  py     Ryd( 2p)     0.00027
   175    H   13  pz     Ryd( 2p)     0.00017

   176    H   14  S      Val( 1S)     0.75012
   177    H   14  S      Ryd( 2S)     0.01222
   178    H   14  px     Ryd( 2p)     0.00030
   179    H   14  py     Ryd( 2p)     0.00013
   180    H   14  pz     Ryd( 2p)     0.00008

   181    H   15  S      Val( 1S)     0.76269
   182    H   15  S      Ryd( 2S)     0.01024
   183    H   15  px     Ryd( 2p)     0.00009
   184    H   15  py     Ryd( 2p)     0.00027
   185    H   15  pz     Ryd( 2p)     0.00016

   186    H   16  S      Val( 1S)     0.76214
   187    H   16  S      Ryd( 2S)     0.00803
   188    H   16  px     Ryd( 2p)     0.00008
   189    H   16  py     Ryd( 2p)     0.00010
   190    H   16  pz     Ryd( 2p)     0.00032

   191    H   17  S      Val( 1S)     0.74842
   192    H   17  S      Ryd( 2S)     0.00660
   193    H   17  px     Ryd( 2p)     0.00030
   194    H   17  py     Ryd( 2p)     0.00012
   195    H   17  pz     Ryd( 2p)     0.00008

   196    H   18  S      Val( 1S)     0.76972
   197    H   18  S      Ryd( 2S)     0.01472
   198    H   18  px     Ryd( 2p)     0.00009
   199    H   18  py     Ryd( 2p)     0.00011
   200    H   18  pz     Ryd( 2p)     0.00034

   201    H   19  S      Val( 1S)     0.75167
   202    H   19  S      Ryd( 2S)     0.01311
   203    H   19  px     Ryd( 2p)     0.00025
   204    H   19  py     Ryd( 2p)     0.00019
   205    H   19  pz     Ryd( 2p)     0.00009

   206    H   20  S      Val( 1S)     0.76222
   207    H   20  S      Ryd( 2S)     0.01100
   208    H   20  px     Ryd( 2p)     0.00012
   209    H   20  py     Ryd( 2p)     0.00019
   210    H   20  pz     Ryd( 2p)     0.00028

   211    H   21  S      Val( 1S)     0.66306
   212    H   21  S      Ryd( 2S)     0.02025
   213    H   21  px     Ryd( 2p)     0.00048
   214    H   21  py     Ryd( 2p)     0.00047
   215    H   21  pz     Ryd( 2p)     0.00047

   216    H   22  S      Val( 1S)     0.64354
   217    H   22  S      Ryd( 2S)     0.01812
   218    H   22  px     Ryd( 2p)     0.00065
   219    H   22  py     Ryd( 2p)     0.00043
   220    H   22  pz     Ryd( 2p)     0.00029

   221    H   23  S      Val( 1S)     0.76421
   222    H   23  S      Ryd( 2S)     0.01850
   223    H   23  px     Ryd( 2p)     0.00026
   224    H   23  py     Ryd( 2p)     0.00017
   225    H   23  pz     Ryd( 2p)     0.00009

   226    H   24  S      Val( 1S)     0.77061
   227    H   24  S      Ryd( 2S)     0.01423
   228    H   24  px     Ryd( 2p)     0.00009
   229    H   24  py     Ryd( 2p)     0.00010
   230    H   24  pz     Ryd( 2p)     0.00034

   231    H   25  S      Val( 1S)     0.75268
   232    H   25  S      Ryd( 2S)     0.01336
   233    H   25  px     Ryd( 2p)     0.00031
   234    H   25  py     Ryd( 2p)     0.00012
   235    H   25  pz     Ryd( 2p)     0.00008

   236    H   26  S      Val( 1S)     0.78191
   237    H   26  S      Ryd( 2S)     0.01688
   238    H   26  px     Ryd( 2p)     0.00019
   239    H   26  py     Ryd( 2p)     0.00021
   240    H   26  pz     Ryd( 2p)     0.00014

   241    H   27  S      Val( 1S)     0.77550
   242    H   27  S      Ryd( 2S)     0.01874
   243    H   27  px     Ryd( 2p)     0.00008
   244    H   27  py     Ryd( 2p)     0.00026
   245    H   27  pz     Ryd( 2p)     0.00018

   246    H   28  S      Val( 1S)     0.76180
   247    H   28  S      Ryd( 2S)     0.00770
   248    H   28  px     Ryd( 2p)     0.00008
   249    H   28  py     Ryd( 2p)     0.00010
   250    H   28  pz     Ryd( 2p)     0.00032

   251    H   29  S      Val( 1S)     0.74849
   252    H   29  S      Ryd( 2S)     0.00649
   253    H   29  px     Ryd( 2p)     0.00031
   254    H   29  py     Ryd( 2p)     0.00012
   255    H   29  pz     Ryd( 2p)     0.00008

   256    H   30  S      Val( 1S)     0.76211
   257    H   30  S      Ryd( 2S)     0.00954
   258    H   30  px     Ryd( 2p)     0.00009
   259    H   30  py     Ryd( 2p)     0.00027
   260    H   30  pz     Ryd( 2p)     0.00016

   261    H   31  S      Val( 1S)     0.63129
   262    H   31  S      Ryd( 2S)     0.05583
   263    H   31  px     Ryd( 2p)     0.00017
   264    H   31  py     Ryd( 2p)     0.00050
   265    H   31  pz     Ryd( 2p)     0.00040


 Summary of Natural Population Analysis:                  
                                                          
                                       Natural Population 
                Natural  -----------------------------------------------
    Atom  No    Charge         Core      Valence    Rydberg      Total
 -----------------------------------------------------------------------
      C    1   -0.68740      1.99928     4.67669    0.01143     6.68740
      C    2    0.09604      1.99911     3.88910    0.01576     5.90396
      C    3   -0.70184      1.99936     4.68958    0.01290     6.70184
      C    4   -0.48511      1.99921     4.47071    0.01520     6.48511
      C    5   -0.06939      1.99921     4.04962    0.02055     6.06939
      N    6   -0.93389      1.99965     5.91837    0.01588     7.93389
      C    7   -0.49391      1.99920     4.48049    0.01422     6.49391
      C    8    0.09618      1.99910     3.88901    0.01571     5.90382
      C    9   -0.68688      1.99928     4.67606    0.01154     6.68688
      C   10   -0.70178      1.99936     4.68966    0.01276     6.70178
      N   11   -0.19026      1.99930     5.17824    0.01273     7.19026
      H   12    0.20331      0.00000     0.78088    0.01581     0.79669
      H   13    0.20433      0.00000     0.77596    0.01971     0.79567
      H   14    0.23716      0.00000     0.75012    0.01273     0.76284
      H   15    0.22655      0.00000     0.76269    0.01076     0.77345
      H   16    0.22933      0.00000     0.76214    0.00853     0.77067
      H   17    0.24448      0.00000     0.74842    0.00710     0.75552
      H   18    0.21502      0.00000     0.76972    0.01526     0.78498
      H   19    0.23469      0.00000     0.75167    0.01363     0.76531
      H   20    0.22620      0.00000     0.76222    0.01158     0.77380
      H   21    0.31527      0.00000     0.66306    0.02167     0.68473
      H   22    0.33698      0.00000     0.64354    0.01947     0.66302
      H   23    0.21677      0.00000     0.76421    0.01903     0.78323
      H   24    0.21463      0.00000     0.77061    0.01477     0.78537
      H   25    0.23346      0.00000     0.75268    0.01387     0.76654
      H   26    0.20067      0.00000     0.78191    0.01742     0.79933
      H   27    0.20524      0.00000     0.77550    0.01926     0.79476
      H   28    0.23000      0.00000     0.76180    0.00820     0.77000
      H   29    0.24451      0.00000     0.74849    0.00699     0.75549
      H   30    0.22783      0.00000     0.76211    0.01006     0.77217
      H   31    0.31181      0.00000     0.63129    0.05690     0.68819
 =======================================================================
   * Total *   -0.00000     21.99205    65.52653    0.48142    88.00000

                                 Natural Population      
 --------------------------------------------------------
   Core                      21.99205 ( 99.9638% of  22)
   Valence                   65.52653 ( 99.2826% of  66)
   Natural Minimal Basis     87.51858 ( 99.4529% of  88)
   Natural Rydberg Basis      0.48142 (  0.5471% of  88)
 --------------------------------------------------------

    Atom  No          Natural Electron Configuration
 ----------------------------------------------------------------------------
      C    1      [core]2S( 1.12)2p( 3.55)3p( 0.01)
      C    2      [core]2S( 0.91)2p( 2.98)3p( 0.01)
      C    3      [core]2S( 1.10)2p( 3.59)3p( 0.01)
      C    4      [core]2S( 1.03)2p( 3.44)3p( 0.01)
      C    5      [core]2S( 0.94)2p( 3.10)3p( 0.01)3d( 0.01)
      N    6      [core]2S( 1.44)2p( 4.47)3p( 0.01)
      C    7      [core]2S( 1.04)2p( 3.44)3p( 0.01)
      C    8      [core]2S( 0.91)2p( 2.98)3p( 0.01)
      C    9      [core]2S( 1.12)2p( 3.55)3p( 0.01)
      C   10      [core]2S( 1.10)2p( 3.59)3p( 0.01)
      N   11      [core]2S( 1.35)2p( 3.83)3p( 0.01)
      H   12            1S( 0.78)2S( 0.02)
      H   13            1S( 0.78)2S( 0.02)
      H   14            1S( 0.75)2S( 0.01)
      H   15            1S( 0.76)2S( 0.01)
      H   16            1S( 0.76)2S( 0.01)
      H   17            1S( 0.75)2S( 0.01)
      H   18            1S( 0.77)2S( 0.01)
      H   19            1S( 0.75)2S( 0.01)
      H   20            1S( 0.76)2S( 0.01)
      H   21            1S( 0.66)2S( 0.02)
      H   22            1S( 0.64)2S( 0.02)
      H   23            1S( 0.76)2S( 0.02)
      H   24            1S( 0.77)2S( 0.01)
      H   25            1S( 0.75)2S( 0.01)
      H   26            1S( 0.78)2S( 0.02)
      H   27            1S( 0.78)2S( 0.02)
      H   28            1S( 0.76)2S( 0.01)
      H   29            1S( 0.75)2S( 0.01)
      H   30            1S( 0.76)2S( 0.01)
      H   31            1S( 0.63)2S( 0.06)


 NBO analysis skipped by request.
 1\1\GINC-DRG2-W001\SP\RB3LYP TD-FC\6-31G(d,p)\C9H20N2\QDUEZ\17-Jul-202
 4\0\\# TD(NStates=10, Root=1) B3LYP/6-31G** SCRF=(Solvent=water) volum
 e pop=NPA density=current Geom=AllCheck Guess=Read\\FTVFPPFZRRKJIH-UHF
 FFAOYSA-N_conf_0\\0,1\C,0,1.831248509,-0.0946527901,1.26705919\C,0,1.3
 136914671,-0.4179097807,-0.1581217294\C,0,2.357070599,-1.3497827716,-0
 .8087077261\C,0,1.1764290302,0.8450486958,-1.0420748725\C,0,-0.0877302
 537,1.6962111282,-0.8254584951\N,0,0.0609045326,2.635304198,0.30436697
 94\C,0,-1.3346174361,0.7813992966,-0.8270902114\C,0,-1.2603250432,-0.4
 815601996,0.06219533\C,0,-1.543633237,-0.1687856268,1.5540261279\C,0,-
 2.350083366,-1.4699269586,-0.4017117991\N,0,0.0316161926,-1.1528064709
 ,-0.1966464081\H,0,1.1844268506,0.5798204186,1.8286110265\H,0,1.919453
 2567,-1.0186790998,1.8500475716\H,0,2.8244461235,0.3657237268,1.221019
 25\H,0,2.483293873,-2.2642487967,-0.2169526191\H,0,2.0390724716,-1.637
 3551049,-1.8148119532\H,0,3.3340762961,-0.8592840757,-0.8755452507\H,0
 ,1.1583822595,0.506898456,-2.0850089803\H,0,2.0649220467,1.4746228301,
 -0.9233920433\H,0,-0.1822134313,2.3422903565,-1.7081823711\H,0,0.12718
 0929,2.1348732619,1.1853233817\H,0,-0.7902666311,3.1908133206,0.378727
 488\H,0,-2.2244040437,1.3644714581,-0.5595088592\H,0,-1.4808754728,0.4
 437546071,-1.8613859396\H,0,-2.5663245608,0.2044706753,1.6790484883\H,
 0,-0.8732725637,0.5783212939,1.9788216243\H,0,-1.4462125023,-1.0806544
 995,2.1543666816\H,0,-2.1891735312,-1.7548989972,-1.4452818915\H,0,-3.
 3474454681,-1.0273022654,-0.3076099897\H,0,-2.3317519206,-2.3818583713
 ,0.2072489922\H,0,0.1021150244,-1.9843179148,0.3866290078\\Version=ES6
 4L-G16RevA.03\State=1-A\HF=-464.5349202\RMSD=5.417e-09\Dipole=-0.37160
 27,-1.5050771,-0.1348709\Quadrupole=2.5164054,-3.5080442,0.9916388,-2.
 5104108,-0.4687534,0.0969276\PG=C01 [X(C9H20N2)]\\@


 IT'S WHAT YOU LEARN AFTER YOU KNOW IT ALL
 THAT COUNTS.
 Job cpu time:       0 days  0 hours 57 minutes 46.7 seconds.
 Elapsed time:       0 days  0 hours 19 minutes 19.8 seconds.
 File lengths (MBytes):  RWF=    583 Int=      0 D2E=      0 Chk=     38 Scr=      1
 Normal termination of Gaussian 16 at Wed Jul 17 17:49:32 2024.
