 Entering Gaussian System, Link 0=g16
 Initial command:
 /opt/sw/arch/manual/gaussian/G16_A03/g16/l1.exe "/scratch/1380859/Gau-73499.inp" -scrdir="/scratch/1380859/"
 Entering Link 1 = /opt/sw/arch/manual/gaussian/G16_A03/g16/l1.exe PID=     73500.
  
 Copyright (c) 1988,1990,1992,1993,1995,1998,2003,2009,2016,
            Gaussian, Inc.  All Rights Reserved.
  
 This is part of the Gaussian(R) 16 program.  It is based on
 the Gaussian(R) 09 system (copyright 2009, Gaussian, Inc.),
 the Gaussian(R) 03 system (copyright 2003, Gaussian, Inc.),
 the Gaussian(R) 98 system (copyright 1998, Gaussian, Inc.),
 the Gaussian(R) 94 system (copyright 1995, Gaussian, Inc.),
 the Gaussian 92(TM) system (copyright 1992, Gaussian, Inc.),
 the Gaussian 90(TM) system (copyright 1990, Gaussian, Inc.),
 the Gaussian 88(TM) system (copyright 1988, Gaussian, Inc.),
 the Gaussian 86(TM) system (copyright 1986, Carnegie Mellon
 University), and the Gaussian 82(TM) system (copyright 1983,
 Carnegie Mellon University). Gaussian is a federally registered
 trademark of Gaussian, Inc.
  
 This software contains proprietary and confidential information,
 including trade secrets, belonging to Gaussian, Inc.
  
 This software is provided under written license and may be
 used, copied, transmitted, or stored only in accord with that
 written license.
  
 The following legend is applicable only to US Government
 contracts under FAR:
  
                    RESTRICTED RIGHTS LEGEND
  
 Use, reproduction and disclosure by the US Government is
 subject to restrictions as set forth in subparagraphs (a)
 and (c) of the Commercial Computer Software - Restricted
 Rights clause in FAR 52.227-19.
  
 Gaussian, Inc.
 340 Quinnipiac St., Bldg. 40, Wallingford CT 06492
  
  
 ---------------------------------------------------------------
 Warning -- This program may not be used in any manner that
 competes with the business of Gaussian, Inc. or will provide
 assistance to any competitor of Gaussian, Inc.  The licensee
 of this program is prohibited from giving any competitor of
 Gaussian, Inc. access to this program.  By using this program,
 the user acknowledges that Gaussian, Inc. is engaged in the
 business of creating and licensing software in the field of
 computational chemistry and represents and warrants to the
 licensee that it is not a competitor of Gaussian, Inc. and that
 it will not use this program in any manner prohibited above.
 ---------------------------------------------------------------
  

 Cite this work as:
 Gaussian 16, Revision A.03,
 M. J. Frisch, G. W. Trucks, H. B. Schlegel, G. E. Scuseria, 
 M. A. Robb, J. R. Cheeseman, G. Scalmani, V. Barone, 
 G. A. Petersson, H. Nakatsuji, X. Li, M. Caricato, A. V. Marenich, 
 J. Bloino, B. G. Janesko, R. Gomperts, B. Mennucci, H. P. Hratchian, 
 J. V. Ortiz, A. F. Izmaylov, J. L. Sonnenberg, D. Williams-Young, 
 F. Ding, F. Lipparini, F. Egidi, J. Goings, B. Peng, A. Petrone, 
 T. Henderson, D. Ranasinghe, V. G. Zakrzewski, J. Gao, N. Rega, 
 G. Zheng, W. Liang, M. Hada, M. Ehara, K. Toyota, R. Fukuda, 
 J. Hasegawa, M. Ishida, T. Nakajima, Y. Honda, O. Kitao, H. Nakai, 
 T. Vreven, K. Throssell, J. A. Montgomery, Jr., J. E. Peralta, 
 F. Ogliaro, M. J. Bearpark, J. J. Heyd, E. N. Brothers, K. N. Kudin, 
 V. N. Staroverov, T. A. Keith, R. Kobayashi, J. Normand, 
 K. Raghavachari, A. P. Rendell, J. C. Burant, S. S. Iyengar, 
 J. Tomasi, M. Cossi, J. M. Millam, M. Klene, C. Adamo, R. Cammi, 
 J. W. Ochterski, R. L. Martin, K. Morokuma, O. Farkas, 
 J. B. Foresman, and D. J. Fox, Gaussian, Inc., Wallingford CT, 2016.
 
 ******************************************
 Gaussian 16:  ES64L-G16RevA.03 25-Dec-2016
                18-Jul-2024 
 ******************************************
 %nprocshared=7
 Will use up to    7 processors via shared memory.
 %mem=14GB
 %Chk=IGSBHTZEJMPDSZ-IWTMDLJTSA-N_conf_3_0.chk
 -------------------------------------------------------
 # opt=CalcFc B3LYP/6-31G** SCRF=(Solvent=water) scf=xqc
 -------------------------------------------------------
 1/10=4,18=20,19=15,26=3,38=1/1,3;
 2/9=110,12=2,17=6,18=5,40=1/2;
 3/5=1,6=6,7=101,11=2,25=1,30=1,70=2201,71=2,72=1,74=-5,140=1/1,2,3;
 4//1;
 5/5=2,8=3,13=1,38=5,53=1/2,8;
 8/6=4,10=90,11=11/1;
 11/6=1,8=1,9=11,15=111,16=1/1,2,10;
 10/6=1,13=1/2;
 6/7=2,8=2,9=2,10=2,28=1/1;
 7/10=1,18=20,25=1/1,2,3,16;
 1/10=4,18=20,19=15,26=3/3(2);
 2/9=110/2;
 99//99;
 2/9=110/2;
 3/5=1,6=6,7=101,11=2,25=1,30=1,70=2205,71=1,72=1,74=-5/1,2,3;
 4/5=5,16=3,69=1/1;
 5/5=2,8=3,13=1,38=5,53=1/2,8;
 7//1,2,3,16;
 1/18=20,19=15,26=3/3(-5);
 2/9=110/2;
 6/7=2,8=2,9=2,10=2,19=2,28=1/1;
 99/9=1/99;
 ----------------------------------
 IGSBHTZEJMPDSZ-IWTMDLJTSA-N_conf_3
 ----------------------------------
 Symbolic Z-matrix:
 Charge =  0 Multiplicity = 1
 C                     4.05311  -0.38722   2.22707 
 C                     3.37792  -0.58947   0.86689 
 C                     1.84421  -0.60344   1.05214 
 C                     1.04145  -0.11724  -0.17571 
 C                    -0.40267  -0.6639   -0.09181 
 C                    -1.37635  -0.20286  -1.19925 
 C                    -1.6159    1.31326  -1.22447 
 C                    -2.54716   1.79373  -0.11325 
 C                    -3.89794   1.07233  -0.18438 
 N                    -4.80371   1.60826   0.83197 
 C                    -3.74882  -0.46425  -0.10783 
 C                    -3.46128  -0.99754   1.30086 
 C                    -2.72064  -0.96135  -1.14514 
 C                     1.76461  -0.49802  -1.46842 
 C                     3.16865   0.11078  -1.55361 
 C                     3.78811   0.45368  -0.18807 
 N                     5.23847   0.56285  -0.35244 
 H                     5.13514  -0.53872   2.16238 
 H                     3.87126   0.62133   2.61347 
 H                     3.66948  -1.1058    2.95968 
 H                     3.67822  -1.58227   0.50168 
 H                     1.55713   0.02255   1.90776 
 H                     1.54885  -1.62658   1.32052 
 H                     0.99956   0.97753  -0.11978 
 H                    -0.79775  -0.38442   0.88795 
 H                    -0.35916  -1.76118  -0.10513 
 H                    -0.92184  -0.47651  -2.15915 
 H                    -0.6731    1.86678  -1.18151 
 H                    -2.06805   1.57562  -2.19059 
 H                    -2.69815   2.87489  -0.22717 
 H                    -2.07231   1.64794   0.86402 
 H                    -4.34733   1.30991  -1.1579 
 H                    -5.6753    1.07986   0.82687 
 H                    -4.40126   1.48528   1.75996 
 H                    -4.7144   -0.90485  -0.39644 
 H                    -4.36162  -0.93456   1.92245 
 H                    -3.16704  -2.05182   1.27195 
 H                    -2.68057  -0.43463   1.81586 
 H                    -3.18826  -0.85479  -2.13473 
 H                    -2.54482  -2.0372   -1.02211 
 H                     1.84319  -1.59134  -1.52927 
 H                     1.20358  -0.17911  -2.35253 
 H                     3.80526  -0.5913   -2.10892 
 H                     3.13125   1.02518  -2.16055 
 H                     3.41754   1.43789   0.12769 
 H                     5.658     0.91937   0.50484 
 H                     5.45044   1.2492   -1.0759 
 

 GradGradGradGradGradGradGradGradGradGradGradGradGradGradGradGradGradGrad
 Berny optimization.
 Initialization pass.
                           ----------------------------
                           !    Initial Parameters    !
                           ! (Angstroms and Degrees)  !
 --------------------------                            --------------------------
 ! Name  Definition              Value          Derivative Info.                !
 --------------------------------------------------------------------------------
 ! R1    R(1,2)                  1.532          calculate D2E/DX2 analytically  !
 ! R2    R(1,18)                 1.0945         calculate D2E/DX2 analytically  !
 ! R3    R(1,19)                 1.0952         calculate D2E/DX2 analytically  !
 ! R4    R(1,20)                 1.0956         calculate D2E/DX2 analytically  !
 ! R5    R(2,3)                  1.5449         calculate D2E/DX2 analytically  !
 ! R6    R(2,16)                 1.5393         calculate D2E/DX2 analytically  !
 ! R7    R(2,21)                 1.0996         calculate D2E/DX2 analytically  !
 ! R8    R(3,4)                  1.5455         calculate D2E/DX2 analytically  !
 ! R9    R(3,22)                 1.0983         calculate D2E/DX2 analytically  !
 ! R10   R(3,23)                 1.0982         calculate D2E/DX2 analytically  !
 ! R11   R(4,5)                  1.5464         calculate D2E/DX2 analytically  !
 ! R12   R(4,14)                 1.5294         calculate D2E/DX2 analytically  !
 ! R13   R(4,24)                 1.097          calculate D2E/DX2 analytically  !
 ! R14   R(5,6)                  1.545          calculate D2E/DX2 analytically  !
 ! R15   R(5,25)                 1.0928         calculate D2E/DX2 analytically  !
 ! R16   R(5,26)                 1.0982         calculate D2E/DX2 analytically  !
 ! R17   R(6,7)                  1.5351         calculate D2E/DX2 analytically  !
 ! R18   R(6,13)                 1.5445         calculate D2E/DX2 analytically  !
 ! R19   R(6,27)                 1.0968         calculate D2E/DX2 analytically  !
 ! R20   R(7,8)                  1.5274         calculate D2E/DX2 analytically  !
 ! R21   R(7,28)                 1.0941         calculate D2E/DX2 analytically  !
 ! R22   R(7,29)                 1.0985         calculate D2E/DX2 analytically  !
 ! R23   R(8,9)                  1.533          calculate D2E/DX2 analytically  !
 ! R24   R(8,30)                 1.0976         calculate D2E/DX2 analytically  !
 ! R25   R(8,31)                 1.0963         calculate D2E/DX2 analytically  !
 ! R26   R(9,10)                 1.4631         calculate D2E/DX2 analytically  !
 ! R27   R(9,11)                 1.5457         calculate D2E/DX2 analytically  !
 ! R28   R(9,32)                 1.0982         calculate D2E/DX2 analytically  !
 ! R29   R(10,33)                1.0193         calculate D2E/DX2 analytically  !
 ! R30   R(10,34)                1.0189         calculate D2E/DX2 analytically  !
 ! R31   R(11,12)                1.5335         calculate D2E/DX2 analytically  !
 ! R32   R(11,13)                1.5428         calculate D2E/DX2 analytically  !
 ! R33   R(11,35)                1.0999         calculate D2E/DX2 analytically  !
 ! R34   R(12,36)                1.0959         calculate D2E/DX2 analytically  !
 ! R35   R(12,37)                1.0949         calculate D2E/DX2 analytically  !
 ! R36   R(12,38)                1.0916         calculate D2E/DX2 analytically  !
 ! R37   R(13,39)                1.0997         calculate D2E/DX2 analytically  !
 ! R38   R(13,40)                1.097          calculate D2E/DX2 analytically  !
 ! R39   R(14,15)                1.5327         calculate D2E/DX2 analytically  !
 ! R40   R(14,41)                1.0978         calculate D2E/DX2 analytically  !
 ! R41   R(14,42)                1.0946         calculate D2E/DX2 analytically  !
 ! R42   R(15,16)                1.5382         calculate D2E/DX2 analytically  !
 ! R43   R(15,43)                1.0984         calculate D2E/DX2 analytically  !
 ! R44   R(15,44)                1.0981         calculate D2E/DX2 analytically  !
 ! R45   R(16,17)                1.4637         calculate D2E/DX2 analytically  !
 ! R46   R(16,45)                1.098          calculate D2E/DX2 analytically  !
 ! R47   R(17,46)                1.0188         calculate D2E/DX2 analytically  !
 ! R48   R(17,47)                1.0195         calculate D2E/DX2 analytically  !
 ! A1    A(2,1,18)             111.4052         calculate D2E/DX2 analytically  !
 ! A2    A(2,1,19)             111.2007         calculate D2E/DX2 analytically  !
 ! A3    A(2,1,20)             110.659          calculate D2E/DX2 analytically  !
 ! A4    A(18,1,19)            108.2079         calculate D2E/DX2 analytically  !
 ! A5    A(18,1,20)            107.1526         calculate D2E/DX2 analytically  !
 ! A6    A(19,1,20)            108.0544         calculate D2E/DX2 analytically  !
 ! A7    A(1,2,3)              109.4065         calculate D2E/DX2 analytically  !
 ! A8    A(1,2,16)             113.6782         calculate D2E/DX2 analytically  !
 ! A9    A(1,2,21)             107.0801         calculate D2E/DX2 analytically  !
 ! A10   A(3,2,16)             110.6623         calculate D2E/DX2 analytically  !
 ! A11   A(3,2,21)             107.6241         calculate D2E/DX2 analytically  !
 ! A12   A(16,2,21)            108.1467         calculate D2E/DX2 analytically  !
 ! A13   A(2,3,4)              114.6799         calculate D2E/DX2 analytically  !
 ! A14   A(2,3,22)             110.3486         calculate D2E/DX2 analytically  !
 ! A15   A(2,3,23)             107.741          calculate D2E/DX2 analytically  !
 ! A16   A(4,3,22)             107.6891         calculate D2E/DX2 analytically  !
 ! A17   A(4,3,23)             110.3377         calculate D2E/DX2 analytically  !
 ! A18   A(22,3,23)            105.6831         calculate D2E/DX2 analytically  !
 ! A19   A(3,4,5)              109.3145         calculate D2E/DX2 analytically  !
 ! A20   A(3,4,14)             110.341          calculate D2E/DX2 analytically  !
 ! A21   A(3,4,24)             107.0546         calculate D2E/DX2 analytically  !
 ! A22   A(5,4,14)             113.5416         calculate D2E/DX2 analytically  !
 ! A23   A(5,4,24)             108.3225         calculate D2E/DX2 analytically  !
 ! A24   A(14,4,24)            108.036          calculate D2E/DX2 analytically  !
 ! A25   A(4,5,6)              116.3687         calculate D2E/DX2 analytically  !
 ! A26   A(4,5,25)             107.2095         calculate D2E/DX2 analytically  !
 ! A27   A(4,5,26)             108.3937         calculate D2E/DX2 analytically  !
 ! A28   A(6,5,25)             109.7852         calculate D2E/DX2 analytically  !
 ! A29   A(6,5,26)             108.3261         calculate D2E/DX2 analytically  !
 ! A30   A(25,5,26)            106.3044         calculate D2E/DX2 analytically  !
 ! A31   A(5,6,7)              113.8805         calculate D2E/DX2 analytically  !
 ! A32   A(5,6,13)             112.1402         calculate D2E/DX2 analytically  !
 ! A33   A(5,6,27)             106.9618         calculate D2E/DX2 analytically  !
 ! A34   A(7,6,13)             110.473          calculate D2E/DX2 analytically  !
 ! A35   A(7,6,27)             107.2596         calculate D2E/DX2 analytically  !
 ! A36   A(13,6,27)            105.5947         calculate D2E/DX2 analytically  !
 ! A37   A(6,7,8)              113.1957         calculate D2E/DX2 analytically  !
 ! A38   A(6,7,28)             111.3784         calculate D2E/DX2 analytically  !
 ! A39   A(6,7,29)             108.3347         calculate D2E/DX2 analytically  !
 ! A40   A(8,7,28)             109.7353         calculate D2E/DX2 analytically  !
 ! A41   A(8,7,29)             108.2864         calculate D2E/DX2 analytically  !
 ! A42   A(28,7,29)            105.5678         calculate D2E/DX2 analytically  !
 ! A43   A(7,8,9)              110.8209         calculate D2E/DX2 analytically  !
 ! A44   A(7,8,30)             108.5564         calculate D2E/DX2 analytically  !
 ! A45   A(7,8,31)             110.037          calculate D2E/DX2 analytically  !
 ! A46   A(9,8,30)             109.7256         calculate D2E/DX2 analytically  !
 ! A47   A(9,8,31)             111.1271         calculate D2E/DX2 analytically  !
 ! A48   A(30,8,31)            106.4459         calculate D2E/DX2 analytically  !
 ! A49   A(8,9,10)             109.9312         calculate D2E/DX2 analytically  !
 ! A50   A(8,9,11)             112.3648         calculate D2E/DX2 analytically  !
 ! A51   A(8,9,32)             107.4502         calculate D2E/DX2 analytically  !
 ! A52   A(10,9,11)            112.9213         calculate D2E/DX2 analytically  !
 ! A53   A(10,9,32)            106.4522         calculate D2E/DX2 analytically  !
 ! A54   A(11,9,32)            107.363          calculate D2E/DX2 analytically  !
 ! A55   A(9,10,33)            109.6343         calculate D2E/DX2 analytically  !
 ! A56   A(9,10,34)            110.1163         calculate D2E/DX2 analytically  !
 ! A57   A(33,10,34)           106.2438         calculate D2E/DX2 analytically  !
 ! A58   A(9,11,12)            114.1608         calculate D2E/DX2 analytically  !
 ! A59   A(9,11,13)            110.5668         calculate D2E/DX2 analytically  !
 ! A60   A(9,11,35)            107.4897         calculate D2E/DX2 analytically  !
 ! A61   A(12,11,13)           112.3727         calculate D2E/DX2 analytically  !
 ! A62   A(12,11,35)           105.4472         calculate D2E/DX2 analytically  !
 ! A63   A(13,11,35)           106.234          calculate D2E/DX2 analytically  !
 ! A64   A(11,12,36)           110.3047         calculate D2E/DX2 analytically  !
 ! A65   A(11,12,37)           111.1604         calculate D2E/DX2 analytically  !
 ! A66   A(11,12,38)           112.8411         calculate D2E/DX2 analytically  !
 ! A67   A(36,12,37)           106.923          calculate D2E/DX2 analytically  !
 ! A68   A(36,12,38)           106.8786         calculate D2E/DX2 analytically  !
 ! A69   A(37,12,38)           108.4689         calculate D2E/DX2 analytically  !
 ! A70   A(6,13,11)            116.4479         calculate D2E/DX2 analytically  !
 ! A71   A(6,13,39)            106.9181         calculate D2E/DX2 analytically  !
 ! A72   A(6,13,40)            110.2453         calculate D2E/DX2 analytically  !
 ! A73   A(11,13,39)           106.8837         calculate D2E/DX2 analytically  !
 ! A74   A(11,13,40)           110.3277         calculate D2E/DX2 analytically  !
 ! A75   A(39,13,40)           105.3132         calculate D2E/DX2 analytically  !
 ! A76   A(4,14,15)            112.4099         calculate D2E/DX2 analytically  !
 ! A77   A(4,14,41)            109.1862         calculate D2E/DX2 analytically  !
 ! A78   A(4,14,42)            111.5812         calculate D2E/DX2 analytically  !
 ! A79   A(15,14,41)           109.082          calculate D2E/DX2 analytically  !
 ! A80   A(15,14,42)           107.9935         calculate D2E/DX2 analytically  !
 ! A81   A(41,14,42)           106.3843         calculate D2E/DX2 analytically  !
 ! A82   A(14,15,16)           114.0868         calculate D2E/DX2 analytically  !
 ! A83   A(14,15,43)           107.7658         calculate D2E/DX2 analytically  !
 ! A84   A(14,15,44)           109.2845         calculate D2E/DX2 analytically  !
 ! A85   A(16,15,43)           110.9707         calculate D2E/DX2 analytically  !
 ! A86   A(16,15,44)           108.5876         calculate D2E/DX2 analytically  !
 ! A87   A(43,15,44)           105.8157         calculate D2E/DX2 analytically  !
 ! A88   A(2,16,15)            110.4901         calculate D2E/DX2 analytically  !
 ! A89   A(2,16,17)            113.0517         calculate D2E/DX2 analytically  !
 ! A90   A(2,16,45)            108.6879         calculate D2E/DX2 analytically  !
 ! A91   A(15,16,17)           108.4199         calculate D2E/DX2 analytically  !
 ! A92   A(15,16,45)           108.6142         calculate D2E/DX2 analytically  !
 ! A93   A(17,16,45)           107.448          calculate D2E/DX2 analytically  !
 ! A94   A(16,17,46)           109.8538         calculate D2E/DX2 analytically  !
 ! A95   A(16,17,47)           109.6282         calculate D2E/DX2 analytically  !
 ! A96   A(46,17,47)           106.0152         calculate D2E/DX2 analytically  !
 ! D1    D(18,1,2,3)           170.4691         calculate D2E/DX2 analytically  !
 ! D2    D(18,1,2,16)          -65.2684         calculate D2E/DX2 analytically  !
 ! D3    D(18,1,2,21)           54.1057         calculate D2E/DX2 analytically  !
 ! D4    D(19,1,2,3)           -68.7316         calculate D2E/DX2 analytically  !
 ! D5    D(19,1,2,16)           55.5309         calculate D2E/DX2 analytically  !
 ! D6    D(19,1,2,21)          174.905          calculate D2E/DX2 analytically  !
 ! D7    D(20,1,2,3)            51.3687         calculate D2E/DX2 analytically  !
 ! D8    D(20,1,2,16)          175.6313         calculate D2E/DX2 analytically  !
 ! D9    D(20,1,2,21)          -64.9947         calculate D2E/DX2 analytically  !
 ! D10   D(1,2,3,4)            151.6263         calculate D2E/DX2 analytically  !
 ! D11   D(1,2,3,22)            29.8179         calculate D2E/DX2 analytically  !
 ! D12   D(1,2,3,23)           -85.1024         calculate D2E/DX2 analytically  !
 ! D13   D(16,2,3,4)            25.6172         calculate D2E/DX2 analytically  !
 ! D14   D(16,2,3,22)          -96.1912         calculate D2E/DX2 analytically  !
 ! D15   D(16,2,3,23)          148.8885         calculate D2E/DX2 analytically  !
 ! D16   D(21,2,3,4)           -92.3559         calculate D2E/DX2 analytically  !
 ! D17   D(21,2,3,22)          145.8356         calculate D2E/DX2 analytically  !
 ! D18   D(21,2,3,23)           30.9153         calculate D2E/DX2 analytically  !
 ! D19   D(1,2,16,15)          174.9676         calculate D2E/DX2 analytically  !
 ! D20   D(1,2,16,17)           53.2581         calculate D2E/DX2 analytically  !
 ! D21   D(1,2,16,45)          -65.9468         calculate D2E/DX2 analytically  !
 ! D22   D(3,2,16,15)          -61.4508         calculate D2E/DX2 analytically  !
 ! D23   D(3,2,16,17)          176.8397         calculate D2E/DX2 analytically  !
 ! D24   D(3,2,16,45)           57.6349         calculate D2E/DX2 analytically  !
 ! D25   D(21,2,16,15)          56.2027         calculate D2E/DX2 analytically  !
 ! D26   D(21,2,16,17)         -65.5068         calculate D2E/DX2 analytically  !
 ! D27   D(21,2,16,45)         175.2883         calculate D2E/DX2 analytically  !
 ! D28   D(2,3,4,5)            158.6523         calculate D2E/DX2 analytically  !
 ! D29   D(2,3,4,14)            33.1092         calculate D2E/DX2 analytically  !
 ! D30   D(2,3,4,24)           -84.2214         calculate D2E/DX2 analytically  !
 ! D31   D(22,3,4,5)           -78.1017         calculate D2E/DX2 analytically  !
 ! D32   D(22,3,4,14)          156.3552         calculate D2E/DX2 analytically  !
 ! D33   D(22,3,4,24)           39.0247         calculate D2E/DX2 analytically  !
 ! D34   D(23,3,4,5)            36.784          calculate D2E/DX2 analytically  !
 ! D35   D(23,3,4,14)          -88.7591         calculate D2E/DX2 analytically  !
 ! D36   D(23,3,4,24)          153.9104         calculate D2E/DX2 analytically  !
 ! D37   D(3,4,5,6)            176.3484         calculate D2E/DX2 analytically  !
 ! D38   D(3,4,5,25)            53.0463         calculate D2E/DX2 analytically  !
 ! D39   D(3,4,5,26)           -61.3295         calculate D2E/DX2 analytically  !
 ! D40   D(14,4,5,6)           -59.9771         calculate D2E/DX2 analytically  !
 ! D41   D(14,4,5,25)          176.7207         calculate D2E/DX2 analytically  !
 ! D42   D(14,4,5,26)           62.3449         calculate D2E/DX2 analytically  !
 ! D43   D(24,4,5,6)            60.0252         calculate D2E/DX2 analytically  !
 ! D44   D(24,4,5,25)          -63.277          calculate D2E/DX2 analytically  !
 ! D45   D(24,4,5,26)         -177.6528         calculate D2E/DX2 analytically  !
 ! D46   D(3,4,14,15)          -59.5554         calculate D2E/DX2 analytically  !
 ! D47   D(3,4,14,41)           61.6371         calculate D2E/DX2 analytically  !
 ! D48   D(3,4,14,42)          178.9482         calculate D2E/DX2 analytically  !
 ! D49   D(5,4,14,15)          177.3316         calculate D2E/DX2 analytically  !
 ! D50   D(5,4,14,41)          -61.4759         calculate D2E/DX2 analytically  !
 ! D51   D(5,4,14,42)           55.8352         calculate D2E/DX2 analytically  !
 ! D52   D(24,4,14,15)          57.1669         calculate D2E/DX2 analytically  !
 ! D53   D(24,4,14,41)         178.3594         calculate D2E/DX2 analytically  !
 ! D54   D(24,4,14,42)         -64.3296         calculate D2E/DX2 analytically  !
 ! D55   D(4,5,6,7)            -62.0414         calculate D2E/DX2 analytically  !
 ! D56   D(4,5,6,13)           171.5813         calculate D2E/DX2 analytically  !
 ! D57   D(4,5,6,27)            56.2705         calculate D2E/DX2 analytically  !
 ! D58   D(25,5,6,7)            59.9147         calculate D2E/DX2 analytically  !
 ! D59   D(25,5,6,13)          -66.4625         calculate D2E/DX2 analytically  !
 ! D60   D(25,5,6,27)          178.2266         calculate D2E/DX2 analytically  !
 ! D61   D(26,5,6,7)           175.6011         calculate D2E/DX2 analytically  !
 ! D62   D(26,5,6,13)           49.2238         calculate D2E/DX2 analytically  !
 ! D63   D(26,5,6,27)          -66.087          calculate D2E/DX2 analytically  !
 ! D64   D(5,6,7,8)            -76.0359         calculate D2E/DX2 analytically  !
 ! D65   D(5,6,7,28)            48.1766         calculate D2E/DX2 analytically  !
 ! D66   D(5,6,7,29)           163.8568         calculate D2E/DX2 analytically  !
 ! D67   D(13,6,7,8)            51.2103         calculate D2E/DX2 analytically  !
 ! D68   D(13,6,7,28)          175.4227         calculate D2E/DX2 analytically  !
 ! D69   D(13,6,7,29)          -68.8971         calculate D2E/DX2 analytically  !
 ! D70   D(27,6,7,8)           165.823          calculate D2E/DX2 analytically  !
 ! D71   D(27,6,7,28)          -69.9645         calculate D2E/DX2 analytically  !
 ! D72   D(27,6,7,29)           45.7157         calculate D2E/DX2 analytically  !
 ! D73   D(5,6,13,11)           80.7262         calculate D2E/DX2 analytically  !
 ! D74   D(5,6,13,39)         -159.9095         calculate D2E/DX2 analytically  !
 ! D75   D(5,6,13,40)          -45.9304         calculate D2E/DX2 analytically  !
 ! D76   D(7,6,13,11)          -47.4754         calculate D2E/DX2 analytically  !
 ! D77   D(7,6,13,39)           71.8889         calculate D2E/DX2 analytically  !
 ! D78   D(7,6,13,40)         -174.132          calculate D2E/DX2 analytically  !
 ! D79   D(27,6,13,11)        -163.1344         calculate D2E/DX2 analytically  !
 ! D80   D(27,6,13,39)         -43.7701         calculate D2E/DX2 analytically  !
 ! D81   D(27,6,13,40)          70.209          calculate D2E/DX2 analytically  !
 ! D82   D(6,7,8,9)            -57.1136         calculate D2E/DX2 analytically  !
 ! D83   D(6,7,8,30)          -177.6814         calculate D2E/DX2 analytically  !
 ! D84   D(6,7,8,31)            66.1955         calculate D2E/DX2 analytically  !
 ! D85   D(28,7,8,9)           177.7827         calculate D2E/DX2 analytically  !
 ! D86   D(28,7,8,30)           57.2149         calculate D2E/DX2 analytically  !
 ! D87   D(28,7,8,31)          -58.9083         calculate D2E/DX2 analytically  !
 ! D88   D(29,7,8,9)            63.0213         calculate D2E/DX2 analytically  !
 ! D89   D(29,7,8,30)          -57.5465         calculate D2E/DX2 analytically  !
 ! D90   D(29,7,8,31)         -173.6696         calculate D2E/DX2 analytically  !
 ! D91   D(7,8,9,10)          -176.331          calculate D2E/DX2 analytically  !
 ! D92   D(7,8,9,11)            57.0012         calculate D2E/DX2 analytically  !
 ! D93   D(7,8,9,32)           -60.8775         calculate D2E/DX2 analytically  !
 ! D94   D(30,8,9,10)          -56.46           calculate D2E/DX2 analytically  !
 ! D95   D(30,8,9,11)          176.8723         calculate D2E/DX2 analytically  !
 ! D96   D(30,8,9,32)           58.9935         calculate D2E/DX2 analytically  !
 ! D97   D(31,8,9,10)           60.9905         calculate D2E/DX2 analytically  !
 ! D98   D(31,8,9,11)          -65.6773         calculate D2E/DX2 analytically  !
 ! D99   D(31,8,9,32)          176.444          calculate D2E/DX2 analytically  !
 ! D100  D(8,9,10,33)         -175.8464         calculate D2E/DX2 analytically  !
 ! D101  D(8,9,10,34)          -59.2976         calculate D2E/DX2 analytically  !
 ! D102  D(11,9,10,33)         -49.4922         calculate D2E/DX2 analytically  !
 ! D103  D(11,9,10,34)          67.0566         calculate D2E/DX2 analytically  !
 ! D104  D(32,9,10,33)          68.07           calculate D2E/DX2 analytically  !
 ! D105  D(32,9,10,34)        -175.3812         calculate D2E/DX2 analytically  !
 ! D106  D(8,9,11,12)           76.2934         calculate D2E/DX2 analytically  !
 ! D107  D(8,9,11,13)          -51.5782         calculate D2E/DX2 analytically  !
 ! D108  D(8,9,11,35)         -167.128          calculate D2E/DX2 analytically  !
 ! D109  D(10,9,11,12)         -48.7505         calculate D2E/DX2 analytically  !
 ! D110  D(10,9,11,13)        -176.6221         calculate D2E/DX2 analytically  !
 ! D111  D(10,9,11,35)          67.8281         calculate D2E/DX2 analytically  !
 ! D112  D(32,9,11,12)        -165.7763         calculate D2E/DX2 analytically  !
 ! D113  D(32,9,11,13)          66.3522         calculate D2E/DX2 analytically  !
 ! D114  D(32,9,11,35)         -49.1976         calculate D2E/DX2 analytically  !
 ! D115  D(9,11,12,36)          72.9893         calculate D2E/DX2 analytically  !
 ! D116  D(9,11,12,37)        -168.584          calculate D2E/DX2 analytically  !
 ! D117  D(9,11,12,38)         -46.4678         calculate D2E/DX2 analytically  !
 ! D118  D(13,11,12,36)       -160.0679         calculate D2E/DX2 analytically  !
 ! D119  D(13,11,12,37)        -41.6413         calculate D2E/DX2 analytically  !
 ! D120  D(13,11,12,38)         80.475          calculate D2E/DX2 analytically  !
 ! D121  D(35,11,12,36)        -44.7659         calculate D2E/DX2 analytically  !
 ! D122  D(35,11,12,37)         73.6607         calculate D2E/DX2 analytically  !
 ! D123  D(35,11,12,38)       -164.223          calculate D2E/DX2 analytically  !
 ! D124  D(9,11,13,6)           47.8605         calculate D2E/DX2 analytically  !
 ! D125  D(9,11,13,39)         -71.5223         calculate D2E/DX2 analytically  !
 ! D126  D(9,11,13,40)         174.4761         calculate D2E/DX2 analytically  !
 ! D127  D(12,11,13,6)         -80.9826         calculate D2E/DX2 analytically  !
 ! D128  D(12,11,13,39)        159.6345         calculate D2E/DX2 analytically  !
 ! D129  D(12,11,13,40)         45.633          calculate D2E/DX2 analytically  !
 ! D130  D(35,11,13,6)         164.1927         calculate D2E/DX2 analytically  !
 ! D131  D(35,11,13,39)         44.8099         calculate D2E/DX2 analytically  !
 ! D132  D(35,11,13,40)        -69.1917         calculate D2E/DX2 analytically  !
 ! D133  D(4,14,15,16)          23.9965         calculate D2E/DX2 analytically  !
 ! D134  D(4,14,15,43)         147.6998         calculate D2E/DX2 analytically  !
 ! D135  D(4,14,15,44)         -97.7612         calculate D2E/DX2 analytically  !
 ! D136  D(41,14,15,16)        -97.2557         calculate D2E/DX2 analytically  !
 ! D137  D(41,14,15,43)         26.4476         calculate D2E/DX2 analytically  !
 ! D138  D(41,14,15,44)        140.9866         calculate D2E/DX2 analytically  !
 ! D139  D(42,14,15,16)        147.5187         calculate D2E/DX2 analytically  !
 ! D140  D(42,14,15,43)        -88.778          calculate D2E/DX2 analytically  !
 ! D141  D(42,14,15,44)         25.761          calculate D2E/DX2 analytically  !
 ! D142  D(14,15,16,2)          35.7262         calculate D2E/DX2 analytically  !
 ! D143  D(14,15,16,17)        160.1309         calculate D2E/DX2 analytically  !
 ! D144  D(14,15,16,45)        -83.4042         calculate D2E/DX2 analytically  !
 ! D145  D(43,15,16,2)         -86.2306         calculate D2E/DX2 analytically  !
 ! D146  D(43,15,16,17)         38.1741         calculate D2E/DX2 analytically  !
 ! D147  D(43,15,16,45)        154.639          calculate D2E/DX2 analytically  !
 ! D148  D(44,15,16,2)         157.8673         calculate D2E/DX2 analytically  !
 ! D149  D(44,15,16,17)        -77.728          calculate D2E/DX2 analytically  !
 ! D150  D(44,15,16,45)         38.7369         calculate D2E/DX2 analytically  !
 ! D151  D(2,16,17,46)         -65.2165         calculate D2E/DX2 analytically  !
 ! D152  D(2,16,17,47)         178.6669         calculate D2E/DX2 analytically  !
 ! D153  D(15,16,17,46)        171.9167         calculate D2E/DX2 analytically  !
 ! D154  D(15,16,17,47)         55.8001         calculate D2E/DX2 analytically  !
 ! D155  D(45,16,17,46)         54.7016         calculate D2E/DX2 analytically  !
 ! D156  D(45,16,17,47)        -61.415          calculate D2E/DX2 analytically  !
 --------------------------------------------------------------------------------
 Trust Radius=3.00D-01 FncErr=1.00D-07 GrdErr=1.00D-06 EigMax=2.50D+02 EigMin=1.00D-04
 Number of steps in this run=    282 maximum allowed number of steps=    282.
 GradGradGradGradGradGradGradGradGradGradGradGradGradGradGradGradGradGrad

                          Input orientation:                          
 ---------------------------------------------------------------------
 Center     Atomic      Atomic             Coordinates (Angstroms)
 Number     Number       Type             X           Y           Z
 ---------------------------------------------------------------------
      1          6           0        4.053110   -0.387220    2.227071
      2          6           0        3.377921   -0.589469    0.866892
      3          6           0        1.844205   -0.603437    1.052145
      4          6           0        1.041450   -0.117240   -0.175711
      5          6           0       -0.402670   -0.663903   -0.091805
      6          6           0       -1.376345   -0.202863   -1.199247
      7          6           0       -1.615903    1.313255   -1.224466
      8          6           0       -2.547163    1.793735   -0.113253
      9          6           0       -3.897945    1.072332   -0.184377
     10          7           0       -4.803711    1.608260    0.831973
     11          6           0       -3.748823   -0.464252   -0.107831
     12          6           0       -3.461278   -0.997537    1.300862
     13          6           0       -2.720643   -0.961348   -1.145139
     14          6           0        1.764613   -0.498016   -1.468424
     15          6           0        3.168654    0.110779   -1.553608
     16          6           0        3.788113    0.453680   -0.188071
     17          7           0        5.238472    0.562852   -0.352444
     18          1           0        5.135137   -0.538722    2.162377
     19          1           0        3.871260    0.621326    2.613473
     20          1           0        3.669475   -1.105797    2.959684
     21          1           0        3.678224   -1.582270    0.501685
     22          1           0        1.557132    0.022555    1.907764
     23          1           0        1.548852   -1.626577    1.320522
     24          1           0        0.999565    0.977531   -0.119780
     25          1           0       -0.797750   -0.384420    0.887945
     26          1           0       -0.359159   -1.761176   -0.105128
     27          1           0       -0.921842   -0.476506   -2.159152
     28          1           0       -0.673101    1.866777   -1.181511
     29          1           0       -2.068050    1.575624   -2.190589
     30          1           0       -2.698149    2.874894   -0.227165
     31          1           0       -2.072315    1.647937    0.864025
     32          1           0       -4.347334    1.309911   -1.157905
     33          1           0       -5.675298    1.079860    0.826875
     34          1           0       -4.401263    1.485276    1.759961
     35          1           0       -4.714402   -0.904853   -0.396437
     36          1           0       -4.361621   -0.934556    1.922448
     37          1           0       -3.167045   -2.051816    1.271948
     38          1           0       -2.680575   -0.434631    1.815865
     39          1           0       -3.188258   -0.854789   -2.134726
     40          1           0       -2.544816   -2.037199   -1.022114
     41          1           0        1.843192   -1.591342   -1.529270
     42          1           0        1.203584   -0.179107   -2.352527
     43          1           0        3.805262   -0.591298   -2.108919
     44          1           0        3.131253    1.025177   -2.160545
     45          1           0        3.417542    1.437895    0.127689
     46          1           0        5.658001    0.919374    0.504836
     47          1           0        5.450440    1.249205   -1.075896
 ---------------------------------------------------------------------
                    Distance matrix (angstroms):
                    1          2          3          4          5
     1  C    0.000000
     2  C    1.531951   0.000000
     3  C    2.511267   1.544927   0.000000
     4  C    3.862169   2.601753   1.545455   0.000000
     5  C    5.030678   3.900963   2.522048   1.546403   0.000000
     6  C    6.422821   5.198215   3.949831   2.626917   1.545001
     7  C    6.851454   5.738677   4.563881   3.194953   2.581474
     8  C    7.334663   6.461189   5.136993   4.066186   3.261793
     9  C    8.435914   7.536907   6.108148   5.080627   3.903848
    10  N    9.185397   8.471737   7.009626   6.177271   5.038378
    11  C    8.144192   7.194182   5.713745   4.803305   3.352142
    12  C    7.595814   6.865093   5.325911   4.819725   3.377265
    13  C    7.588489   6.432655   5.078779   3.975632   2.563393
    14  C    4.348124   2.839865   2.524028   1.529400   2.572880
    15  C    3.914562   2.528430   3.009022   2.544718   3.935906
    16  C    2.571040   1.539274   2.536614   2.805399   4.338309
    17  N    2.993596   2.505249   3.854108   4.255438   5.778870
    18  H    1.094496   2.183727   3.473764   4.733136   5.980327
    19  H    1.095235   2.181732   2.836678   4.041392   5.218890
    20  H    1.095559   2.175173   2.687505   4.208855   5.107761
    21  H    2.132051   1.099642   2.150522   3.091561   4.224846
    22  H    2.549467   2.184780   1.098345   2.150892   2.882763
    23  H    2.937541   2.151016   1.098215   2.185010   2.594195
    24  H    4.085877   3.014231   2.141561   1.096999   2.159016
    25  H    5.032307   4.180756   2.656098   2.141356   1.092754
    26  H    5.176392   4.035281   2.744896   2.160836   1.098217
    27  H    6.633029   5.259055   4.240230   2.813827   2.139762
    28  H    6.247880   5.161384   4.174686   2.808495   2.768561
    29  H    7.799813   6.610176   5.528957   4.073636   3.491972
    30  H    7.889497   7.079364   5.862457   4.789584   4.220264
    31  H    6.597014   5.891610   4.521416   3.727255   3.007645
    32  H    9.214433   8.208959   6.846924   5.660429   4.537938
    33  H    9.937545   9.205925   7.708902   6.895864   5.628969
    34  H    8.671842   8.100484   6.623412   5.994831   4.902729
    35  H    9.166243   8.196411   6.723434   5.813680   4.329190
    36  H    8.438013   7.818810   6.275296   5.853499   4.450142
    37  H    7.470862   6.718565   5.220990   4.852806   3.380517
    38  H    6.746396   6.134322   4.591884   4.233270   2.980037
    39  H    8.466481   7.224598   5.961963   4.719337   3.459691
    40  H    7.537391   6.383031   5.061791   4.154990   2.709282
    41  H    4.521476   3.016743   2.763993   2.155896   2.823180
    42  H    5.397761   3.906507   3.490306   2.183722   2.815304
    43  H    4.347860   3.006339   3.719975   3.405978   4.666981
    44  H    4.700624   3.439957   3.824951   3.100316   4.429592
    45  H    2.853488   2.158285   2.738073   2.855926   4.365747
    46  H    2.692388   2.757980   4.142890   4.780194   6.292414
    47  H    3.942082   3.383855   4.578839   4.702839   6.235969
                    6          7          8          9         10
     6  C    0.000000
     7  C    1.535134   0.000000
     8  C    2.556678   1.527384   0.000000
     9  C    3.002423   2.519433   1.533001   0.000000
    10  N    4.376398   3.805008   2.453540   1.463078   0.000000
    11  C    2.624531   2.992616   2.557835   1.545699   2.508251
    12  C    3.350969   3.888759   3.259835   2.584757   2.968528
    13  C    1.544462   2.529933   2.947094   2.538692   3.853703
    14  C    3.166258   3.842929   5.067546   6.014925   7.271251
    15  C    4.569569   4.944317   6.130052   7.261969   8.455297
    16  C    5.303316   5.569235   6.475884   7.710917   8.728859
    17  N    6.712615   6.950250   7.885962   9.152154  10.165685
    18  H    7.335715   7.776700   8.344854   9.470972  10.254765
    19  H    6.538614   6.731827   7.071473   8.269940   8.910830
    20  H    6.600932   7.161993   7.516437   8.479104   9.148122
    21  H    5.508593   6.276260   7.108516   8.057041   9.068174
    22  H    4.278974   4.641650   4.905795   5.936071   6.643200
    23  H    4.114970   5.013506   5.525539   6.262302   7.145481
    24  H    2.864180   2.858971   3.639438   4.898853   5.914530
    25  H    2.173501   2.830857   2.967693   3.589318   4.474553
    26  H    2.158727   3.504918   4.174304   4.534098   5.655554
    27  H    1.096755   2.135088   3.461411   3.893048   5.325597
    28  H    2.185927   1.094124   2.158383   3.467713   4.602487
    29  H    2.150403   1.098485   2.143000   2.761650   4.076860
    30  H    3.487792   2.145829   1.097578   2.165773   2.675729
    31  H    2.857783   2.163820   1.096271   2.182520   2.731872
    32  H    3.334212   2.732244   2.136820   1.098249   2.063227
    33  H    4.922555   4.554247   3.343454   2.044914   1.019263
    34  H    4.555969   4.085905   2.653632   2.050439   1.018946
    35  H    3.504271   3.899529   3.472678   2.149612   2.798697
    36  H    4.380893   4.742856   3.857448   2.946405   2.801873
    37  H    3.568198   4.467866   4.134162   3.523548   4.033411
    38  H    3.293270   3.665002   2.950408   2.784581   3.106308
    39  H    2.140830   2.828655   3.392939   2.832192   4.180622
    40  H    2.182083   3.482724   3.937269   3.493128   4.672217
    41  H    3.521677   4.527132   5.721806   6.470282   7.745595
    42  H    2.826067   3.383663   4.793178   5.682655   7.030172
    43  H    5.275172   5.813658   7.072791   8.112393   9.359558
    44  H    4.769761   4.847135   6.084940   7.301855   8.500518
    45  H    5.237767   5.213389   5.980166   7.331260   8.253123
    46  H    7.324298   7.487009   8.274736   9.581988  10.489470
    47  H    6.980595   7.068195   8.073714   9.392464  10.436306
                   11         12         13         14         15
    11  C    0.000000
    12  C    1.533457   0.000000
    13  C    1.542811   2.555928   0.000000
    14  C    5.678937   5.935352   4.520698   0.000000
    15  C    7.090305   7.302901   6.000010   1.532717   0.000000
    16  C    7.593053   7.541660   6.729204   2.576739   1.538181
    17  N    9.049102   8.991879   8.142424   3.799810   2.435428
    18  H    9.169740   8.651652   8.534141   4.954272   4.254110
    19  H    8.163923   7.622977   7.751465   4.727872   4.256628
    20  H    8.053098   7.321957   7.596319   4.858605   4.701136
    21  H    7.535416   7.207849   6.636495   2.952769   2.711144
    22  H    5.696732   5.156875   5.346741   3.422381   3.819147
    23  H    5.608614   5.049503   4.974998   3.016359   3.728644
    24  H    4.962466   5.081165   4.318629   2.140416   2.740816
    25  H    3.115570   2.764199   2.857236   3.482971   4.683884
    26  H    3.629303   3.490429   2.701473   2.822155   4.248268
    27  H    3.492834   4.323414   2.121080   2.773915   4.176571
    28  H    4.005814   4.705359   3.491710   3.408374   4.240410
    29  H    3.365112   4.555489   2.820473   4.417104   5.474905
    30  H    3.502578   4.232370   3.944608   5.730051   6.619604
    31  H    2.866448   3.019699   3.356402   4.976690   5.972902
    32  H    2.146747   3.486394   2.793725   6.381294   7.621324
    33  H    2.639936   3.072805   4.096993   7.944203   9.209849
    34  H    2.777586   2.694198   4.153319   7.236984   8.376910
    35  H    1.099893   2.111807   2.130451   6.579689   8.032006
    36  H    2.172266   1.095880   3.479025   7.015648   8.359469
    37  H    2.182341   1.094948   2.688997   5.851938   7.266475
    38  H    2.200599   1.091600   3.007754   5.527229   6.772319
    39  H    2.138938   3.449374   1.099682   5.010207   6.456032
    40  H    2.181676   2.704998   1.097044   4.597766   6.126992
    41  H    5.878899   6.041495   4.623099   1.097833   2.157465
    42  H    5.444842   5.981473   4.179622   1.094574   2.140982
    43  H    7.815670   8.037055   6.607061   2.140838   1.098432
    44  H    7.332631   7.715839   6.262748   2.160290   1.098133
    45  H    7.418249   7.390929   6.712211   3.004581   2.156372
    46  H    9.527755   9.352511   8.744210   4.589251   3.329844
    47  H    9.407419   9.492921   8.465101   4.097826   2.594372
                   16         17         18         19         20
    16  C    0.000000
    17  N    1.463720   0.000000
    18  H    2.885125   2.747448   0.000000
    19  H    2.807788   3.266397   1.773862   0.000000
    20  H    3.514884   4.026950   1.762224   1.773001   0.000000
    21  H    2.152424   2.786657   2.443254   3.058226   2.503770
    22  H    3.091226   4.353473   3.630700   2.492336   2.615666
    23  H    3.408462   4.604966   3.841040   3.481145   2.730405
    24  H    2.838149   4.265492   4.960869   3.980475   4.577311
    25  H    4.784388   6.234730   6.070184   5.078250   4.976805
    26  H    4.702376   6.065950   6.068218   5.564490   5.104164
    27  H    5.189805   6.503378   7.440865   6.852518   6.904975
    28  H    4.783953   6.110178   7.120649   6.050146   6.696541
    29  H    6.289951   7.601957   8.677827   7.698383   8.162998
    30  H    6.923540   8.267477   8.872601   7.503661   8.157729
    31  H    6.072707   7.490314   7.642942   6.280173   6.703954
    32  H    8.237670   9.648551  10.215624   9.068777   9.330564
    33  H    9.538259  10.989471  11.012216   9.723115   9.831112
    34  H    8.480855   9.911488   9.757122   8.361191   8.560947
    35  H    8.612885  10.060606  10.183074   9.225094   9.032902
    36  H    8.532271   9.978935   9.508031   8.407057   8.099610
    37  H    7.535475   8.951416   8.485785   7.647425   7.105027
    38  H    6.829992   8.270903   7.824082   6.684142   6.487058
    39  H    7.360116   8.729033   9.372507   8.634877   8.546609
    40  H    6.856099   8.233365   8.447964   7.839087   7.439062
    41  H    3.124683   4.189677   5.056992   5.115787   4.870500
    42  H    3.430026   4.564116   5.997565   5.693711   5.929499
    43  H    2.186762   2.543887   4.473847   4.876044   5.096458
    44  H    2.156091   2.814844   5.014877   4.847882   5.572027
    45  H    1.098047   2.076538   3.316188   2.655517   3.814975
    46  H    2.047797   1.018843   2.268672   2.779861   3.752576
    47  H    2.045586   1.019507   3.712481   4.061956   5.000377
                   21         22         23         24         25
    21  H    0.000000
    22  H    3.008580   0.000000
    23  H    2.281815   1.750588   0.000000
    24  H    3.756862   2.309501   3.026146   0.000000
    25  H    4.649557   2.598293   2.690096   2.469972   0.000000
    26  H    4.086648   3.302363   2.385603   3.057264   1.753286
    27  H    5.428017   4.788964   4.419855   3.156749   3.051013
    28  H    5.801991   4.233050   4.837434   2.171599   3.060404
    29  H    7.088039   5.687747   5.971932   3.749164   3.864299
    30  H    7.813812   5.549880   6.379309   4.157476   3.934223
    31  H    6.605620   4.111465   4.903435   3.294504   2.399075
    32  H    8.690715   6.776306   7.037796   5.456877   4.433487
    33  H    9.730419   7.388793   7.730255   6.742435   5.092968
    34  H    8.733338   6.137089   6.729086   5.741095   4.152286
    35  H    8.467684   6.745484   6.534308   6.022402   4.154594
    36  H    8.190067   5.995657   5.981212   6.047237   3.751536
    37  H    6.904454   5.198569   4.735279   5.336149   2.922537
    38  H    6.593820   4.263287   4.422008   4.391395   2.099663
    39  H    7.391107   6.295250   5.913933   4.995524   3.882308
    40  H    6.423017   5.445434   4.734414   4.739772   3.071196
    41  H    2.737188   3.807847   2.865169   3.049176   3.778117
    42  H    4.029793   4.279689   3.963037   2.522815   3.814204
    43  H    2.795249   4.643776   4.233705   3.780190   5.496519
    44  H    3.766354   4.475964   4.653345   2.951455   5.168880
    45  H    3.054377   2.938194   3.782306   2.473821   4.654837
    46  H    3.190258   4.426016   4.902276   4.700484   6.597224
    47  H    3.694152   5.056159   5.406970   4.560510   6.750206
                   26         27         28         29         30
    26  H    0.000000
    27  H    2.487168   0.000000
    28  H    3.797263   2.551201   0.000000
    29  H    4.289952   2.350748   1.746107   0.000000
    30  H    5.194123   4.256726   2.455177   2.437245   0.000000
    31  H    3.936523   3.869941   2.487952   3.055473   1.757210
    32  H    5.142514   3.990962   3.716267   2.516382   2.456677
    33  H    6.099299   5.825288   5.447461   4.728965   3.632708
    34  H    5.509683   5.595927   4.764135   4.588997   2.963158
    35  H    4.448178   4.204065   4.962901   4.046595   4.287239
    36  H    4.562243   5.357364   5.575590   5.336530   4.679732
    37  H    3.140864   4.392606   5.253055   5.133739   5.171042
    38  H    3.292249   4.346913   4.279099   4.524156   3.889374
    39  H    3.597861   2.297898   3.826428   2.676732   4.217764
    40  H    2.386242   2.522432   4.332407   3.826895   4.978364
    41  H    2.628189   3.047134   4.290834   5.075907   6.501270
    42  H    3.161631   2.154826   3.013116   3.716032   5.391438
    43  H    4.767201   4.728764   5.192106   6.260832   7.605908
    44  H    4.916450   4.322341   4.017451   5.228446   6.414151
    45  H    4.954970   5.265437   4.316400   5.956938   6.292262
    46  H    6.615408   7.234614   6.619984   8.209010   8.613078
    47  H    6.614849   6.690104   6.155510   7.607679   8.352407
                   31         32         33         34         35
    31  H    0.000000
    32  H    3.062380   0.000000
    33  H    3.647682   2.399117   0.000000
    34  H    2.500632   2.923628   1.630392   0.000000
    35  H    3.884086   2.370601   2.521685   3.234319   0.000000
    36  H    3.609772   3.811353   2.642708   2.425605   2.345754
    37  H    3.879821   4.312594   4.036932   3.777892   2.548204
    38  H    2.369192   3.829467   3.498593   2.578746   3.041683
    39  H    4.062200   2.642643   4.324270   4.702751   2.313714
    40  H    4.166654   3.804031   4.789022   4.857382   2.526021
    41  H    5.617115   6.846736   8.319522   7.699210   6.690039
    42  H    4.941235   5.870008   7.681967   7.148219   6.274994
    43  H    6.956902   8.425192  10.064427   9.307387   8.695723
    44  H    6.050865   7.550869   9.299624   8.504167   8.269909
    45  H    5.542999   7.871622   9.126708   7.987507   8.478897
    46  H    7.772876  10.150071  11.339009  10.153047  10.570091
    47  H    7.779082   9.798305  11.288546  10.254456  10.412763
                   36         37         38         39         40
    36  H    0.000000
    37  H    1.760236   0.000000
    38  H    1.757043   1.774200   0.000000
    39  H    4.224193   3.610921   4.005177   0.000000
    40  H    3.631397   2.376995   3.262021   1.746429   0.000000
    41  H    7.130598   5.758588   5.743899   5.120994   4.439664
    42  H    7.058159   5.978817   5.703286   4.448849   4.390103
    43  H    9.114150   7.885204   7.582517   6.998530   6.602671
    44  H    8.755258   7.805027   7.191677   6.593266   6.549193
    45  H    8.328569   7.539509   6.598736   7.349253   6.996288
    46  H   10.287832   9.343332   8.548916   9.400597   8.852068
    47  H   10.489776   9.522087   8.792666   8.954050   8.644505
                   41         42         43         44         45
    41  H    0.000000
    42  H    1.755350   0.000000
    43  H    2.277235   2.645369   0.000000
    44  H    2.983920   2.281023   1.752126   0.000000
    45  H    3.794781   3.696996   3.044728   2.342715   0.000000
    46  H    4.999404   5.404906   3.542102   3.674222   2.330399
    47  H    4.613728   4.658932   2.676041   2.570074   2.369999
                   46         47
    46  H    0.000000
    47  H    1.628062   0.000000
 Stoichiometry    C15H30N2
 Framework group  C1[X(C15H30N2)]
 Deg. of freedom   135
 Full point group                 C1      NOp   1
 Largest Abelian subgroup         C1      NOp   1
 Largest concise Abelian subgroup C1      NOp   1
                         Standard orientation:                         
 ---------------------------------------------------------------------
 Center     Atomic      Atomic             Coordinates (Angstroms)
 Number     Number       Type             X           Y           Z
 ---------------------------------------------------------------------
      1          6           0       -4.124043    2.183734    0.375808
      2          6           0       -3.436634    0.953197   -0.224292
      3          6           0       -1.910181    1.187579   -0.266808
      4          6           0       -1.057155   -0.097933   -0.176047
      5          6           0        0.350222    0.180299   -0.753315
      6          6           0        1.370090   -0.976723   -0.662771
      7          6           0        1.699459   -1.403784    0.774509
      8          6           0        2.636543   -0.433287    1.490686
      9          6           0        3.943319   -0.260007    0.708125
     10          7           0        4.860022    0.603335    1.453038
     11          6           0        3.702037    0.225066   -0.739519
     12          6           0        3.357046    1.714899   -0.852965
     13          6           0        2.665850   -0.673145   -1.446485
     14          6           0       -1.777235   -1.262944   -0.856707
     15          6           0       -3.140908   -1.557878   -0.222174
     16          6           0       -3.764465   -0.358412    0.511623
     17          7           0       -5.202473   -0.595668    0.646970
     18          1           0       -5.211741    2.125609    0.268771
     19          1           0       -3.890052    2.288252    1.440638
     20          1           0       -3.797449    3.096367   -0.134769
     21          1           0       -3.788313    0.860754   -1.262072
     22          1           0       -1.602628    1.850757    0.552928
     23          1           0       -1.681033    1.733185   -1.191946
     24          1           0       -0.951555   -0.339467    0.888808
     25          1           0        0.742721    1.060505   -0.238251
     26          1           0        0.242052    0.463443   -1.808875
     27          1           0        0.918255   -1.841452   -1.163730
     28          1           0        0.790459   -1.544717    1.366931
     29          1           0        2.184389   -2.388825    0.739768
     30          1           0        2.853411   -0.830786    2.490506
     31          1           0        2.135651    0.530107    1.641639
     32          1           0        4.424167   -1.245544    0.647692
     33          1           0        5.698724    0.771441    0.898766
     34          1           0        4.433666    1.515605    1.608716
     35          1           0        4.645064    0.099863   -1.291595
     36          1           0        4.247724    2.326517   -0.669749
     37          1           0        3.001477    1.962825   -1.858457
     38          1           0        2.601536    2.031047   -0.131269
     39          1           0        3.157429   -1.637991   -1.638116
     40          1           0        2.424332   -0.269168   -2.437433
     41          1           0       -1.919281   -1.027782   -1.919608
     42          1           0       -1.181823   -2.180691   -0.820421
     43          1           0       -3.807458   -1.923490   -1.015012
     44          1           0       -3.038037   -2.388318    0.488941
     45          1           0       -3.342234   -0.308806    1.524030
     46          1           0       -5.616149    0.118017    1.244939
     47          1           0       -5.359812   -1.484890    1.120175
 ---------------------------------------------------------------------
 Rotational constants (GHZ):           1.0121969           0.1878149           0.1805163
 Standard basis: 6-31G(d,p) (6D, 7F)
 There are   405 symmetry adapted cartesian basis functions of A   symmetry.
 There are   405 symmetry adapted basis functions of A   symmetry.
   405 basis functions,   686 primitive gaussians,   405 cartesian basis functions
    67 alpha electrons       67 beta electrons
       nuclear repulsion energy      1320.3726045817 Hartrees.
 NAtoms=   47 NActive=   47 NUniq=   47 SFac= 1.00D+00 NAtFMM=   60 NAOKFM=F Big=F
 Integral buffers will be    131072 words long.
 Raffenetti 2 integral format.
 Two-electron integral symmetry is turned on.
 Force inversion solution in PCM.
 ------------------------------------------------------------------------------
 Polarizable Continuum Model (PCM)
 =================================
 Model                : PCM.
 Atomic radii         : UFF (Universal Force Field).
 Polarization charges : Total charges.
 Charge compensation  : None.
 Solution method      : Matrix inversion.
 Cavity type          : Scaled VdW (van der Waals Surface) (Alpha=1.100).
 Cavity algorithm     : GePol (No added spheres)
                        Default sphere list used, NSphG=   47.
                        Lebedev-Laikov grids with approx.  5.0 points / Ang**2.
                        Smoothing algorithm: York/Karplus (Gamma=1.0000).
                        Polarization charges: spherical gaussians, with
                                              point-specific exponents (IZeta= 3).
                        Self-potential: point-specific (ISelfS= 7).
                        Self-field    : sphere-specific E.n sum rule (ISelfD= 2).
 1st derivatives      : Analytical E(r).r(x)/FMM algorithm (CHGder, D1EAlg=3).
                        Cavity 1st derivative terms included.
 2nd derivatives      : Analytical E(r).r(xy)/FMM algorithm (CHGder, D2EAlg=3).
                        Cavity 2nd derivative terms included.
 Solvent              : Water, Eps=  78.355300 Eps(inf)=   1.777849
 ------------------------------------------------------------------------------
 One-electron integrals computed using PRISM.
 NBasis=   405 RedAO= T EigKep=  1.51D-03  NBF=   405
 NBsUse=   405 1.00D-06 EigRej= -1.00D+00 NBFU=   405
 ExpMin= 1.61D-01 ExpMax= 4.17D+03 ExpMxC= 6.27D+02 IAcc=3 IRadAn=         5 AccDes= 0.00D+00
 Harris functional with IExCor=  402 and IRadAn=       5 diagonalized for initial guess.
 HarFok:  IExCor=  402 AccDes= 0.00D+00 IRadAn=         5 IDoV= 1 UseB2=F ITyADJ=14
 ICtDFT=  3500011 ScaDFX=  1.000000  1.000000  1.000000  1.000000
 FoFCou: FMM=F IPFlag=           0 FMFlag=      100000 FMFlg1=           0
         NFxFlg=           0 DoJE=T BraDBF=F KetDBF=T FulRan=T
         wScrn=  0.000000 ICntrl=       500 IOpCl=  0 I1Cent=   200000004 NGrid=           0
         NMat0=    1 NMatS0=      1 NMatT0=    0 NMatD0=    1 NMtDS0=    0 NMtDT0=    0
 Petite list used in FoFCou.
 Requested convergence on RMS density matrix=1.00D-08 within  32 cycles.
 Requested convergence on MAX density matrix=1.00D-06.
 Requested convergence on             energy=1.00D-06.
 No special actions if energy rises.
 Inv3:  Mode=1 IEnd=    21627675.
 Iteration    1 A*A^-1 deviation from unit magnitude is 3.66D-15 for    377.
 Iteration    1 A*A^-1 deviation from orthogonality  is 1.67D-15 for   2450    380.
 Iteration    1 A^-1*A deviation from unit magnitude is 3.44D-15 for    377.
 Iteration    1 A^-1*A deviation from orthogonality  is 1.78D-15 for   2376    299.
 Error on total polarization charges =  0.01225
 SCF Done:  E(RB3LYP) =  -699.219184235     A.U. after   11 cycles
            NFock= 11  Conv=0.39D-08     -V/T= 2.0096
 QCSCF skips out because SCF is already converged.
 DoSCS=F DFT=T ScalE2(SS,OS)=  1.000000  1.000000
 Range of M.O.s used for correlation:     1   405
 NBasis=   405 NAE=    67 NBE=    67 NFC=     0 NFV=     0
 NROrb=    405 NOA=    67 NOB=    67 NVA=   338 NVB=   338
 Symmetrizing basis deriv contribution to polar:
 IMax=3 JMax=2 DiffMx= 0.00D+00
 G2DrvN: will do    48 centers at a time, making    1 passes.
 Calling FoFCou, ICntrl=  3107 FMM=F I1Cent=   0 AccDes= 0.00D+00.
 NEqPCM:  Using equilibrium solvation (IEInf=0, Eps=  78.3553, EpsInf=   1.7778)
 G2PCM: DoFxE=T DoFxN=T DoGrad=T DoDP/DQ/DG/TGxP=FFFF NFrqRd=   0 IEInf=0 SqF1=F DoCFld=F IF1Alg=4.
 End of G2Drv F.D. properties file   721 does not exist.
 End of G2Drv F.D. properties file   722 does not exist.
 End of G2Drv F.D. properties file   788 does not exist.
          IDoAtm=11111111111111111111111111111111111111111111111
 NEqPCM:  Using equilibrium solvation (IEInf=0, Eps=  78.3553, EpsInf=   1.7778)
          Differentiating once with respect to nuclear coordinates.
 CalDSu exits because no D1Ps are significant.
          There are   144 degrees of freedom in the 1st order CPHF.  IDoFFX=6 NUNeed=     0.
    138 vectors produced by pass  0 Test12= 2.26D-14 1.00D-09 XBig12= 7.74D-02 5.90D-02.
 AX will form   138 AO Fock derivatives at one time.
    138 vectors produced by pass  1 Test12= 2.26D-14 1.00D-09 XBig12= 5.13D-03 9.71D-03.
    138 vectors produced by pass  2 Test12= 2.26D-14 1.00D-09 XBig12= 4.09D-05 6.73D-04.
    138 vectors produced by pass  3 Test12= 2.26D-14 1.00D-09 XBig12= 7.92D-08 2.42D-05.
    138 vectors produced by pass  4 Test12= 2.26D-14 1.00D-09 XBig12= 8.73D-11 7.40D-07.
     55 vectors produced by pass  5 Test12= 2.26D-14 1.00D-09 XBig12= 6.21D-14 2.07D-08.
 InvSVY:  IOpt=1 It=  1 EMax= 3.89D-16
 Solved reduced A of dimension   745 with   144 vectors.
 End of Minotr F.D. properties file   721 does not exist.
 End of Minotr F.D. properties file   722 does not exist.
 End of Minotr F.D. properties file   788 does not exist.

 **********************************************************************

            Population analysis using the SCF density.

 **********************************************************************

 Orbital symmetries:
       Occupied  (A) (A) (A) (A) (A) (A) (A) (A) (A) (A) (A) (A)
                 (A) (A) (A) (A) (A) (A) (A) (A) (A) (A) (A) (A)
                 (A) (A) (A) (A) (A) (A) (A) (A) (A) (A) (A) (A)
                 (A) (A) (A) (A) (A) (A) (A) (A) (A) (A) (A) (A)
                 (A) (A) (A) (A) (A) (A) (A) (A) (A) (A) (A) (A)
                 (A) (A) (A) (A) (A) (A) (A)
       Virtual   (A) (A) (A) (A) (A) (A) (A) (A) (A) (A) (A) (A)
                 (A) (A) (A) (A) (A) (A) (A) (A) (A) (A) (A) (A)
                 (A) (A) (A) (A) (A) (A) (A) (A) (A) (A) (A) (A)
                 (A) (A) (A) (A) (A) (A) (A) (A) (A) (A) (A) (A)
                 (A) (A) (A) (A) (A) (A) (A) (A) (A) (A) (A) (A)
                 (A) (A) (A) (A) (A) (A) (A) (A) (A) (A) (A) (A)
                 (A) (A) (A) (A) (A) (A) (A) (A) (A) (A) (A) (A)
                 (A) (A) (A) (A) (A) (A) (A) (A) (A) (A) (A) (A)
                 (A) (A) (A) (A) (A) (A) (A) (A) (A) (A) (A) (A)
                 (A) (A) (A) (A) (A) (A) (A) (A) (A) (A) (A) (A)
                 (A) (A) (A) (A) (A) (A) (A) (A) (A) (A) (A) (A)
                 (A) (A) (A) (A) (A) (A) (A) (A) (A) (A) (A) (A)
                 (A) (A) (A) (A) (A) (A) (A) (A) (A) (A) (A) (A)
                 (A) (A) (A) (A) (A) (A) (A) (A) (A) (A) (A) (A)
                 (A) (A) (A) (A) (A) (A) (A) (A) (A) (A) (A) (A)
                 (A) (A) (A) (A) (A) (A) (A) (A) (A) (A) (A) (A)
                 (A) (A) (A) (A) (A) (A) (A) (A) (A) (A) (A) (A)
                 (A) (A) (A) (A) (A) (A) (A) (A) (A) (A) (A) (A)
                 (A) (A) (A) (A) (A) (A) (A) (A) (A) (A) (A) (A)
                 (A) (A) (A) (A) (A) (A) (A) (A) (A) (A) (A) (A)
                 (A) (A) (A) (A) (A) (A) (A) (A) (A) (A) (A) (A)
                 (A) (A) (A) (A) (A) (A) (A) (A) (A) (A) (A) (A)
                 (A) (A) (A) (A) (A) (A) (A) (A) (A) (A) (A) (A)
                 (A) (A) (A) (A) (A) (A) (A) (A) (A) (A) (A) (A)
                 (A) (A) (A) (A) (A) (A) (A) (A) (A) (A) (A) (A)
                 (A) (A) (A) (A) (A) (A) (A) (A) (A) (A) (A) (A)
                 (A) (A) (A) (A) (A) (A) (A) (A) (A) (A) (A) (A)
                 (A) (A) (A) (A) (A) (A) (A) (A) (A) (A) (A) (A)
                 (A) (A)
 The electronic state is 1-A.
 Alpha  occ. eigenvalues --  -14.30425 -14.30377 -10.20177 -10.20064 -10.17827
 Alpha  occ. eigenvalues --  -10.17621 -10.17586 -10.17567 -10.17157 -10.17065
 Alpha  occ. eigenvalues --  -10.16980 -10.16958 -10.16922 -10.16901 -10.16869
 Alpha  occ. eigenvalues --  -10.16766 -10.16642  -0.88231  -0.88087  -0.82490
 Alpha  occ. eigenvalues --   -0.80627  -0.76285  -0.75326  -0.74045  -0.71323
 Alpha  occ. eigenvalues --   -0.67229  -0.66403  -0.64696  -0.60064  -0.59466
 Alpha  occ. eigenvalues --   -0.58733  -0.56017  -0.51917  -0.51368  -0.48518
 Alpha  occ. eigenvalues --   -0.48330  -0.46886  -0.46669  -0.45628  -0.44785
 Alpha  occ. eigenvalues --   -0.43445  -0.43249  -0.41985  -0.40751  -0.40533
 Alpha  occ. eigenvalues --   -0.39739  -0.39310  -0.38740  -0.37891  -0.37249
 Alpha  occ. eigenvalues --   -0.36039  -0.35445  -0.35177  -0.34269  -0.34075
 Alpha  occ. eigenvalues --   -0.33735  -0.33198  -0.32786  -0.32259  -0.30494
 Alpha  occ. eigenvalues --   -0.29848  -0.29634  -0.29222  -0.27883  -0.27587
 Alpha  occ. eigenvalues --   -0.22842  -0.22769
 Alpha virt. eigenvalues --    0.07189   0.08182   0.08855   0.09255   0.09935
 Alpha virt. eigenvalues --    0.11059   0.12110   0.13196   0.13851   0.14358
 Alpha virt. eigenvalues --    0.14579   0.15396   0.15732   0.16125   0.16541
 Alpha virt. eigenvalues --    0.17084   0.17329   0.17596   0.17653   0.18255
 Alpha virt. eigenvalues --    0.18708   0.19055   0.19749   0.19852   0.20406
 Alpha virt. eigenvalues --    0.20941   0.21169   0.21567   0.22475   0.23025
 Alpha virt. eigenvalues --    0.23544   0.23783   0.24336   0.25104   0.25982
 Alpha virt. eigenvalues --    0.26360   0.26572   0.27714   0.28055   0.29332
 Alpha virt. eigenvalues --    0.29442   0.30657   0.31212   0.32262   0.33459
 Alpha virt. eigenvalues --    0.33904   0.35479   0.36168   0.50190   0.50490
 Alpha virt. eigenvalues --    0.51018   0.51706   0.52329   0.53105   0.54114
 Alpha virt. eigenvalues --    0.55252   0.56617   0.57035   0.58140   0.59534
 Alpha virt. eigenvalues --    0.60157   0.62145   0.62657   0.63284   0.63867
 Alpha virt. eigenvalues --    0.64720   0.65493   0.66024   0.66714   0.68396
 Alpha virt. eigenvalues --    0.68517   0.68652   0.69892   0.70415   0.71399
 Alpha virt. eigenvalues --    0.72152   0.72546   0.73439   0.74826   0.75038
 Alpha virt. eigenvalues --    0.76153   0.76634   0.78226   0.79470   0.80029
 Alpha virt. eigenvalues --    0.80608   0.82503   0.82854   0.84090   0.84899
 Alpha virt. eigenvalues --    0.85615   0.86192   0.86438   0.86833   0.87053
 Alpha virt. eigenvalues --    0.87843   0.87961   0.88535   0.88841   0.89069
 Alpha virt. eigenvalues --    0.89387   0.90240   0.90689   0.91413   0.91708
 Alpha virt. eigenvalues --    0.92302   0.92981   0.93578   0.94006   0.94386
 Alpha virt. eigenvalues --    0.94793   0.95535   0.96081   0.96781   0.97314
 Alpha virt. eigenvalues --    0.97986   0.98786   0.99621   1.01254   1.02385
 Alpha virt. eigenvalues --    1.02707   1.04369   1.06556   1.08178   1.09564
 Alpha virt. eigenvalues --    1.09867   1.13369   1.15459   1.17796   1.19763
 Alpha virt. eigenvalues --    1.21552   1.25432   1.28200   1.28805   1.29777
 Alpha virt. eigenvalues --    1.30843   1.37963   1.38610   1.38993   1.40479
 Alpha virt. eigenvalues --    1.42034   1.44625   1.47336   1.48564   1.51423
 Alpha virt. eigenvalues --    1.51495   1.53491   1.54258   1.56562   1.59228
 Alpha virt. eigenvalues --    1.60343   1.61392   1.61603   1.64944   1.65731
 Alpha virt. eigenvalues --    1.68779   1.69642   1.71224   1.72154   1.73331
 Alpha virt. eigenvalues --    1.74202   1.75611   1.77270   1.78320   1.81359
 Alpha virt. eigenvalues --    1.82513   1.83226   1.84039   1.84430   1.86369
 Alpha virt. eigenvalues --    1.86884   1.87328   1.88096   1.88743   1.89297
 Alpha virt. eigenvalues --    1.90139   1.91960   1.92780   1.93369   1.94580
 Alpha virt. eigenvalues --    1.96464   1.96718   1.96908   1.97854   1.98785
 Alpha virt. eigenvalues --    1.99954   2.02379   2.02618   2.03335   2.03819
 Alpha virt. eigenvalues --    2.05637   2.06173   2.06896   2.08227   2.08610
 Alpha virt. eigenvalues --    2.09640   2.11196   2.12486   2.12810   2.13325
 Alpha virt. eigenvalues --    2.14444   2.15180   2.15589   2.16781   2.18025
 Alpha virt. eigenvalues --    2.18588   2.19672   2.19870   2.21286   2.21821
 Alpha virt. eigenvalues --    2.23219   2.24178   2.26311   2.27023   2.28050
 Alpha virt. eigenvalues --    2.29353   2.30005   2.30427   2.32142   2.32760
 Alpha virt. eigenvalues --    2.33385   2.34683   2.34764   2.36166   2.37352
 Alpha virt. eigenvalues --    2.37715   2.38515   2.39142   2.40559   2.41816
 Alpha virt. eigenvalues --    2.42639   2.43367   2.44479   2.46137   2.47439
 Alpha virt. eigenvalues --    2.48810   2.48937   2.51178   2.51331   2.53952
 Alpha virt. eigenvalues --    2.54641   2.55369   2.58044   2.58653   2.59514
 Alpha virt. eigenvalues --    2.59879   2.62246   2.62965   2.63638   2.64792
 Alpha virt. eigenvalues --    2.65938   2.66454   2.67871   2.69913   2.70188
 Alpha virt. eigenvalues --    2.71783   2.72442   2.73519   2.74019   2.75336
 Alpha virt. eigenvalues --    2.76344   2.77870   2.79099   2.79883   2.80137
 Alpha virt. eigenvalues --    2.80444   2.81557   2.83378   2.84623   2.85376
 Alpha virt. eigenvalues --    2.86246   2.87006   2.87826   2.88430   2.88959
 Alpha virt. eigenvalues --    2.90391   2.90530   2.92668   2.92919   2.93867
 Alpha virt. eigenvalues --    2.94343   2.95454   2.95986   2.96832   2.98104
 Alpha virt. eigenvalues --    2.99019   3.00688   3.02835   3.03462   3.04903
 Alpha virt. eigenvalues --    3.08212   3.20451   3.21858   3.24003   3.27410
 Alpha virt. eigenvalues --    3.29840   3.31414   3.32246   3.33008   3.33462
 Alpha virt. eigenvalues --    3.33784   3.35933   3.37193   3.38353   3.39778
 Alpha virt. eigenvalues --    3.40969   3.43776   3.46032   3.47047   3.48794
 Alpha virt. eigenvalues --    3.48995   3.49326   3.50190   3.51380   3.52750
 Alpha virt. eigenvalues --    3.53424   3.55129   3.55601   3.57276   3.58055
 Alpha virt. eigenvalues --    3.60084   4.04405   4.04858   4.27248   4.32322
 Alpha virt. eigenvalues --    4.41724   4.44775   4.47231   4.51508   4.55314
 Alpha virt. eigenvalues --    4.58012   4.65539   4.72151   4.75043   4.76686
 Alpha virt. eigenvalues --    4.81730   4.87113   4.95174
          Condensed to atoms (all electrons):
               1          2          3          4          5          6
     1  C    4.982045   0.367841  -0.042306   0.004095  -0.000047   0.000001
     2  C    0.367841   4.933927   0.341823  -0.040481   0.003380  -0.000126
     3  C   -0.042306   0.341823   4.999438   0.363761  -0.034903   0.003833
     4  C    0.004095  -0.040481   0.363761   4.902320   0.365117  -0.031845
     5  C   -0.000047   0.003380  -0.034903   0.365117   4.974265   0.368719
     6  C    0.000001  -0.000126   0.003833  -0.031845   0.368719   4.905933
     7  C    0.000000  -0.000001   0.000189  -0.003673  -0.048481   0.374512
     8  C   -0.000000   0.000000  -0.000015  -0.000665  -0.004291  -0.036629
     9  C    0.000000  -0.000000   0.000001   0.000006  -0.000723  -0.015343
    10  N   -0.000000   0.000000  -0.000000  -0.000000  -0.000004   0.000294
    11  C   -0.000000   0.000000  -0.000001  -0.000017  -0.003696  -0.036084
    12  C    0.000000  -0.000000   0.000000   0.000016  -0.000341  -0.002336
    13  C   -0.000000   0.000001  -0.000108   0.003818  -0.041857   0.371342
    14  C    0.000045  -0.006686  -0.047822   0.387281  -0.040949  -0.004694
    15  C    0.005128  -0.032198  -0.019486  -0.036841   0.004477   0.000187
    16  C   -0.038534   0.383480  -0.034418  -0.007097   0.000287   0.000003
    17  N   -0.006052  -0.050147   0.003525   0.000097  -0.000003  -0.000000
    18  H    0.369490  -0.028264   0.005158  -0.000158   0.000002  -0.000000
    19  H    0.378869  -0.034540  -0.006085  -0.000091  -0.000005   0.000000
    20  H    0.379693  -0.029263  -0.005414   0.000108  -0.000007   0.000000
    21  H   -0.049660   0.372982  -0.037907  -0.001295  -0.000040  -0.000000
    22  H   -0.010524  -0.037496   0.372030  -0.031571  -0.002414  -0.000118
    23  H   -0.000284  -0.031384   0.372808  -0.037884  -0.008277   0.000253
    24  H   -0.000079  -0.002583  -0.042161   0.384690  -0.042205  -0.006328
    25  H   -0.000009   0.000108  -0.003889  -0.037400   0.372801  -0.039818
    26  H   -0.000005  -0.000031  -0.007106  -0.037393   0.371091  -0.034688
    27  H    0.000000   0.000003   0.000056  -0.009317  -0.045832   0.379070
    28  H   -0.000000   0.000011  -0.000145   0.001479  -0.008487  -0.033581
    29  H    0.000000  -0.000000  -0.000001   0.000090   0.005758  -0.035209
    30  H    0.000000  -0.000000   0.000001   0.000003   0.000017   0.004600
    31  H   -0.000000   0.000000  -0.000034   0.000200   0.002867  -0.006184
    32  H   -0.000000  -0.000000   0.000000  -0.000002   0.000111  -0.000788
    33  H    0.000000   0.000000   0.000000   0.000000  -0.000000   0.000012
    34  H   -0.000000   0.000000  -0.000000   0.000000  -0.000006  -0.000004
    35  H   -0.000000   0.000000  -0.000000   0.000003  -0.000064   0.004712
    36  H   -0.000000   0.000000   0.000000  -0.000002   0.000079  -0.000044
    37  H    0.000000  -0.000000  -0.000000   0.000006   0.000333  -0.000454
    38  H    0.000000   0.000000  -0.000011   0.000138  -0.002952   0.001592
    39  H    0.000000  -0.000000   0.000002  -0.000147   0.005484  -0.035234
    40  H   -0.000000   0.000000  -0.000006   0.000134  -0.008485  -0.035477
    41  H   -0.000059   0.001328  -0.006807  -0.041321  -0.004427  -0.000507
    42  H   -0.000002   0.000036   0.005506  -0.030891  -0.005342   0.000249
    43  H   -0.000106  -0.007648   0.000741   0.003901  -0.000140  -0.000000
    44  H   -0.000166   0.005027  -0.000070  -0.001718  -0.000054  -0.000018
    45  H   -0.007880  -0.062867   0.000625  -0.000576   0.000014   0.000002
    46  H    0.005700  -0.007109  -0.000109   0.000017  -0.000000   0.000000
    47  H    0.000097   0.006448  -0.000236   0.000021  -0.000000   0.000000
               7          8          9         10         11         12
     1  C    0.000000  -0.000000   0.000000  -0.000000  -0.000000   0.000000
     2  C   -0.000001   0.000000  -0.000000   0.000000   0.000000  -0.000000
     3  C    0.000189  -0.000015   0.000001  -0.000000  -0.000001   0.000000
     4  C   -0.003673  -0.000665   0.000006  -0.000000  -0.000017   0.000016
     5  C   -0.048481  -0.004291  -0.000723  -0.000004  -0.003696  -0.000341
     6  C    0.374512  -0.036629  -0.015343   0.000294  -0.036084  -0.002336
     7  C    4.965241   0.358475  -0.038292   0.003167  -0.008795  -0.000176
     8  C    0.358475   4.957777   0.381830  -0.052477  -0.048129  -0.008218
     9  C   -0.038292   0.381830   4.804192   0.315108   0.374384  -0.043637
    10  N    0.003167  -0.052477   0.315108   6.813913  -0.072063  -0.006120
    11  C   -0.008795  -0.048129   0.374384  -0.072063   4.981816   0.362584
    12  C   -0.000176  -0.008218  -0.043637  -0.006120   0.362584   4.988651
    13  C   -0.050515  -0.016174  -0.034340   0.005057   0.348761  -0.049889
    14  C   -0.001186   0.000051  -0.000001   0.000000  -0.000001  -0.000002
    15  C   -0.000010   0.000000   0.000000   0.000000   0.000000   0.000000
    16  C   -0.000000   0.000000  -0.000000  -0.000000  -0.000000   0.000000
    17  N    0.000000  -0.000000  -0.000000   0.000000   0.000000  -0.000000
    18  H   -0.000000  -0.000000  -0.000000   0.000000   0.000000  -0.000000
    19  H    0.000000   0.000000  -0.000000   0.000000   0.000000  -0.000000
    20  H   -0.000000  -0.000000  -0.000000  -0.000000   0.000000  -0.000000
    21  H    0.000000   0.000000   0.000000   0.000000   0.000000  -0.000000
    22  H    0.000002   0.000001   0.000000  -0.000000   0.000000  -0.000004
    23  H    0.000003  -0.000001  -0.000000   0.000000  -0.000000   0.000001
    24  H    0.001470   0.000085   0.000002   0.000000  -0.000010   0.000007
    25  H   -0.008104   0.002812  -0.000009  -0.000004   0.001919  -0.001915
    26  H    0.005567  -0.000027   0.000022  -0.000000  -0.000559   0.000352
    27  H   -0.042979   0.005456   0.000427   0.000003   0.004846  -0.000110
    28  H    0.373434  -0.032196   0.004463  -0.000108   0.000209  -0.000022
    29  H    0.375371  -0.041780  -0.007099   0.000050  -0.001071   0.000086
    30  H   -0.029284   0.369249  -0.031653   0.002841   0.005888  -0.000002
    31  H   -0.038336   0.379170  -0.037597  -0.003577  -0.008065   0.002026
    32  H   -0.004993  -0.045118   0.385533  -0.046828  -0.055647   0.006188
    33  H   -0.000257   0.006647  -0.040032   0.339334  -0.002034  -0.001437
    34  H   -0.000042  -0.008245  -0.038029   0.341995  -0.007472   0.005731
    35  H    0.000166   0.005899  -0.038209  -0.002283   0.376977  -0.052095
    36  H   -0.000044  -0.000059  -0.004119   0.005780  -0.029420   0.370133
    37  H    0.000022   0.000016   0.004536   0.000447  -0.029458   0.379588
    38  H   -0.000063   0.002818  -0.006052  -0.000476  -0.037149   0.381820
    39  H   -0.002625  -0.000993  -0.003543   0.000001  -0.037932   0.006649
    40  H    0.005606   0.000101   0.004027  -0.000140  -0.029238  -0.009725
    41  H    0.000055  -0.000001   0.000000  -0.000000   0.000000   0.000000
    42  H    0.000776   0.000003   0.000000  -0.000000  -0.000001   0.000000
    43  H   -0.000000   0.000000  -0.000000  -0.000000  -0.000000   0.000000
    44  H   -0.000001  -0.000000   0.000000  -0.000000   0.000000  -0.000000
    45  H    0.000000   0.000000   0.000000  -0.000000  -0.000000  -0.000000
    46  H   -0.000000  -0.000000  -0.000000  -0.000000  -0.000000   0.000000
    47  H   -0.000000  -0.000000  -0.000000   0.000000   0.000000  -0.000000
              13         14         15         16         17         18
     1  C   -0.000000   0.000045   0.005128  -0.038534  -0.006052   0.369490
     2  C    0.000001  -0.006686  -0.032198   0.383480  -0.050147  -0.028264
     3  C   -0.000108  -0.047822  -0.019486  -0.034418   0.003525   0.005158
     4  C    0.003818   0.387281  -0.036841  -0.007097   0.000097  -0.000158
     5  C   -0.041857  -0.040949   0.004477   0.000287  -0.000003   0.000002
     6  C    0.371342  -0.004694   0.000187   0.000003  -0.000000  -0.000000
     7  C   -0.050515  -0.001186  -0.000010  -0.000000   0.000000  -0.000000
     8  C   -0.016174   0.000051   0.000000   0.000000  -0.000000  -0.000000
     9  C   -0.034340  -0.000001   0.000000  -0.000000  -0.000000  -0.000000
    10  N    0.005057   0.000000   0.000000  -0.000000   0.000000   0.000000
    11  C    0.348761  -0.000001   0.000000  -0.000000   0.000000   0.000000
    12  C   -0.049889  -0.000002   0.000000   0.000000  -0.000000  -0.000000
    13  C    5.007056   0.000191  -0.000001   0.000000  -0.000000   0.000000
    14  C    0.000191   4.950545   0.345674  -0.046708   0.004059   0.000017
    15  C   -0.000001   0.345674   5.002483   0.371383  -0.058823  -0.000116
    16  C    0.000000  -0.046708   0.371383   4.792415   0.287368  -0.005629
    17  N   -0.000000   0.004059  -0.058823   0.287368   6.864351   0.004675
    18  H    0.000000   0.000017  -0.000116  -0.005629   0.004675   0.621455
    19  H   -0.000000   0.000015   0.000032  -0.005690  -0.000844  -0.032523
    20  H   -0.000000   0.000001  -0.000162   0.004557   0.000094  -0.031906
    21  H   -0.000000   0.001899  -0.008317  -0.045137   0.002462  -0.003232
[...]
   179    C   12  dx2y2  Ryd( 3d)     0.00031
   180    C   12  dz2    Ryd( 3d)     0.00074

   181    C   13  S      Cor( 1S)     1.99925
   182    C   13  S      Val( 2S)     1.02894
   183    C   13  S      Ryd( 3S)     0.00077
   184    C   13  S      Ryd( 4S)     0.00002
   185    C   13  px     Val( 2p)     1.06060
   186    C   13  px     Ryd( 3p)     0.00222
   187    C   13  py     Val( 2p)     1.15479
   188    C   13  py     Ryd( 3p)     0.00312
   189    C   13  pz     Val( 2p)     1.19516
   190    C   13  pz     Ryd( 3p)     0.00404
   191    C   13  dxy    Ryd( 3d)     0.00089
   192    C   13  dxz    Ryd( 3d)     0.00057
   193    C   13  dyz    Ryd( 3d)     0.00025
   194    C   13  dx2y2  Ryd( 3d)     0.00060
   195    C   13  dz2    Ryd( 3d)     0.00091

   196    C   14  S      Cor( 1S)     1.99931
   197    C   14  S      Val( 2S)     1.02708
   198    C   14  S      Ryd( 3S)     0.00078
   199    C   14  S      Ryd( 4S)     0.00002
   200    C   14  px     Val( 2p)     1.07954
   201    C   14  px     Ryd( 3p)     0.00243
   202    C   14  py     Val( 2p)     1.16826
   203    C   14  py     Ryd( 3p)     0.00340
   204    C   14  pz     Val( 2p)     1.18000
   205    C   14  pz     Ryd( 3p)     0.00202
   206    C   14  dxy    Ryd( 3d)     0.00082
   207    C   14  dxz    Ryd( 3d)     0.00045
   208    C   14  dyz    Ryd( 3d)     0.00039
   209    C   14  dx2y2  Ryd( 3d)     0.00055
   210    C   14  dz2    Ryd( 3d)     0.00098

   211    C   15  S      Cor( 1S)     1.99931
   212    C   15  S      Val( 2S)     1.03353
   213    C   15  S      Ryd( 3S)     0.00070
   214    C   15  S      Ryd( 4S)     0.00002
   215    C   15  px     Val( 2p)     1.09975
   216    C   15  px     Ryd( 3p)     0.00244
   217    C   15  py     Val( 2p)     1.12870
   218    C   15  py     Ryd( 3p)     0.00218
   219    C   15  pz     Val( 2p)     1.19851
   220    C   15  pz     Ryd( 3p)     0.00350
   221    C   15  dxy    Ryd( 3d)     0.00053
   222    C   15  dxz    Ryd( 3d)     0.00069
   223    C   15  dyz    Ryd( 3d)     0.00094
   224    C   15  dx2y2  Ryd( 3d)     0.00059
   225    C   15  dz2    Ryd( 3d)     0.00036

   226    C   16  S      Cor( 1S)     1.99917
   227    C   16  S      Val( 2S)     0.94724
   228    C   16  S      Ryd( 3S)     0.00240
   229    C   16  S      Ryd( 4S)     0.00003
   230    C   16  px     Val( 2p)     0.88219
   231    C   16  px     Ryd( 3p)     0.00381
   232    C   16  py     Val( 2p)     1.04042
   233    C   16  py     Ryd( 3p)     0.00186
   234    C   16  pz     Val( 2p)     1.17101
   235    C   16  pz     Ryd( 3p)     0.00286
   236    C   16  dxy    Ryd( 3d)     0.00085
   237    C   16  dxz    Ryd( 3d)     0.00126
   238    C   16  dyz    Ryd( 3d)     0.00065
   239    C   16  dx2y2  Ryd( 3d)     0.00132
   240    C   16  dz2    Ryd( 3d)     0.00106

   241    N   17  S      Cor( 1S)     1.99964
   242    N   17  S      Val( 2S)     1.44037
   243    N   17  S      Ryd( 3S)     0.00054
   244    N   17  S      Ryd( 4S)     0.00001
   245    N   17  px     Val( 2p)     1.32571
   246    N   17  px     Ryd( 3p)     0.00279
   247    N   17  py     Val( 2p)     1.38268
   248    N   17  py     Ryd( 3p)     0.00190
   249    N   17  pz     Val( 2p)     1.76598
   250    N   17  pz     Ryd( 3p)     0.00517
   251    N   17  dxy    Ryd( 3d)     0.00027
   252    N   17  dxz    Ryd( 3d)     0.00102
   253    N   17  dyz    Ryd( 3d)     0.00144
   254    N   17  dx2y2  Ryd( 3d)     0.00059
   255    N   17  dz2    Ryd( 3d)     0.00126

   256    H   18  S      Val( 1S)     0.76243
   257    H   18  S      Ryd( 2S)     0.00131
   258    H   18  px     Ryd( 2p)     0.00034
   259    H   18  py     Ryd( 2p)     0.00009
   260    H   18  pz     Ryd( 2p)     0.00010

   261    H   19  S      Val( 1S)     0.77113
   262    H   19  S      Ryd( 2S)     0.00123
   263    H   19  px     Ryd( 2p)     0.00009
   264    H   19  py     Ryd( 2p)     0.00010
   265    H   19  pz     Ryd( 2p)     0.00033

   266    H   20  S      Val( 1S)     0.76051
   267    H   20  S      Ryd( 2S)     0.00087
   268    H   20  px     Ryd( 2p)     0.00011
   269    H   20  py     Ryd( 2p)     0.00025
   270    H   20  pz     Ryd( 2p)     0.00015

   271    H   21  S      Val( 1S)     0.75923
   272    H   21  S      Ryd( 2S)     0.00268
   273    H   21  px     Ryd( 2p)     0.00012
   274    H   21  py     Ryd( 2p)     0.00012
   275    H   21  pz     Ryd( 2p)     0.00035

   276    H   22  S      Val( 1S)     0.76404
   277    H   22  S      Ryd( 2S)     0.00179
   278    H   22  px     Ryd( 2p)     0.00011
   279    H   22  py     Ryd( 2p)     0.00020
   280    H   22  pz     Ryd( 2p)     0.00025

   281    H   23  S      Val( 1S)     0.76211
   282    H   23  S      Ryd( 2S)     0.00158
   283    H   23  px     Ryd( 2p)     0.00013
   284    H   23  py     Ryd( 2p)     0.00016
   285    H   23  pz     Ryd( 2p)     0.00027

   286    H   24  S      Val( 1S)     0.76458
   287    H   24  S      Ryd( 2S)     0.00223
   288    H   24  px     Ryd( 2p)     0.00012
   289    H   24  py     Ryd( 2p)     0.00012
   290    H   24  pz     Ryd( 2p)     0.00036

   291    H   25  S      Val( 1S)     0.76992
   292    H   25  S      Ryd( 2S)     0.00296
   293    H   25  px     Ryd( 2p)     0.00015
   294    H   25  py     Ryd( 2p)     0.00031
   295    H   25  pz     Ryd( 2p)     0.00012

   296    H   26  S      Val( 1S)     0.76974
   297    H   26  S      Ryd( 2S)     0.00562
   298    H   26  px     Ryd( 2p)     0.00010
   299    H   26  py     Ryd( 2p)     0.00010
   300    H   26  pz     Ryd( 2p)     0.00036

   301    H   27  S      Val( 1S)     0.76727
   302    H   27  S      Ryd( 2S)     0.00715
   303    H   27  px     Ryd( 2p)     0.00016
   304    H   27  py     Ryd( 2p)     0.00031
   305    H   27  pz     Ryd( 2p)     0.00012

   306    H   28  S      Val( 1S)     0.75089
   307    H   28  S      Ryd( 2S)     0.00160
   308    H   28  px     Ryd( 2p)     0.00026
   309    H   28  py     Ryd( 2p)     0.00010
   310    H   28  pz     Ryd( 2p)     0.00019

   311    H   29  S      Val( 1S)     0.76588
   312    H   29  S      Ryd( 2S)     0.00665
   313    H   29  px     Ryd( 2p)     0.00013
   314    H   29  py     Ryd( 2p)     0.00030
   315    H   29  pz     Ryd( 2p)     0.00013

   316    H   30  S      Val( 1S)     0.75563
   317    H   30  S      Ryd( 2S)     0.01174
   318    H   30  px     Ryd( 2p)     0.00011
   319    H   30  py     Ryd( 2p)     0.00008
   320    H   30  pz     Ryd( 2p)     0.00034

   321    H   31  S      Val( 1S)     0.76001
   322    H   31  S      Ryd( 2S)     0.00898
   323    H   31  px     Ryd( 2p)     0.00013
   324    H   31  py     Ryd( 2p)     0.00030
   325    H   31  pz     Ryd( 2p)     0.00013

   326    H   32  S      Val( 1S)     0.74756
   327    H   32  S      Ryd( 2S)     0.03162
   328    H   32  px     Ryd( 2p)     0.00011
   329    H   32  py     Ryd( 2p)     0.00032
   330    H   32  pz     Ryd( 2p)     0.00011

   331    H   33  S      Val( 1S)     0.68416
   332    H   33  S      Ryd( 2S)     0.07579
   333    H   33  px     Ryd( 2p)     0.00049
   334    H   33  py     Ryd( 2p)     0.00026
   335    H   33  pz     Ryd( 2p)     0.00045

   336    H   34  S      Val( 1S)     0.64641
   337    H   34  S      Ryd( 2S)     0.04875
   338    H   34  px     Ryd( 2p)     0.00034
   339    H   34  py     Ryd( 2p)     0.00065
   340    H   34  pz     Ryd( 2p)     0.00028

   341    H   35  S      Val( 1S)     0.78863
   342    H   35  S      Ryd( 2S)     0.04412
   343    H   35  px     Ryd( 2p)     0.00027
   344    H   35  py     Ryd( 2p)     0.00014
   345    H   35  pz     Ryd( 2p)     0.00017

   346    H   36  S      Val( 1S)     0.81038
   347    H   36  S      Ryd( 2S)     0.02976
   348    H   36  px     Ryd( 2p)     0.00024
   349    H   36  py     Ryd( 2p)     0.00018
   350    H   36  pz     Ryd( 2p)     0.00010

   351    H   37  S      Val( 1S)     0.78748
   352    H   37  S      Ryd( 2S)     0.01573
   353    H   37  px     Ryd( 2p)     0.00011
   354    H   37  py     Ryd( 2p)     0.00008
   355    H   37  pz     Ryd( 2p)     0.00031

   356    H   38  S      Val( 1S)     0.77063
   357    H   38  S      Ryd( 2S)     0.00767
   358    H   38  px     Ryd( 2p)     0.00023
   359    H   38  py     Ryd( 2p)     0.00015
   360    H   38  pz     Ryd( 2p)     0.00016

   361    H   39  S      Val( 1S)     0.77968
   362    H   39  S      Ryd( 2S)     0.01355
   363    H   39  px     Ryd( 2p)     0.00013
   364    H   39  py     Ryd( 2p)     0.00032
   365    H   39  pz     Ryd( 2p)     0.00010

   366    H   40  S      Val( 1S)     0.74486
   367    H   40  S      Ryd( 2S)     0.00833
   368    H   40  px     Ryd( 2p)     0.00011
   369    H   40  py     Ryd( 2p)     0.00010
   370    H   40  pz     Ryd( 2p)     0.00033

   371    H   41  S      Val( 1S)     0.76822
   372    H   41  S      Ryd( 2S)     0.00187
   373    H   41  px     Ryd( 2p)     0.00010
   374    H   41  py     Ryd( 2p)     0.00011
   375    H   41  pz     Ryd( 2p)     0.00035

   376    H   42  S      Val( 1S)     0.75885
   377    H   42  S      Ryd( 2S)     0.00261
   378    H   42  px     Ryd( 2p)     0.00018
   379    H   42  py     Ryd( 2p)     0.00028
   380    H   42  pz     Ryd( 2p)     0.00009

   381    H   43  S      Val( 1S)     0.75802
   382    H   43  S      Ryd( 2S)     0.00246
   383    H   43  px     Ryd( 2p)     0.00021
   384    H   43  py     Ryd( 2p)     0.00013
   385    H   43  pz     Ryd( 2p)     0.00021

   386    H   44  S      Val( 1S)     0.76180
   387    H   44  S      Ryd( 2S)     0.00149
   388    H   44  px     Ryd( 2p)     0.00010
   389    H   44  py     Ryd( 2p)     0.00023
   390    H   44  pz     Ryd( 2p)     0.00023

   391    H   45  S      Val( 1S)     0.78652
   392    H   45  S      Ryd( 2S)     0.00243
   393    H   45  px     Ryd( 2p)     0.00011
   394    H   45  py     Ryd( 2p)     0.00011
   395    H   45  pz     Ryd( 2p)     0.00039

   396    H   46  S      Val( 1S)     0.60893
   397    H   46  S      Ryd( 2S)     0.00123
   398    H   46  px     Ryd( 2p)     0.00033
   399    H   46  py     Ryd( 2p)     0.00043
   400    H   46  pz     Ryd( 2p)     0.00065

   401    H   47  S      Val( 1S)     0.60930
   402    H   47  S      Ryd( 2S)     0.00144
   403    H   47  px     Ryd( 2p)     0.00030
   404    H   47  py     Ryd( 2p)     0.00051
   405    H   47  pz     Ryd( 2p)     0.00061


 Summary of Natural Population Analysis:                  
                                                          
                                       Natural Population 
                Natural  -----------------------------------------------
    Atom  No    Charge         Core      Valence    Rydberg      Total
 -----------------------------------------------------------------------
      C    1   -0.68808      1.99943     4.68040    0.00826     6.68808
      C    2   -0.26516      1.99919     4.25184    0.01413     6.26516
      C    3   -0.45874      1.99930     4.44670    0.01275     6.45874
      C    4   -0.25243      1.99922     4.23973    0.01348     6.25243
      C    5   -0.45808      1.99927     4.44397    0.01484     6.45808
      C    6   -0.25310      1.99921     4.23919    0.01470     6.25310
      C    7   -0.46582      1.99930     4.45349    0.01304     6.46582
      C    8   -0.48227      1.99927     4.46853    0.01446     6.48227
      C    9   -0.12022      1.99913     4.10248    0.01862     6.12022
      N   10   -0.38418      1.99935     5.37001    0.01483     7.38418
      C   11   -0.23705      1.99914     4.22394    0.01398     6.23705
      C   12   -0.69975      1.99940     4.69041    0.00995     6.69975
      C   13   -0.45212      1.99925     4.43949    0.01338     6.45212
      C   14   -0.46604      1.99931     4.45488    0.01186     6.46604
      C   15   -0.47174      1.99931     4.46049    0.01194     6.47174
      C   16   -0.05612      1.99917     4.04086    0.01609     6.05612
      N   17   -0.92936      1.99964     5.91474    0.01498     7.92936
      H   18    0.23573      0.00000     0.76243    0.00184     0.76427
      H   19    0.22712      0.00000     0.77113    0.00175     0.77288
      H   20    0.23809      0.00000     0.76051    0.00139     0.76191
      H   21    0.23750      0.00000     0.75923    0.00327     0.76250
      H   22    0.23362      0.00000     0.76404    0.00235     0.76638
      H   23    0.23575      0.00000     0.76211    0.00214     0.76425
      H   24    0.23259      0.00000     0.76458    0.00283     0.76741
      H   25    0.22654      0.00000     0.76992    0.00353     0.77346
      H   26    0.22409      0.00000     0.76974    0.00617     0.77591
      H   27    0.22499      0.00000     0.76727    0.00774     0.77501
      H   28    0.24697      0.00000     0.75089    0.00215     0.75303
      H   29    0.22691      0.00000     0.76588    0.00721     0.77309
      H   30    0.23211      0.00000     0.75563    0.01227     0.76789
      H   31    0.23044      0.00000     0.76001    0.00954     0.76956
      H   32    0.22027      0.00000     0.74756    0.03216     0.77973
      H   33    0.23885      0.00000     0.68416    0.07700     0.76115
      H   34    0.30358      0.00000     0.64641    0.05001     0.69642
      H   35    0.16667      0.00000     0.78863    0.04471     0.83333
      H   36    0.15934      0.00000     0.81038    0.03028     0.84066
      H   37    0.19629      0.00000     0.78748    0.01623     0.80371
      H   38    0.22116      0.00000     0.77063    0.00821     0.77884
      H   39    0.20622      0.00000     0.77968    0.01410     0.79378
      H   40    0.24627      0.00000     0.74486    0.00888     0.75373
      H   41    0.22934      0.00000     0.76822    0.00243     0.77066
      H   42    0.23798      0.00000     0.75885    0.00317     0.76202
      H   43    0.23897      0.00000     0.75802    0.00301     0.76103
      H   44    0.23614      0.00000     0.76180    0.00205     0.76386
      H   45    0.21044      0.00000     0.78652    0.00303     0.78956
      H   46    0.38842      0.00000     0.60893    0.00265     0.61158
      H   47    0.38785      0.00000     0.60930    0.00286     0.61215
 =======================================================================
   * Total *   -0.00004     33.98786    99.41596    0.59623   134.00004

                                 Natural Population      
 --------------------------------------------------------
   Core                      33.98786 ( 99.9643% of  34)
   Valence                   99.41596 ( 99.4160% of 100)
   Natural Minimal Basis    133.40382 ( 99.5551% of 134)
   Natural Rydberg Basis      0.59623 (  0.4449% of 134)
 --------------------------------------------------------

    Atom  No          Natural Electron Configuration
 ----------------------------------------------------------------------------
      C    1      [core]2S( 1.10)2p( 3.59)3p( 0.01)
      C    2      [core]2S( 0.97)2p( 3.28)3p( 0.01)
      C    3      [core]2S( 1.02)2p( 3.42)3p( 0.01)
      C    4      [core]2S( 0.96)2p( 3.28)3p( 0.01)
      C    5      [core]2S( 1.02)2p( 3.42)3p( 0.01)
      C    6      [core]2S( 0.96)2p( 3.27)3p( 0.01)
      C    7      [core]2S( 1.03)2p( 3.43)3p( 0.01)
      C    8      [core]2S( 1.04)2p( 3.43)3p( 0.01)
      C    9      [core]2S( 0.98)2p( 3.12)3p( 0.01)
      N   10      [core]2S( 1.45)2p( 3.92)3S( 0.01)
      C   11      [core]2S( 0.98)2p( 3.24)3p( 0.01)
      C   12      [core]2S( 1.12)2p( 3.57)3p( 0.01)
      C   13      [core]2S( 1.03)2p( 3.41)3p( 0.01)
      C   14      [core]2S( 1.03)2p( 3.43)3p( 0.01)
      C   15      [core]2S( 1.03)2p( 3.43)3p( 0.01)
      C   16      [core]2S( 0.95)2p( 3.09)3p( 0.01)3d( 0.01)
      N   17      [core]2S( 1.44)2p( 4.47)3p( 0.01)
      H   18            1S( 0.76)
      H   19            1S( 0.77)
      H   20            1S( 0.76)
      H   21            1S( 0.76)
      H   22            1S( 0.76)
      H   23            1S( 0.76)
      H   24            1S( 0.76)
      H   25            1S( 0.77)
      H   26            1S( 0.77)2S( 0.01)
      H   27            1S( 0.77)2S( 0.01)
      H   28            1S( 0.75)
      H   29            1S( 0.77)2S( 0.01)
      H   30            1S( 0.76)2S( 0.01)
      H   31            1S( 0.76)2S( 0.01)
      H   32            1S( 0.75)2S( 0.03)
      H   33            1S( 0.68)2S( 0.08)
      H   34            1S( 0.65)2S( 0.05)
      H   35            1S( 0.79)2S( 0.04)
      H   36            1S( 0.81)2S( 0.03)
      H   37            1S( 0.79)2S( 0.02)
      H   38            1S( 0.77)2S( 0.01)
      H   39            1S( 0.78)2S( 0.01)
      H   40            1S( 0.74)2S( 0.01)
      H   41            1S( 0.77)
      H   42            1S( 0.76)
      H   43            1S( 0.76)
      H   44            1S( 0.76)
      H   45            1S( 0.79)
      H   46            1S( 0.61)
      H   47            1S( 0.61)


 NBO analysis skipped by request.
 1\1\GINC-DRG2-W002\SP\RB3LYP TD-FC\6-31G(d,p)\C15H30N2\QDUEZ\18-Jul-20
 24\0\\# TD(NStates=10, Root=1) B3LYP/6-31G** SCRF=(Solvent=water) volu
 me pop=NPA density=current Geom=AllCheck Guess=Read\\IGSBHTZEJMPDSZ-IW
 TMDLJTSA-N_conf_3\\0,1\C,0,4.1708209445,-0.1290043188,2.2042584991\C,0
 ,3.4069316,-0.4890020817,0.9243984743\C,0,1.8842929877,-0.2645342313,1
 .1131571341\C,0,1.0957899194,-0.0483020805,-0.2035425967\C,0,-0.387361
 4621,-0.4306343479,-0.0242938952\C,0,-1.3342830775,0.1203737428,-1.116
 3540347\C,0,-1.7024843573,1.6045666859,-0.8900106952\C,0,-2.7762751761
 ,1.8026939981,0.1913094147\C,0,-4.0490788998,1.0029153194,-0.119762919
 5\N,0,-5.1024661287,1.3456161567,0.8504469845\C,0,-3.743832297,-0.5135
 611612,-0.2757706561\C,0,-3.482837581,-1.2328647695,1.058496314\C,0,-2
 .624436855,-0.7091581529,-1.3264459073\C,0,1.7933437099,-0.8158951446,
 -1.3379962588\C,0,3.2175865086,-0.2749431364,-1.5891770811\C,0,3.89705
 15463,0.2802145763,-0.3163851538\N,0,5.3594660476,0.16855197,-0.475298
 0574\H,0,5.2288083463,-0.3996930161,2.1345332638\H,0,4.1050930721,0.94
 65506218,2.412638146\H,0,3.7512333361,-0.6569509027,3.0678220643\H,0,3
 .5836897475,-1.5554403926,0.7218066641\H,0,1.7214548426,0.6006540046,1
 .7698933939\H,0,1.4700470696,-1.1308954909,1.6461482435\H,0,1.14118948
 56,1.021715726,-0.4538342224\H,0,-0.7145396601,-0.0820482788,0.9629019
 836\H,0,-0.4573209379,-1.5271334602,0.0078331021\H,0,-0.7858832596,0.0
 644050856,-2.0663751981\H,0,-0.8067548309,2.1854803379,-0.6392495239\H
 ,0,-2.0813507262,2.0202440264,-1.8338409775\H,0,-3.0366008954,2.864234
 4505,0.2728142574\H,0,-2.3866304218,1.5074331668,1.1753179004\H,0,-4.4
 130093689,1.3470696449,-1.0998634311\H,0,-5.9309152569,0.7830914624,0.
 6576892879\H,0,-4.8021068833,1.0663328442,1.7835496056\H,0,-4.65014941
 43,-0.9730904731,-0.6986784557\H,0,-4.3696354205,-1.2020092434,1.69985
 1513\H,0,-3.2447794161,-2.2872472509,0.882477944\H,0,-2.6526163681,-0.
 8005604315,1.6234933176\H,0,-3.0405526325,-0.4229445743,-2.3026308551\
 H,0,-2.3722516599,-1.7746378647,-1.4042894216\H,0,1.837901827,-1.87775
 01795,-1.0596985367\H,0,1.2125786705,-0.7696501699,-2.2656589324\H,0,3
 .8528786908,-1.0762646384,-1.9863907969\H,0,3.1928795957,0.5131692979,
 -2.352221839\H,0,3.58619597,1.3330939406,-0.1867685478\H,0,5.819442589
 3,0.7421211352,0.2294011812\H,0,5.6194764796,0.5915793592,-1.365700695
 \\Version=ES64L-G16RevA.03\State=1-A\HF=-699.2241064\RMSD=1.349e-09\Di
 pole=-0.3870686,1.4376329,0.174125\Quadrupole=-0.3863034,-0.2276089,0.
 6139123,0.4057951,-2.8978813,0.9735622\PG=C01 [X(C15H30N2)]\\@


 YOU CANNOT THROW TO THE GROUND THE LETTERS OF
 THE GREEK ALPHABET AND PICK UP THE ILIAD.
        - RUFUS CHOATE, 1799-1859
 Job cpu time:       0 days  2 hours  7 minutes 34.0 seconds.
 Elapsed time:       0 days  0 hours 42 minutes 38.1 seconds.
 File lengths (MBytes):  RWF=   1261 Int=      0 D2E=      0 Chk=     82 Scr=      1
 Normal termination of Gaussian 16 at Thu Jul 18 03:13:09 2024.
