 Entering Gaussian System, Link 0=g16
 Initial command:
 /opt/sw/arch/manual/gaussian/G16_A03/g16/l1.exe "/scratch/1380857/Gau-72426.inp" -scrdir="/scratch/1380857/"
 Entering Link 1 = /opt/sw/arch/manual/gaussian/G16_A03/g16/l1.exe PID=     72428.
  
 Copyright (c) 1988,1990,1992,1993,1995,1998,2003,2009,2016,
            Gaussian, Inc.  All Rights Reserved.
  
 This is part of the Gaussian(R) 16 program.  It is based on
 the Gaussian(R) 09 system (copyright 2009, Gaussian, Inc.),
 the Gaussian(R) 03 system (copyright 2003, Gaussian, Inc.),
 the Gaussian(R) 98 system (copyright 1998, Gaussian, Inc.),
 the Gaussian(R) 94 system (copyright 1995, Gaussian, Inc.),
 the Gaussian 92(TM) system (copyright 1992, Gaussian, Inc.),
 the Gaussian 90(TM) system (copyright 1990, Gaussian, Inc.),
 the Gaussian 88(TM) system (copyright 1988, Gaussian, Inc.),
 the Gaussian 86(TM) system (copyright 1986, Carnegie Mellon
 University), and the Gaussian 82(TM) system (copyright 1983,
 Carnegie Mellon University). Gaussian is a federally registered
 trademark of Gaussian, Inc.
  
 This software contains proprietary and confidential information,
 including trade secrets, belonging to Gaussian, Inc.
  
 This software is provided under written license and may be
 used, copied, transmitted, or stored only in accord with that
 written license.
  
 The following legend is applicable only to US Government
 contracts under FAR:
  
                    RESTRICTED RIGHTS LEGEND
  
 Use, reproduction and disclosure by the US Government is
 subject to restrictions as set forth in subparagraphs (a)
 and (c) of the Commercial Computer Software - Restricted
 Rights clause in FAR 52.227-19.
  
 Gaussian, Inc.
 340 Quinnipiac St., Bldg. 40, Wallingford CT 06492
  
  
 ---------------------------------------------------------------
 Warning -- This program may not be used in any manner that
 competes with the business of Gaussian, Inc. or will provide
 assistance to any competitor of Gaussian, Inc.  The licensee
 of this program is prohibited from giving any competitor of
 Gaussian, Inc. access to this program.  By using this program,
 the user acknowledges that Gaussian, Inc. is engaged in the
 business of creating and licensing software in the field of
 computational chemistry and represents and warrants to the
 licensee that it is not a competitor of Gaussian, Inc. and that
 it will not use this program in any manner prohibited above.
 ---------------------------------------------------------------
  

 Cite this work as:
 Gaussian 16, Revision A.03,
 M. J. Frisch, G. W. Trucks, H. B. Schlegel, G. E. Scuseria, 
 M. A. Robb, J. R. Cheeseman, G. Scalmani, V. Barone, 
 G. A. Petersson, H. Nakatsuji, X. Li, M. Caricato, A. V. Marenich, 
 J. Bloino, B. G. Janesko, R. Gomperts, B. Mennucci, H. P. Hratchian, 
 J. V. Ortiz, A. F. Izmaylov, J. L. Sonnenberg, D. Williams-Young, 
 F. Ding, F. Lipparini, F. Egidi, J. Goings, B. Peng, A. Petrone, 
 T. Henderson, D. Ranasinghe, V. G. Zakrzewski, J. Gao, N. Rega, 
 G. Zheng, W. Liang, M. Hada, M. Ehara, K. Toyota, R. Fukuda, 
 J. Hasegawa, M. Ishida, T. Nakajima, Y. Honda, O. Kitao, H. Nakai, 
 T. Vreven, K. Throssell, J. A. Montgomery, Jr., J. E. Peralta, 
 F. Ogliaro, M. J. Bearpark, J. J. Heyd, E. N. Brothers, K. N. Kudin, 
 V. N. Staroverov, T. A. Keith, R. Kobayashi, J. Normand, 
 K. Raghavachari, A. P. Rendell, J. C. Burant, S. S. Iyengar, 
 J. Tomasi, M. Cossi, J. M. Millam, M. Klene, C. Adamo, R. Cammi, 
 J. W. Ochterski, R. L. Martin, K. Morokuma, O. Farkas, 
 J. B. Foresman, and D. J. Fox, Gaussian, Inc., Wallingford CT, 2016.
 
 ******************************************
 Gaussian 16:  ES64L-G16RevA.03 25-Dec-2016
                18-Jul-2024 
 ******************************************
 %nprocshared=7
 Will use up to    7 processors via shared memory.
 %mem=14GB
 %Chk=IGSBHTZEJMPDSZ-IWTMDLJTSA-N_conf_1_0.chk
 -------------------------------------------------------
 # opt=CalcFc B3LYP/6-31G** SCRF=(Solvent=water) scf=xqc
 -------------------------------------------------------
 1/10=4,18=20,19=15,26=3,38=1/1,3;
 2/9=110,12=2,17=6,18=5,40=1/2;
 3/5=1,6=6,7=101,11=2,25=1,30=1,70=2201,71=2,72=1,74=-5,140=1/1,2,3;
 4//1;
 5/5=2,8=3,13=1,38=5,53=1/2,8;
 8/6=4,10=90,11=11/1;
 11/6=1,8=1,9=11,15=111,16=1/1,2,10;
 10/6=1,13=1/2;
 6/7=2,8=2,9=2,10=2,28=1/1;
 7/10=1,18=20,25=1/1,2,3,16;
 1/10=4,18=20,19=15,26=3/3(2);
 2/9=110/2;
 99//99;
 2/9=110/2;
 3/5=1,6=6,7=101,11=2,25=1,30=1,70=2205,71=1,72=1,74=-5/1,2,3;
 4/5=5,16=3,69=1/1;
 5/5=2,8=3,13=1,38=5,53=1/2,8;
 7//1,2,3,16;
 1/18=20,19=15,26=3/3(-5);
 2/9=110/2;
 6/7=2,8=2,9=2,10=2,19=2,28=1/1;
 99/9=1/99;
 ----------------------------------
 IGSBHTZEJMPDSZ-IWTMDLJTSA-N_conf_1
 ----------------------------------
 Symbolic Z-matrix:
 Charge =  0 Multiplicity = 1
 C                    -3.33901  -2.213    -0.55752 
 C                    -3.26688  -0.75574  -1.03424 
 C                    -1.84632  -0.18597  -0.84877 
 C                    -1.48653   0.10222   0.61787 
 C                    -0.10081   0.76872   0.79361 
 C                     1.09418  -0.08029   0.30116 
 C                     1.46865   0.2118   -1.16956 
 C                     2.66519   1.15026  -1.29145 
 C                     3.93098   0.57834  -0.63141 
 N                     4.71988  -0.17845  -1.60826 
 C                     3.60854  -0.32886   0.58051 
 C                     4.75911  -0.34434   1.58953 
 C                     2.30197   0.11806   1.24628 
 C                    -2.56122   0.98426   1.27868 
 C                    -3.96794   0.40796   1.12067 
 C                    -4.33853   0.11141  -0.33939 
 N                    -4.53438   1.3623   -1.08257 
 H                    -4.33123  -2.63252  -0.75566 
 H                    -3.14165  -2.31473   0.51324 
 H                    -2.60817  -2.82928  -1.09219 
 H                    -3.4775   -0.77755  -2.11281 
 H                    -1.75534   0.73967  -1.43083 
 H                    -1.1285   -0.89365  -1.27907 
 H                    -1.4597   -0.85167   1.16086 
 H                     0.02392   0.96379   1.8675 
 H                    -0.09018   1.75159   0.30526 
 H                     0.80789  -1.13915   0.36162 
 H                     1.70977  -0.73536  -1.66926 
 H                     0.62522   0.63965  -1.71967 
 H                     2.41425   2.10576  -0.81176 
 H                     2.84613   1.38966  -2.34681 
 H                     4.5442    1.42903  -0.30774 
 H                     5.59276  -0.48762  -1.18336 
 H                     4.97929   0.42889  -2.38458 
 H                     3.4646   -1.36409   0.2383 
 H                     4.94291   0.65592   1.99617 
 H                     4.52878  -1.01053   2.42781 
 H                     5.68611  -0.69999   1.12894 
 H                     2.38738   1.17108   1.54673 
 H                     2.12731  -0.45415   2.16627 
 H                    -2.52631   1.99568   0.85522 
 H                    -2.34379   1.09101   2.34869 
 H                    -4.69469   1.10094   1.56328 
 H                    -4.04123  -0.51573   1.70791 
 H                    -5.29856  -0.41826  -0.35583 
 H                    -5.21888   1.94281  -0.59945 
 H                    -3.67167   1.90278  -1.10394 
 

 GradGradGradGradGradGradGradGradGradGradGradGradGradGradGradGradGradGrad
 Berny optimization.
 Initialization pass.
                           ----------------------------
                           !    Initial Parameters    !
                           ! (Angstroms and Degrees)  !
 --------------------------                            --------------------------
 ! Name  Definition              Value          Derivative Info.                !
 --------------------------------------------------------------------------------
 ! R1    R(1,2)                  1.535          calculate D2E/DX2 analytically  !
 ! R2    R(1,18)                 1.0953         calculate D2E/DX2 analytically  !
 ! R3    R(1,19)                 1.0935         calculate D2E/DX2 analytically  !
 ! R4    R(1,20)                 1.0954         calculate D2E/DX2 analytically  !
 ! R5    R(2,3)                  1.5418         calculate D2E/DX2 analytically  !
 ! R6    R(2,16)                 1.5438         calculate D2E/DX2 analytically  !
 ! R7    R(2,21)                 1.0992         calculate D2E/DX2 analytically  !
 ! R8    R(3,4)                  1.5374         calculate D2E/DX2 analytically  !
 ! R9    R(3,22)                 1.0972         calculate D2E/DX2 analytically  !
 ! R10   R(3,23)                 1.096          calculate D2E/DX2 analytically  !
 ! R11   R(4,5)                  1.5477         calculate D2E/DX2 analytically  !
 ! R12   R(4,14)                 1.5394         calculate D2E/DX2 analytically  !
 ! R13   R(4,24)                 1.0979         calculate D2E/DX2 analytically  !
 ! R14   R(5,6)                  1.5464         calculate D2E/DX2 analytically  !
 ! R15   R(5,25)                 1.0986         calculate D2E/DX2 analytically  !
 ! R16   R(5,26)                 1.0976         calculate D2E/DX2 analytically  !
 ! R17   R(6,7)                  1.5455         calculate D2E/DX2 analytically  !
 ! R18   R(6,13)                 1.5464         calculate D2E/DX2 analytically  !
 ! R19   R(6,27)                 1.0985         calculate D2E/DX2 analytically  !
 ! R20   R(7,8)                  1.5255         calculate D2E/DX2 analytically  !
 ! R21   R(7,28)                 1.0977         calculate D2E/DX2 analytically  !
 ! R22   R(7,29)                 1.0941         calculate D2E/DX2 analytically  !
 ! R23   R(8,9)                  1.5378         calculate D2E/DX2 analytically  !
 ! R24   R(8,30)                 1.0982         calculate D2E/DX2 analytically  !
 ! R25   R(8,31)                 1.0972         calculate D2E/DX2 analytically  !
 ! R26   R(9,10)                 1.4661         calculate D2E/DX2 analytically  !
 ! R27   R(9,11)                 1.5478         calculate D2E/DX2 analytically  !
 ! R28   R(9,32)                 1.0975         calculate D2E/DX2 analytically  !
 ! R29   R(10,33)                1.0188         calculate D2E/DX2 analytically  !
 ! R30   R(10,34)                1.0192         calculate D2E/DX2 analytically  !
 ! R31   R(11,12)                1.5304         calculate D2E/DX2 analytically  !
 ! R32   R(11,13)                1.533          calculate D2E/DX2 analytically  !
 ! R33   R(11,35)                1.0998         calculate D2E/DX2 analytically  !
 ! R34   R(12,36)                1.0953         calculate D2E/DX2 analytically  !
 ! R35   R(12,37)                1.0952         calculate D2E/DX2 analytically  !
 ! R36   R(12,38)                1.0945         calculate D2E/DX2 analytically  !
 ! R37   R(13,39)                1.0984         calculate D2E/DX2 analytically  !
 ! R38   R(13,40)                1.0974         calculate D2E/DX2 analytically  !
 ! R39   R(14,15)                1.5284         calculate D2E/DX2 analytically  !
 ! R40   R(14,41)                1.097          calculate D2E/DX2 analytically  !
 ! R41   R(14,42)                1.0971         calculate D2E/DX2 analytically  !
 ! R42   R(15,16)                1.5353         calculate D2E/DX2 analytically  !
 ! R43   R(15,43)                1.0974         calculate D2E/DX2 analytically  !
 ! R44   R(15,44)                1.097          calculate D2E/DX2 analytically  !
 ! R45   R(16,17)                1.4681         calculate D2E/DX2 analytically  !
 ! R46   R(16,45)                1.0966         calculate D2E/DX2 analytically  !
 ! R47   R(17,46)                1.0193         calculate D2E/DX2 analytically  !
 ! R48   R(17,47)                1.0183         calculate D2E/DX2 analytically  !
 ! A1    A(2,1,18)             110.4881         calculate D2E/DX2 analytically  !
 ! A2    A(2,1,19)             112.5786         calculate D2E/DX2 analytically  !
 ! A3    A(2,1,20)             110.5605         calculate D2E/DX2 analytically  !
 ! A4    A(18,1,19)            107.7566         calculate D2E/DX2 analytically  !
 ! A5    A(18,1,20)            107.4944         calculate D2E/DX2 analytically  !
 ! A6    A(19,1,20)            107.7705         calculate D2E/DX2 analytically  !
 ! A7    A(1,2,3)              110.9031         calculate D2E/DX2 analytically  !
 ! A8    A(1,2,16)             111.1533         calculate D2E/DX2 analytically  !
 ! A9    A(1,2,21)             106.0766         calculate D2E/DX2 analytically  !
 ! A10   A(3,2,16)             112.2021         calculate D2E/DX2 analytically  !
 ! A11   A(3,2,21)             107.574          calculate D2E/DX2 analytically  !
 ! A12   A(16,2,21)            108.6507         calculate D2E/DX2 analytically  !
 ! A13   A(2,3,4)              113.5576         calculate D2E/DX2 analytically  !
 ! A14   A(2,3,22)             108.9262         calculate D2E/DX2 analytically  !
 ! A15   A(2,3,23)             108.5178         calculate D2E/DX2 analytically  !
 ! A16   A(4,3,22)             109.1801         calculate D2E/DX2 analytically  !
 ! A17   A(4,3,23)             110.0172         calculate D2E/DX2 analytically  !
 ! A18   A(22,3,23)            106.3881         calculate D2E/DX2 analytically  !
 ! A19   A(3,4,5)              113.4899         calculate D2E/DX2 analytically  !
 ! A20   A(3,4,14)             110.7048         calculate D2E/DX2 analytically  !
 ! A21   A(3,4,24)             108.3408         calculate D2E/DX2 analytically  !
 ! A22   A(5,4,14)             109.2431         calculate D2E/DX2 analytically  !
 ! A23   A(5,4,24)             107.2233         calculate D2E/DX2 analytically  !
 ! A24   A(14,4,24)            107.6125         calculate D2E/DX2 analytically  !
 ! A25   A(4,5,6)              114.7906         calculate D2E/DX2 analytically  !
 ! A26   A(4,5,25)             106.8058         calculate D2E/DX2 analytically  !
 ! A27   A(4,5,26)             110.1079         calculate D2E/DX2 analytically  !
 ! A28   A(6,5,25)             108.7259         calculate D2E/DX2 analytically  !
 ! A29   A(6,5,26)             110.0283         calculate D2E/DX2 analytically  !
 ! A30   A(25,5,26)            105.9519         calculate D2E/DX2 analytically  !
 ! A31   A(5,6,7)              112.7378         calculate D2E/DX2 analytically  !
 ! A32   A(5,6,13)             109.786          calculate D2E/DX2 analytically  !
 ! A33   A(5,6,27)             108.0758         calculate D2E/DX2 analytically  !
 ! A34   A(7,6,13)             111.5998         calculate D2E/DX2 analytically  !
 ! A35   A(7,6,27)             107.3182         calculate D2E/DX2 analytically  !
 ! A36   A(13,6,27)            107.0703         calculate D2E/DX2 analytically  !
 ! A37   A(6,7,8)              112.4786         calculate D2E/DX2 analytically  !
 ! A38   A(6,7,28)             108.8657         calculate D2E/DX2 analytically  !
 ! A39   A(6,7,29)             111.4444         calculate D2E/DX2 analytically  !
 ! A40   A(8,7,28)             108.7922         calculate D2E/DX2 analytically  !
 ! A41   A(8,7,29)             108.8991         calculate D2E/DX2 analytically  !
 ! A42   A(28,7,29)            106.1328         calculate D2E/DX2 analytically  !
 ! A43   A(7,8,9)              112.4893         calculate D2E/DX2 analytically  !
 ! A44   A(7,8,30)             108.7298         calculate D2E/DX2 analytically  !
 ! A45   A(7,8,31)             109.9031         calculate D2E/DX2 analytically  !
 ! A46   A(9,8,30)             108.9153         calculate D2E/DX2 analytically  !
 ! A47   A(9,8,31)             110.9925         calculate D2E/DX2 analytically  !
 ! A48   A(30,8,31)            105.5442         calculate D2E/DX2 analytically  !
 ! A49   A(8,9,10)             110.4202         calculate D2E/DX2 analytically  !
 ! A50   A(8,9,11)             112.4927         calculate D2E/DX2 analytically  !
 ! A51   A(8,9,32)             107.3503         calculate D2E/DX2 analytically  !
 ! A52   A(10,9,11)            109.3451         calculate D2E/DX2 analytically  !
 ! A53   A(10,9,32)            107.2157         calculate D2E/DX2 analytically  !
 ! A54   A(11,9,32)            109.8644         calculate D2E/DX2 analytically  !
 ! A55   A(9,10,33)            109.8628         calculate D2E/DX2 analytically  !
 ! A56   A(9,10,34)            109.6862         calculate D2E/DX2 analytically  !
 ! A57   A(33,10,34)           106.2852         calculate D2E/DX2 analytically  !
 ! A58   A(9,11,12)            111.4416         calculate D2E/DX2 analytically  !
 ! A59   A(9,11,13)            110.2872         calculate D2E/DX2 analytically  !
 ! A60   A(9,11,35)            109.5938         calculate D2E/DX2 analytically  !
 ! A61   A(12,11,13)           110.9386         calculate D2E/DX2 analytically  !
 ! A62   A(12,11,35)           107.0986         calculate D2E/DX2 analytically  !
 ! A63   A(13,11,35)           107.3376         calculate D2E/DX2 analytically  !
 ! A64   A(11,12,36)           111.2043         calculate D2E/DX2 analytically  !
 ! A65   A(11,12,37)           110.6512         calculate D2E/DX2 analytically  !
 ! A66   A(11,12,38)           111.2583         calculate D2E/DX2 analytically  !
 ! A67   A(36,12,37)           107.8558         calculate D2E/DX2 analytically  !
 ! A68   A(36,12,38)           108.1101         calculate D2E/DX2 analytically  !
 ! A69   A(37,12,38)           107.6112         calculate D2E/DX2 analytically  !
 ! A70   A(6,13,11)            111.2752         calculate D2E/DX2 analytically  !
 ! A71   A(6,13,39)            110.5415         calculate D2E/DX2 analytically  !
 ! A72   A(6,13,40)            108.7339         calculate D2E/DX2 analytically  !
 ! A73   A(11,13,39)           109.3915         calculate D2E/DX2 analytically  !
 ! A74   A(11,13,40)           110.3478         calculate D2E/DX2 analytically  !
 ! A75   A(39,13,40)           106.436          calculate D2E/DX2 analytically  !
 ! A76   A(4,14,15)            112.4655         calculate D2E/DX2 analytically  !
 ! A77   A(4,14,41)            109.8984         calculate D2E/DX2 analytically  !
 ! A78   A(4,14,42)            109.6378         calculate D2E/DX2 analytically  !
 ! A79   A(15,14,41)           109.6949         calculate D2E/DX2 analytically  !
 ! A80   A(15,14,42)           108.6595         calculate D2E/DX2 analytically  !
 ! A81   A(41,14,42)           106.2879         calculate D2E/DX2 analytically  !
 ! A82   A(14,15,16)           113.1616         calculate D2E/DX2 analytically  !
 ! A83   A(14,15,43)           109.2523         calculate D2E/DX2 analytically  !
 ! A84   A(14,15,44)           108.8829         calculate D2E/DX2 analytically  !
 ! A85   A(16,15,43)           110.2238         calculate D2E/DX2 analytically  !
 ! A86   A(16,15,44)           109.2884         calculate D2E/DX2 analytically  !
 ! A87   A(43,15,44)           105.7565         calculate D2E/DX2 analytically  !
 ! A88   A(2,16,15)            111.6533         calculate D2E/DX2 analytically  !
 ! A89   A(2,16,17)            110.0811         calculate D2E/DX2 analytically  !
 ! A90   A(2,16,45)            109.2488         calculate D2E/DX2 analytically  !
 ! A91   A(15,16,17)           110.4282         calculate D2E/DX2 analytically  !
 ! A92   A(15,16,45)           108.5957         calculate D2E/DX2 analytically  !
 ! A93   A(17,16,45)           106.6889         calculate D2E/DX2 analytically  !
 ! A94   A(16,17,46)           109.567          calculate D2E/DX2 analytically  !
 ! A95   A(16,17,47)           110.4783         calculate D2E/DX2 analytically  !
 ! A96   A(46,17,47)           106.0583         calculate D2E/DX2 analytically  !
 ! D1    D(18,1,2,3)          -176.106          calculate D2E/DX2 analytically  !
 ! D2    D(18,1,2,16)           58.3377         calculate D2E/DX2 analytically  !
 ! D3    D(18,1,2,21)          -59.591          calculate D2E/DX2 analytically  !
 ! D4    D(19,1,2,3)            63.3657         calculate D2E/DX2 analytically  !
 ! D5    D(19,1,2,16)          -62.1906         calculate D2E/DX2 analytically  !
 ! D6    D(19,1,2,21)          179.8807         calculate D2E/DX2 analytically  !
 ! D7    D(20,1,2,3)           -57.2314         calculate D2E/DX2 analytically  !
 ! D8    D(20,1,2,16)          177.2123         calculate D2E/DX2 analytically  !
 ! D9    D(20,1,2,21)           59.2836         calculate D2E/DX2 analytically  !
 ! D10   D(1,2,3,4)            -73.0307         calculate D2E/DX2 analytically  !
 ! D11   D(1,2,3,22)           165.0723         calculate D2E/DX2 analytically  !
 ! D12   D(1,2,3,23)            49.6428         calculate D2E/DX2 analytically  !
 ! D13   D(16,2,3,4)            51.9359         calculate D2E/DX2 analytically  !
 ! D14   D(16,2,3,22)          -69.9611         calculate D2E/DX2 analytically  !
 ! D15   D(16,2,3,23)          174.6094         calculate D2E/DX2 analytically  !
 ! D16   D(21,2,3,4)           171.3806         calculate D2E/DX2 analytically  !
 ! D17   D(21,2,3,22)           49.4836         calculate D2E/DX2 analytically  !
 ! D18   D(21,2,3,23)          -65.9459         calculate D2E/DX2 analytically  !
 ! D19   D(1,2,16,15)           74.3524         calculate D2E/DX2 analytically  !
 ! D20   D(1,2,16,17)         -162.6246         calculate D2E/DX2 analytically  !
 ! D21   D(1,2,16,45)          -45.7831         calculate D2E/DX2 analytically  !
 ! D22   D(3,2,16,15)          -50.4764         calculate D2E/DX2 analytically  !
 ! D23   D(3,2,16,17)           72.5467         calculate D2E/DX2 analytically  !
 ! D24   D(3,2,16,45)         -170.6118         calculate D2E/DX2 analytically  !
 ! D25   D(21,2,16,15)        -169.289          calculate D2E/DX2 analytically  !
 ! D26   D(21,2,16,17)         -46.266          calculate D2E/DX2 analytically  !
 ! D27   D(21,2,16,45)          70.5755         calculate D2E/DX2 analytically  !
 ! D28   D(2,3,4,5)           -175.8291         calculate D2E/DX2 analytically  !
 ! D29   D(2,3,4,14)           -52.5695         calculate D2E/DX2 analytically  !
 ! D30   D(2,3,4,24)            65.2105         calculate D2E/DX2 analytically  !
 ! D31   D(22,3,4,5)           -54.0734         calculate D2E/DX2 analytically  !
 ! D32   D(22,3,4,14)           69.1863         calculate D2E/DX2 analytically  !
 ! D33   D(22,3,4,24)         -173.0337         calculate D2E/DX2 analytically  !
 ! D34   D(23,3,4,5)            62.3279         calculate D2E/DX2 analytically  !
 ! D35   D(23,3,4,14)         -174.4125         calculate D2E/DX2 analytically  !
 ! D36   D(23,3,4,24)          -56.6325         calculate D2E/DX2 analytically  !
 ! D37   D(3,4,5,6)            -61.836          calculate D2E/DX2 analytically  !
 ! D38   D(3,4,5,25)           177.5732         calculate D2E/DX2 analytically  !
 ! D39   D(3,4,5,26)            62.972          calculate D2E/DX2 analytically  !
 ! D40   D(14,4,5,6)           174.1065         calculate D2E/DX2 analytically  !
 ! D41   D(14,4,5,25)           53.5157         calculate D2E/DX2 analytically  !
 ! D42   D(14,4,5,26)          -61.0856         calculate D2E/DX2 analytically  !
 ! D43   D(24,4,5,6)            57.7635         calculate D2E/DX2 analytically  !
 ! D44   D(24,4,5,25)          -62.8273         calculate D2E/DX2 analytically  !
 ! D45   D(24,4,5,26)         -177.4285         calculate D2E/DX2 analytically  !
 ! D46   D(3,4,14,15)           53.0341         calculate D2E/DX2 analytically  !
 ! D47   D(3,4,14,41)          -69.4807         calculate D2E/DX2 analytically  !
 ! D48   D(3,4,14,42)          174.0416         calculate D2E/DX2 analytically  !
 ! D49   D(5,4,14,15)          178.7146         calculate D2E/DX2 analytically  !
 ! D50   D(5,4,14,41)           56.1998         calculate D2E/DX2 analytically  !
 ! D51   D(5,4,14,42)          -60.2779         calculate D2E/DX2 analytically  !
 ! D52   D(24,4,14,15)         -65.1903         calculate D2E/DX2 analytically  !
 ! D53   D(24,4,14,41)         172.2948         calculate D2E/DX2 analytically  !
 ! D54   D(24,4,14,42)          55.8171         calculate D2E/DX2 analytically  !
 ! D55   D(4,5,6,7)             91.9302         calculate D2E/DX2 analytically  !
 ! D56   D(4,5,6,13)          -142.9738         calculate D2E/DX2 analytically  !
 ! D57   D(4,5,6,27)           -26.5138         calculate D2E/DX2 analytically  !
 ! D58   D(25,5,6,7)          -148.5421         calculate D2E/DX2 analytically  !
 ! D59   D(25,5,6,13)          -23.4461         calculate D2E/DX2 analytically  !
 ! D60   D(25,5,6,27)           93.0138         calculate D2E/DX2 analytically  !
 ! D61   D(26,5,6,7)           -32.9195         calculate D2E/DX2 analytically  !
 ! D62   D(26,5,6,13)           92.1764         calculate D2E/DX2 analytically  !
 ! D63   D(26,5,6,27)         -151.3636         calculate D2E/DX2 analytically  !
 ! D64   D(5,6,7,8)             99.8669         calculate D2E/DX2 analytically  !
 ! D65   D(5,6,7,28)          -139.4822         calculate D2E/DX2 analytically  !
 ! D66   D(5,6,7,29)           -22.7578         calculate D2E/DX2 analytically  !
 ! D67   D(13,6,7,8)           -24.2358         calculate D2E/DX2 analytically  !
 ! D68   D(13,6,7,28)           96.4151         calculate D2E/DX2 analytically  !
 ! D69   D(13,6,7,29)         -146.8605         calculate D2E/DX2 analytically  !
 ! D70   D(27,6,7,8)          -141.2469         calculate D2E/DX2 analytically  !
 ! D71   D(27,6,7,28)          -20.596          calculate D2E/DX2 analytically  !
 ! D72   D(27,6,7,29)           96.1284         calculate D2E/DX2 analytically  !
 ! D73   D(5,6,13,11)         -162.0485         calculate D2E/DX2 analytically  !
 ! D74   D(5,6,13,39)          -40.2858         calculate D2E/DX2 analytically  !
 ! D75   D(5,6,13,40)           76.2105         calculate D2E/DX2 analytically  !
 ! D76   D(7,6,13,11)          -36.3006         calculate D2E/DX2 analytically  !
 ! D77   D(7,6,13,39)           85.4621         calculate D2E/DX2 analytically  !
 ! D78   D(7,6,13,40)         -158.0416         calculate D2E/DX2 analytically  !
 ! D79   D(27,6,13,11)          80.8604         calculate D2E/DX2 analytically  !
 ! D80   D(27,6,13,39)        -157.3768         calculate D2E/DX2 analytically  !
 ! D81   D(27,6,13,40)         -40.8806         calculate D2E/DX2 analytically  !
 ! D82   D(6,7,8,9)             60.1035         calculate D2E/DX2 analytically  !
 ! D83   D(6,7,8,30)           -60.6163         calculate D2E/DX2 analytically  !
 ! D84   D(6,7,8,31)          -175.6848         calculate D2E/DX2 analytically  !
 ! D85   D(28,7,8,9)           -60.5897         calculate D2E/DX2 analytically  !
 ! D86   D(28,7,8,30)          178.6905         calculate D2E/DX2 analytically  !
 ! D87   D(28,7,8,31)           63.622          calculate D2E/DX2 analytically  !
 ! D88   D(29,7,8,9)          -175.8501         calculate D2E/DX2 analytically  !
 ! D89   D(29,7,8,30)           63.4302         calculate D2E/DX2 analytically  !
 ! D90   D(29,7,8,31)          -51.6383         calculate D2E/DX2 analytically  !
 ! D91   D(7,8,9,10)            91.6072         calculate D2E/DX2 analytically  !
 ! D92   D(7,8,9,11)           -30.8541         calculate D2E/DX2 analytically  !
 ! D93   D(7,8,9,32)          -151.8295         calculate D2E/DX2 analytically  !
 ! D94   D(30,8,9,10)         -147.7797         calculate D2E/DX2 analytically  !
 ! D95   D(30,8,9,11)           89.7591         calculate D2E/DX2 analytically  !
 ! D96   D(30,8,9,32)          -31.2163         calculate D2E/DX2 analytically  !
 ! D97   D(31,8,9,10)          -32.0003         calculate D2E/DX2 analytically  !
 ! D98   D(31,8,9,11)         -154.4616         calculate D2E/DX2 analytically  !
 ! D99   D(31,8,9,32)           84.5631         calculate D2E/DX2 analytically  !
 ! D100  D(8,9,10,33)          175.3229         calculate D2E/DX2 analytically  !
 ! D101  D(8,9,10,34)           58.8409         calculate D2E/DX2 analytically  !
 ! D102  D(11,9,10,33)         -60.3891         calculate D2E/DX2 analytically  !
 ! D103  D(11,9,10,34)        -176.8711         calculate D2E/DX2 analytically  !
 ! D104  D(32,9,10,33)          58.6759         calculate D2E/DX2 analytically  !
 ! D105  D(32,9,10,34)         -57.8061         calculate D2E/DX2 analytically  !
 ! D106  D(8,9,11,12)         -152.9183         calculate D2E/DX2 analytically  !
 ! D107  D(8,9,11,13)          -29.2415         calculate D2E/DX2 analytically  !
 ! D108  D(8,9,11,35)           88.7164         calculate D2E/DX2 analytically  !
 ! D109  D(10,9,11,12)          84.0163         calculate D2E/DX2 analytically  !
 ! D110  D(10,9,11,13)        -152.3069         calculate D2E/DX2 analytically  !
 ! D111  D(10,9,11,35)         -34.349          calculate D2E/DX2 analytically  !
 ! D112  D(32,9,11,12)         -33.3945         calculate D2E/DX2 analytically  !
 ! D113  D(32,9,11,13)          90.2823         calculate D2E/DX2 analytically  !
 ! D114  D(32,9,11,35)        -151.7598         calculate D2E/DX2 analytically  !
 ! D115  D(9,11,12,36)          61.6738         calculate D2E/DX2 analytically  !
 ! D116  D(9,11,12,37)        -178.4787         calculate D2E/DX2 analytically  !
 ! D117  D(9,11,12,38)         -58.9033         calculate D2E/DX2 analytically  !
 ! D118  D(13,11,12,36)        -61.6328         calculate D2E/DX2 analytically  !
 ! D119  D(13,11,12,37)         58.2147         calculate D2E/DX2 analytically  !
 ! D120  D(13,11,12,38)        177.7902         calculate D2E/DX2 analytically  !
 ! D121  D(35,11,12,36)       -178.4747         calculate D2E/DX2 analytically  !
 ! D122  D(35,11,12,37)        -58.6272         calculate D2E/DX2 analytically  !
 ! D123  D(35,11,12,38)         60.9483         calculate D2E/DX2 analytically  !
 ! D124  D(9,11,13,6)           65.2111         calculate D2E/DX2 analytically  !
 ! D125  D(9,11,13,39)         -57.2178         calculate D2E/DX2 analytically  !
 ! D126  D(9,11,13,40)        -173.9912         calculate D2E/DX2 analytically  !
 ! D127  D(12,11,13,6)        -170.821          calculate D2E/DX2 analytically  !
 ! D128  D(12,11,13,39)         66.75           calculate D2E/DX2 analytically  !
 ! D129  D(12,11,13,40)        -50.0233         calculate D2E/DX2 analytically  !
 ! D130  D(35,11,13,6)         -54.126          calculate D2E/DX2 analytically  !
 ! D131  D(35,11,13,39)       -176.5549         calculate D2E/DX2 analytically  !
 ! D132  D(35,11,13,40)         66.6717         calculate D2E/DX2 analytically  !
 ! D133  D(4,14,15,16)         -53.8904         calculate D2E/DX2 analytically  !
 ! D134  D(4,14,15,43)        -177.0986         calculate D2E/DX2 analytically  !
 ! D135  D(4,14,15,44)          67.8483         calculate D2E/DX2 analytically  !
 ! D136  D(41,14,15,16)         68.7391         calculate D2E/DX2 analytically  !
 ! D137  D(41,14,15,43)        -54.4691         calculate D2E/DX2 analytically  !
 ! D138  D(41,14,15,44)       -169.5222         calculate D2E/DX2 analytically  !
 ! D139  D(42,14,15,16)       -175.4568         calculate D2E/DX2 analytically  !
 ! D140  D(42,14,15,43)         61.335          calculate D2E/DX2 analytically  !
 ! D141  D(42,14,15,44)        -53.7181         calculate D2E/DX2 analytically  !
 ! D142  D(14,15,16,2)          52.0319         calculate D2E/DX2 analytically  !
 ! D143  D(14,15,16,17)        -70.7934         calculate D2E/DX2 analytically  !
 ! D144  D(14,15,16,45)        172.5501         calculate D2E/DX2 analytically  !
 ! D145  D(43,15,16,2)         174.702          calculate D2E/DX2 analytically  !
 ! D146  D(43,15,16,17)         51.8768         calculate D2E/DX2 analytically  !
 ! D147  D(43,15,16,45)        -64.7798         calculate D2E/DX2 analytically  !
 ! D148  D(44,15,16,2)         -69.479          calculate D2E/DX2 analytically  !
 ! D149  D(44,15,16,17)        167.6958         calculate D2E/DX2 analytically  !
 ! D150  D(44,15,16,45)         51.0392         calculate D2E/DX2 analytically  !
 ! D151  D(2,16,17,46)        -178.0146         calculate D2E/DX2 analytically  !
 ! D152  D(2,16,17,47)         -61.5201         calculate D2E/DX2 analytically  !
 ! D153  D(15,16,17,46)        -54.2763         calculate D2E/DX2 analytically  !
 ! D154  D(15,16,17,47)         62.2182         calculate D2E/DX2 analytically  !
 ! D155  D(45,16,17,46)         63.558          calculate D2E/DX2 analytically  !
 ! D156  D(45,16,17,47)       -179.9475         calculate D2E/DX2 analytically  !
 --------------------------------------------------------------------------------
 Trust Radius=3.00D-01 FncErr=1.00D-07 GrdErr=1.00D-06 EigMax=2.50D+02 EigMin=1.00D-04
 Number of steps in this run=    282 maximum allowed number of steps=    282.
 GradGradGradGradGradGradGradGradGradGradGradGradGradGradGradGradGradGrad

                          Input orientation:                          
 ---------------------------------------------------------------------
 Center     Atomic      Atomic             Coordinates (Angstroms)
 Number     Number       Type             X           Y           Z
 ---------------------------------------------------------------------
      1          6           0       -3.339008   -2.212997   -0.557520
      2          6           0       -3.266877   -0.755738   -1.034245
      3          6           0       -1.846321   -0.185965   -0.848767
      4          6           0       -1.486534    0.102217    0.617866
      5          6           0       -0.100812    0.768715    0.793608
      6          6           0        1.094185   -0.080290    0.301164
      7          6           0        1.468650    0.211798   -1.169560
      8          6           0        2.665193    1.150258   -1.291454
      9          6           0        3.930982    0.578337   -0.631407
     10          7           0        4.719879   -0.178455   -1.608265
     11          6           0        3.608541   -0.328856    0.580507
     12          6           0        4.759106   -0.344345    1.589533
     13          6           0        2.301973    0.118061    1.246279
     14          6           0       -2.561221    0.984262    1.278684
     15          6           0       -3.967944    0.407962    1.120666
     16          6           0       -4.338532    0.111412   -0.339389
     17          7           0       -4.534378    1.362297   -1.082565
     18          1           0       -4.331228   -2.632524   -0.755656
     19          1           0       -3.141653   -2.314728    0.513245
     20          1           0       -2.608170   -2.829275   -1.092192
     21          1           0       -3.477498   -0.777545   -2.112815
     22          1           0       -1.755343    0.739669   -1.430826
     23          1           0       -1.128501   -0.893648   -1.279066
     24          1           0       -1.459695   -0.851665    1.160860
     25          1           0        0.023923    0.963786    1.867501
     26          1           0       -0.090185    1.751591    0.305262
     27          1           0        0.807892   -1.139150    0.361619
     28          1           0        1.709770   -0.735356   -1.669263
     29          1           0        0.625223    0.639646   -1.719674
     30          1           0        2.414254    2.105757   -0.811756
     31          1           0        2.846132    1.389665   -2.346808
     32          1           0        4.544200    1.429029   -0.307738
     33          1           0        5.592755   -0.487620   -1.183357
     34          1           0        4.979293    0.428890   -2.384584
     35          1           0        3.464601   -1.364092    0.238304
     36          1           0        4.942910    0.655918    1.996167
     37          1           0        4.528779   -1.010532    2.427807
     38          1           0        5.686107   -0.699987    1.128940
     39          1           0        2.387377    1.171075    1.546735
     40          1           0        2.127311   -0.454151    2.166266
     41          1           0       -2.526314    1.995683    0.855221
     42          1           0       -2.343785    1.091009    2.348692
     43          1           0       -4.694694    1.100936    1.563279
     44          1           0       -4.041233   -0.515730    1.707915
     45          1           0       -5.298556   -0.418261   -0.355832
     46          1           0       -5.218882    1.942809   -0.599447
     47          1           0       -3.671671    1.902775   -1.103935
 ---------------------------------------------------------------------
                    Distance matrix (angstroms):
                    1          2          3          4          5
     1  C    0.000000
     2  C    1.534950   0.000000
     3  C    2.534126   1.541760   0.000000
     4  C    3.189577   2.575884   1.537370   0.000000
     5  C    4.604570   3.960931   2.579847   1.547686   0.000000
     6  C    4.993893   4.610684   3.159126   2.606476   1.546392
     7  C    5.419206   4.835251   3.354125   3.455432   2.574373
     8  C    6.921023   6.236059   4.726015   4.688361   3.484801
     9  C    7.787796   7.331522   5.831692   5.580041   4.280453
    10  N    8.377892   8.028140   6.609983   6.599545   5.468563
    11  C    7.287903   7.075382   5.640812   5.113415   3.874193
    12  C    8.583772   8.453985   7.042872   6.336527   5.048881
    13  C    6.364604   6.080823   4.657251   3.840304   2.530145
    14  C    3.768164   2.979126   2.531118   1.539362   2.517017
    15  C    3.175106   2.547418   2.955115   2.550232   3.897669
    16  C    2.539587   1.543767   2.561058   3.008374   4.435539
    17  N    3.806219   2.468798   3.110857   3.710609   4.850657
    18  H    1.095336   2.175495   3.488421   4.178235   5.644915
    19  H    1.093542   2.200194   2.839822   2.931209   4.339694
    20  H    1.095353   2.176421   2.761658   3.574355   4.773743
    21  H    2.121000   1.099159   2.146747   3.492068   4.715954
    22  H    3.462498   2.162928   1.097210   2.162346   2.772440
    23  H    2.673509   2.156759   1.096010   2.172161   2.848785
    24  H    2.887536   2.844924   2.152030   1.097932   2.146409
    25  H    5.223215   4.712352   3.492542   2.141348   1.098571
    26  H    5.197807   4.262905   2.858307   2.183563   1.097561
    27  H    4.381181   4.324256   3.068948   2.621268   2.156921
    28  H    5.376760   5.017039   3.690640   4.018563   3.406783
    29  H    5.020289   4.191104   2.747479   3.195691   2.619231
    30  H    7.198353   6.364975   4.837960   4.612390   3.269622
    31  H    7.378122   6.610179   5.171639   5.405443   4.351123
    32  H    8.687445   8.143337   6.613597   6.243951   4.819243
    33  H    9.118387   8.864943   7.452704   7.328619   6.156580
    34  H    8.916942   8.439554   7.023231   7.136409   6.001987
    35  H    6.902396   6.877665   5.547576   5.177631   4.191586
    36  H    9.129192   8.864354   7.409188   6.598791   5.186328
    37  H    8.500597   8.533638   7.215105   6.379505   5.222014
    38  H    9.305162   9.210776   7.804678   7.235434   5.979796
    39  H    6.976483   6.507278   5.050167   4.124615   2.630623
    40  H    6.355563   6.279450   4.995207   3.970763   2.888619
    41  H    4.513235   3.418894   2.850536   2.173176   2.718880
    42  H    4.511429   3.963185   3.478775   2.169873   2.748289
    43  H    4.161469   3.497575   3.948077   3.490493   4.669745
    44  H    2.916510   2.859488   3.385706   2.845444   4.244134
    45  H    2.664880   2.168376   3.494979   3.968689   5.454051
    46  H    4.561403   3.358798   3.995999   4.335902   5.432655
    47  H    4.165191   2.690057   2.785651   3.313824   4.199738
                    6          7          8          9         10
     6  C    0.000000
     7  C    1.545500   0.000000
     8  C    2.553184   1.525543   0.000000
     9  C    3.057924   2.546967   1.537848   0.000000
    10  N    4.098928   3.303824   2.467302   1.466064   0.000000
    11  C    2.542008   2.816767   2.565525   1.547806   2.459352
    12  C    3.893747   4.330011   3.862434   2.543562   3.202338
    13  C    1.546395   2.557244   2.763594   2.528089   3.752681
    14  C    3.930751   4.778123   5.826540   6.779523   7.918384
    15  C    5.151225   5.902556   7.097030   8.092702   9.125197
    16  C    5.473707   5.867079   7.144074   8.287832   9.151441
    17  N    5.972979   6.112901   7.205721   8.513545   9.396358
    18  H    6.088174   6.473026   7.971601   8.865054   9.416578
    19  H    4.793747   5.519969   6.998752   7.726722   8.418323
    20  H    4.817239   5.086705   6.609443   7.388143   7.809832
    21  H    5.216679   5.131560   6.490278   7.675843   8.234711
    22  H    3.433938   3.277352   4.441750   5.744510   6.542395
    23  H    2.845876   2.824747   4.309271   5.308915   5.901137
    24  H    2.802927   3.890632   5.199639   5.858032   6.805028
    25  H    2.165402   3.446225   4.121902   4.653840   5.952954
    26  H    2.181407   2.641218   3.240866   4.292279   5.524796
    27  H    1.098546   2.146199   3.379882   3.699940   4.484085
    28  H    2.165788   1.097699   2.147350   2.781496   3.061799
    29  H    2.195910   1.094097   2.146060   3.480823   4.177070
    30  H    2.785674   2.146922   1.098207   2.160093   3.341849
    31  H    3.498835   2.161190   1.097191   2.185807   2.552522
    32  H    3.814631   3.418098   2.139176   1.097485   2.075147
    33  H    4.754667   4.183016   3.356330   2.049976   1.018844
    34  H    4.750428   3.721294   2.659015   2.048149   1.019232
    35  H    2.696474   2.906774   3.049782   2.178748   2.528097
    36  H    4.269394   4.721182   4.029990   2.816765   3.706461
    37  H    4.145406   4.878476   4.687735   3.498665   4.125378
    38  H    4.706908   4.888906   4.290412   2.795246   2.949217
    39  H    2.188541   3.023662   2.851829   2.734659   4.149195
    40  H    2.164654   3.464832   3.849580   3.485145   4.587429
    41  H    4.210066   4.820967   5.681083   6.776106   7.956315
    42  H    4.169407   5.261727   6.192256   6.965381   8.195389
    43  H    6.041469   6.800425   7.894294   8.915832  10.016473
    44  H    5.342384   6.258432   7.533119   8.380073   9.373787
    45  H    6.435293   6.845013   8.170492   9.287278  10.099264
    46  H    6.690205   6.931414   7.953970   9.251098  10.212563
    47  H    5.349788   5.411710   6.384143   7.731607   8.660483
                   11         12         13         14         15
    11  C    0.000000
    12  C    1.530416   0.000000
    13  C    1.533006   2.523717   0.000000
    14  C    6.346471   7.446409   4.939839   0.000000
    15  C    7.631369   8.771955   6.277872   1.528385   0.000000
    16  C    8.012241   9.311040   6.827202   2.557120   1.535265
    17  N    8.481328   9.819449   7.328528   3.100283   2.466948
    18  H    8.374494   9.662807   7.454717   4.511386   3.591255
    19  H    7.036571   8.213574   6.007400   3.436005   2.909426
    20  H    6.906338   8.224554   6.185850   4.490693   4.150354
    21  H    7.593896   9.040835   6.744472   3.930114   3.478702
    22  H    5.827388   7.261935   4.900520   2.837377   3.393486
    23  H    5.120212   6.572253   4.378250   3.481568   3.938952
    24  H    5.128076   6.254169   3.885590   2.144264   2.807060
    25  H    4.022035   4.920409   2.508122   2.651432   4.098988
    26  H    4.252598   5.436720   3.045710   2.764483   4.184165
    27  H    2.923717   4.213262   2.143707   4.086663   5.077236
    28  H    2.971874   4.480077   3.095062   5.467069   6.428633
    29  H    3.889604   5.385915   3.446799   4.388887   5.405404
    30  H    3.048288   4.155420   2.863399   5.512082   6.881077
    31  H    3.479045   4.707551   3.850112   6.522884   7.708356
    32  H    2.180503   2.605892   3.026746   7.293939   8.691346
    33  H    2.659610   2.899037   4.135122   8.643808   9.875098
    34  H    3.353342   4.054624   4.521927   8.401626   9.609384
    35  H    1.099788   2.131067   2.136468   6.550396   7.691649
    36  H    2.180462   1.095290   2.797529   7.545500   8.957192
    37  H    2.173485   1.095244   2.761955   7.454380   8.712923
    38  H    2.180550   1.094513   3.483581   8.418879   9.717423
    39  H    2.162090   2.814858   1.098366   4.959373   6.415137
    40  H    2.173563   2.696484   1.097410   4.983890   6.244089
    41  H    6.566232   7.687151   5.195262   1.097047   2.160929
    42  H    6.369669   7.286126   4.872885   1.097082   2.147671
    43  H    8.482562   9.563674   7.072474   2.155532   1.097399
    44  H    7.734663   8.802804   6.391483   2.150500   1.097014
    45  H    8.956623  10.244339   7.786041   3.483061   2.152492
    46  H    9.191091  10.468187   7.956109   3.392544   2.622859
    47  H    7.798654   9.131392   6.662817   2.784536   2.696497
                   16         17         18         19         20
    16  C    0.000000
    17  N    1.468121   0.000000
    18  H    2.775340   4.013319   0.000000
    19  H    2.836486   4.243442   1.768104   0.000000
    20  H    3.494067   4.612987   1.766606   1.768274   0.000000
    21  H    2.162560   2.599487   2.451873   3.061358   2.450918
    22  H    2.873814   2.869144   4.296827   3.876933   3.685017
    23  H    3.492483   4.089975   3.681726   3.047068   2.443562
    24  H    3.386143   4.403210   3.884609   2.321409   3.210324
    25  H    4.962652   5.444245   6.227498   4.754317   5.484069
    26  H    4.599372   4.672094   6.191321   5.088189   5.410865
    27  H    5.342378   6.073117   5.467086   4.123577   4.079163
    28  H    6.250403   6.613149   6.397467   5.549240   4.833437
    29  H    5.179100   5.248772   6.016879   5.282386   4.783511
    30  H    7.056959   6.993537   8.243542   7.222494   7.046838
    31  H    7.568558   7.488056   8.379992   7.599737   7.008775
    32  H    8.979980   9.111826   9.770878   8.588484   8.360916
    33  H    9.985068  10.295202  10.162135   9.083318   8.529175
    34  H    9.544919   9.647613   9.935364   9.048459   8.357960
    35  H    7.962394   8.553453   7.960642   6.679962   6.387138
    36  H    9.586264   9.989822  10.217436   8.739791   8.871490
    37  H    9.356566  10.004690   9.553272   8.012615   8.162981
    38  H   10.164041  10.658427  10.374651   8.995322   8.846599
    39  H    7.065282   7.406786   8.056552   6.617334   6.922589
    40  H    6.957391   7.631021   7.415906   5.827195   6.219609
    41  H    2.874318   2.861558   5.222350   4.367520   5.203782
    42  H    3.487750   4.079928   5.239427   3.950253   5.222855
    43  H    2.173972   2.663550   4.410021   3.896315   5.181860
    44  H    2.161746   3.399552   3.260996   2.339417   3.904710
    45  H    1.096572   2.069419   2.449192   3.000685   3.686922
    46  H    2.048575   1.019285   4.663260   4.866167   5.461813
    47  H    2.058694   1.018252   4.596221   4.547914   4.850100
                   21         22         23         24         25
    21  H    0.000000
    22  H    2.394341   0.000000
    23  H    2.495276   1.756043   0.000000
    24  H    3.846293   3.055583   2.462659   0.000000
    25  H    5.579883   3.754328   3.831322   2.448740   0.000000
    26  H    4.870064   2.609739   3.253535   3.063422   1.753354
    27  H    4.961668   3.648698   2.549850   2.421443   2.702708
    28  H    5.206368   3.773534   2.869337   4.250721   4.270581
    29  H    4.358361   2.400110   2.370796   3.855952   3.651637
    30  H    6.687221   4.431138   4.665397   5.257856   3.767785
    31  H    6.688785   4.736569   4.706517   5.988944   5.089857
    32  H    8.513219   6.435898   6.206274   6.588255   5.037958
    33  H    9.122360   7.453994   6.734190   7.440762   6.513540
    34  H    8.546733   6.808932   6.346371   7.461271   6.551491
    35  H    7.352859   5.870232   4.860074   5.036108   4.462237
    36  H    9.478492   7.524485   7.070384   6.630528   4.930291
    37  H    9.207171   7.579078   6.764568   6.123089   4.950313
    38  H    9.720424   8.000011   7.230137   7.147483   5.947599
    39  H    7.182353   5.119972   4.960810   4.363525   2.394113
    40  H    7.058966   5.425797   4.760649   3.746395   2.554221
    41  H    4.171904   2.719922   3.854516   3.055894   2.931422
    42  H    4.968082   3.841153   4.310036   2.442651   2.419457
    43  H    4.303943   4.211290   4.977451   3.799975   4.730403
    44  H    3.870959   4.080811   4.189139   2.660161   4.328964
    45  H    2.555842   3.879533   4.297408   4.150306   5.931445
    46  H    3.566935   3.759633   5.023802   5.003923   5.876336
    47  H    2.870481   2.265389   3.783962   4.196317   4.834103
                   26         27         28         29         30
    26  H    0.000000
    27  H    3.027558   0.000000
    28  H    3.650136   2.258520   0.000000
    29  H    2.418387   2.743951   1.751975   0.000000
    30  H    2.765028   3.806131   3.050171   2.484840   0.000000
    31  H    3.973214   4.229055   2.503218   2.426575   1.748054
    32  H    4.685865   4.582966   3.817369   4.239701   2.290996
    33  H    6.286960   5.070144   3.921104   5.121987   4.119049
    34  H    5.889347   5.234593   3.543576   4.409586   3.444574
    35  H    4.727417   2.669065   2.667124   3.988824   3.774349
    36  H    5.421411   4.795037   5.081753   5.696504   4.047291
    37  H    5.785269   4.258012   4.980814   5.929792   4.967619
    38  H    6.328841   4.957683   4.862349   5.960014   4.726893
    39  H    2.831354   3.039147   3.799510   3.749271   2.537091
    40  H    3.639494   2.338127   3.868423   4.307341   3.937522
    41  H    2.509335   4.603016   5.637021   4.289651   5.215376
    42  H    3.112987   4.342251   5.992569   5.056712   5.801473
    43  H    4.817413   6.061389   7.405299   6.268340   7.562249
    44  H    4.766441   5.071014   6.672900   5.904157   7.409065
    45  H    5.680883   6.190568   7.137387   6.170121   8.128098
    46  H    5.211391   6.836968   7.504884   6.091527   7.637827
    47  H    3.851719   5.609603   6.019904   4.520832   6.096315
                   31         32         33         34         35
    31  H    0.000000
    32  H    2.653826   0.000000
    33  H    3.524451   2.353661   0.000000
    34  H    2.339848   2.345820   1.630728   0.000000
    35  H    3.827334   3.043882   2.705248   3.519747   0.000000
    36  H    4.878145   2.462651   3.440836   4.386781   3.058744
    37  H    5.602605   3.665365   3.800788   5.043213   2.459959
    38  H    4.951053   2.810819   2.323904   3.757499   2.483818
    39  H    3.926565   2.856132   4.525386   4.766983   3.049504
    40  H    4.927900   3.938072   4.819793   5.442774   2.516619
    41  H    6.283584   7.187888   8.731660   8.323780   6.896357
    42  H    7.005153   7.390211   8.829276   8.744700   6.649708
    43  H    8.499189   9.432153  10.765646  10.470114   8.625893
    44  H    8.216271   9.030758  10.058527   9.950414   7.695259
    45  H    8.577210  10.014721  10.922924  10.510360   8.834054
    46  H    8.270652   9.780942  11.096821  10.463337   9.329539
    47  H    6.655056   8.267944   9.568171   8.868572   7.962437
                   36         37         38         39         40
    36  H    0.000000
    37  H    1.770557   0.000000
    38  H    1.772824   1.767173   0.000000
    39  H    2.645396   3.181399   3.815369   0.000000
    40  H    3.031300   2.478913   3.715038   1.758640   0.000000
    41  H    7.673723   7.828454   8.647856   5.030162   5.420032
    42  H    7.308181   7.187132   8.317129   4.799318   4.734079
    43  H    9.657580   9.501482  10.544809   7.082439   7.022937
    44  H    9.064804   8.614416   9.746297   6.648182   6.185855
    45  H   10.562830  10.231126  11.088135   8.075848   7.842561
    46  H   10.566708  10.625600  11.352994   7.940834   8.207383
    47  H    9.239929   9.391908   9.966349   6.653834   7.062400
                   41         42         43         44         45
    41  H    0.000000
    42  H    1.755622   0.000000
    43  H    2.450264   2.478658   0.000000
    44  H    3.054384   2.423537   1.749726   0.000000
    45  H    3.870284   4.280539   2.521030   2.418556   0.000000
    46  H    3.060846   4.205148   2.379266   3.571441   2.374941
    47  H    2.271292   3.787199   2.967078   3.727230   2.931488
                   46         47
    46  H    0.000000
    47  H    1.627874   0.000000
 Stoichiometry    C15H30N2
 Framework group  C1[X(C15H30N2)]
 Deg. of freedom   135
 Full point group                 C1      NOp   1
 Largest Abelian subgroup         C1      NOp   1
 Largest concise Abelian subgroup C1      NOp   1
                         Standard orientation:                         
 ---------------------------------------------------------------------
 Center     Atomic      Atomic             Coordinates (Angstroms)
 Number     Number       Type             X           Y           Z
 ---------------------------------------------------------------------
      1          6           0       -3.330381   -0.661583    2.239182
      2          6           0       -3.252596   -1.007942    0.745844
      3          6           0       -1.825628   -0.790109    0.204238
      4          6           0       -1.446559    0.691778    0.049882
      5          6           0       -0.053791    0.908927   -0.589161
      6          6           0        1.128811    0.328417    0.220647
      7          6           0        1.488340   -1.115073   -0.198453
      8          6           0        2.690571   -1.167898   -1.136074
      9          6           0        3.959529   -0.576832   -0.499393
     10          7           0        4.731133   -1.626628    0.172840
     11          6           0        3.644265    0.553657    0.509720
     12          6           0        4.806362    1.543102    0.622420
     13          6           0        2.349027    1.272483    0.115060
     14          6           0       -2.506645    1.441437   -0.777078
     15          6           0       -3.919510    1.250205   -0.226440
     16          6           0       -4.309368   -0.225740   -0.063236
     17          7           0       -4.504229   -0.852499   -1.376470
     18          1           0       -4.328044   -0.883955    2.632856
     19          1           0       -3.121345    0.393419    2.436943
     20          1           0       -2.610593   -1.257789    2.810358
     21          1           0       -3.475939   -2.081519    0.670348
     22          1           0       -1.734319   -1.288792   -0.768823
     23          1           0       -1.118345   -1.290313    0.875641
     24          1           0       -1.420736    1.147598    1.048389
     25          1           0        0.084954    1.994280   -0.687225
     26          1           0       -0.041291    0.509648   -1.611443
     27          1           0        0.835099    0.298172    1.278769
     28          1           0        1.716319   -1.699793    0.702141
     29          1           0        0.641876   -1.614629   -0.679067
     30          1           0        2.452606   -0.602241   -2.046822
     31          1           0        2.861032   -2.199985   -1.467085
     32          1           0        4.583010   -0.186503   -1.313879
     33          1           0        5.606498   -1.241602    0.524315
     34          1           0        4.986146   -2.349111   -0.499336
     35          1           0        3.488378    0.122721    1.509484
     36          1           0        5.002590    2.034616   -0.336520
     37          1           0        4.580702    2.321710    1.358902
     38          1           0        5.725164    1.041398    0.941880
     39          1           0        2.446034    1.664138   -0.906509
     40          1           0        2.180703    2.140132    0.765568
     41          1           0       -2.468891    1.109015   -1.821867
     42          1           0       -2.275933    2.513942   -0.786900
     43          1           0       -4.635694    1.761477   -0.882158
     44          1           0       -3.993057    1.754012    0.745264
     45          1           0       -5.273568   -0.277322    0.456501
     46          1           0       -5.178564   -0.311385   -1.916295
     47          1           0       -3.637694   -0.836423   -1.910975
 ---------------------------------------------------------------------
 Rotational constants (GHZ):           1.0559331           0.1813408           0.1753320
 Standard basis: 6-31G(d,p) (6D, 7F)
 There are   405 symmetry adapted cartesian basis functions of A   symmetry.
 There are   405 symmetry adapted basis functions of A   symmetry.
   405 basis functions,   686 primitive gaussians,   405 cartesian basis functions
    67 alpha electrons       67 beta electrons
       nuclear repulsion energy      1315.6906932349 Hartrees.
 NAtoms=   47 NActive=   47 NUniq=   47 SFac= 1.00D+00 NAtFMM=   60 NAOKFM=F Big=F
 Integral buffers will be    131072 words long.
 Raffenetti 2 integral format.
 Two-electron integral symmetry is turned on.
 Force inversion solution in PCM.
 ------------------------------------------------------------------------------
 Polarizable Continuum Model (PCM)
 =================================
 Model                : PCM.
 Atomic radii         : UFF (Universal Force Field).
 Polarization charges : Total charges.
 Charge compensation  : None.
 Solution method      : Matrix inversion.
 Cavity type          : Scaled VdW (van der Waals Surface) (Alpha=1.100).
 Cavity algorithm     : GePol (No added spheres)
                        Default sphere list used, NSphG=   47.
                        Lebedev-Laikov grids with approx.  5.0 points / Ang**2.
                        Smoothing algorithm: York/Karplus (Gamma=1.0000).
                        Polarization charges: spherical gaussians, with
                                              point-specific exponents (IZeta= 3).
                        Self-potential: point-specific (ISelfS= 7).
                        Self-field    : sphere-specific E.n sum rule (ISelfD= 2).
 1st derivatives      : Analytical E(r).r(x)/FMM algorithm (CHGder, D1EAlg=3).
                        Cavity 1st derivative terms included.
 2nd derivatives      : Analytical E(r).r(xy)/FMM algorithm (CHGder, D2EAlg=3).
                        Cavity 2nd derivative terms included.
 Solvent              : Water, Eps=  78.355300 Eps(inf)=   1.777849
 ------------------------------------------------------------------------------
 One-electron integrals computed using PRISM.
 NBasis=   405 RedAO= T EigKep=  1.72D-03  NBF=   405
 NBsUse=   405 1.00D-06 EigRej= -1.00D+00 NBFU=   405
 ExpMin= 1.61D-01 ExpMax= 4.17D+03 ExpMxC= 6.27D+02 IAcc=3 IRadAn=         5 AccDes= 0.00D+00
 Harris functional with IExCor=  402 and IRadAn=       5 diagonalized for initial guess.
 HarFok:  IExCor=  402 AccDes= 0.00D+00 IRadAn=         5 IDoV= 1 UseB2=F ITyADJ=14
 ICtDFT=  3500011 ScaDFX=  1.000000  1.000000  1.000000  1.000000
 FoFCou: FMM=F IPFlag=           0 FMFlag=      100000 FMFlg1=           0
         NFxFlg=           0 DoJE=T BraDBF=F KetDBF=T FulRan=T
         wScrn=  0.000000 ICntrl=       500 IOpCl=  0 I1Cent=   200000004 NGrid=           0
         NMat0=    1 NMatS0=      1 NMatT0=    0 NMatD0=    1 NMtDS0=    0 NMtDT0=    0
 Petite list used in FoFCou.
 Requested convergence on RMS density matrix=1.00D-08 within  32 cycles.
 Requested convergence on MAX density matrix=1.00D-06.
 Requested convergence on             energy=1.00D-06.
 No special actions if energy rises.
 Inv3:  Mode=1 IEnd=    21902412.
 Iteration    1 A*A^-1 deviation from unit magnitude is 3.55D-15 for    352.
 Iteration    1 A*A^-1 deviation from orthogonality  is 1.96D-15 for    966    186.
 Iteration    1 A^-1*A deviation from unit magnitude is 3.55D-15 for    352.
 Iteration    1 A^-1*A deviation from orthogonality  is 6.22D-15 for   1965   1931.
 Error on total polarization charges =  0.01242
 SCF Done:  E(RB3LYP) =  -699.221179233     A.U. after   11 cycles
            NFock= 11  Conv=0.36D-08     -V/T= 2.0096
 QCSCF skips out because SCF is already converged.
 DoSCS=F DFT=T ScalE2(SS,OS)=  1.000000  1.000000
 Range of M.O.s used for correlation:     1   405
 NBasis=   405 NAE=    67 NBE=    67 NFC=     0 NFV=     0
 NROrb=    405 NOA=    67 NOB=    67 NVA=   338 NVB=   338
 Symmetrizing basis deriv contribution to polar:
 IMax=3 JMax=2 DiffMx= 0.00D+00
 G2DrvN: will do    48 centers at a time, making    1 passes.
 Calling FoFCou, ICntrl=  3107 FMM=F I1Cent=   0 AccDes= 0.00D+00.
 NEqPCM:  Using equilibrium solvation (IEInf=0, Eps=  78.3553, EpsInf=   1.7778)
 G2PCM: DoFxE=T DoFxN=T DoGrad=T DoDP/DQ/DG/TGxP=FFFF NFrqRd=   0 IEInf=0 SqF1=F DoCFld=F IF1Alg=4.
 End of G2Drv F.D. properties file   721 does not exist.
 End of G2Drv F.D. properties file   722 does not exist.
 End of G2Drv F.D. properties file   788 does not exist.
          IDoAtm=11111111111111111111111111111111111111111111111
 NEqPCM:  Using equilibrium solvation (IEInf=0, Eps=  78.3553, EpsInf=   1.7778)
          Differentiating once with respect to nuclear coordinates.
 CalDSu exits because no D1Ps are significant.
          There are   144 degrees of freedom in the 1st order CPHF.  IDoFFX=6 NUNeed=     0.
    138 vectors produced by pass  0 Test12= 2.26D-14 1.00D-09 XBig12= 7.70D-02 4.48D-02.
 AX will form   138 AO Fock derivatives at one time.
    138 vectors produced by pass  1 Test12= 2.26D-14 1.00D-09 XBig12= 4.79D-03 1.02D-02.
    138 vectors produced by pass  2 Test12= 2.26D-14 1.00D-09 XBig12= 2.76D-05 6.36D-04.
    138 vectors produced by pass  3 Test12= 2.26D-14 1.00D-09 XBig12= 5.99D-08 3.22D-05.
    138 vectors produced by pass  4 Test12= 2.26D-14 1.00D-09 XBig12= 7.01D-11 7.76D-07.
     53 vectors produced by pass  5 Test12= 2.26D-14 1.00D-09 XBig12= 5.30D-14 2.83D-08.
      1 vectors produced by pass  6 Test12= 2.26D-14 1.00D-09 XBig12= 3.60D-17 1.45D-09.
 InvSVY:  IOpt=1 It=  1 EMax= 6.11D-16
 Solved reduced A of dimension   744 with   144 vectors.
 End of Minotr F.D. properties file   721 does not exist.
 End of Minotr F.D. properties file   722 does not exist.
 End of Minotr F.D. properties file   788 does not exist.

 **********************************************************************

            Population analysis using the SCF density.

 **********************************************************************

 Orbital symmetries:
       Occupied  (A) (A) (A) (A) (A) (A) (A) (A) (A) (A) (A) (A)
                 (A) (A) (A) (A) (A) (A) (A) (A) (A) (A) (A) (A)
                 (A) (A) (A) (A) (A) (A) (A) (A) (A) (A) (A) (A)
                 (A) (A) (A) (A) (A) (A) (A) (A) (A) (A) (A) (A)
                 (A) (A) (A) (A) (A) (A) (A) (A) (A) (A) (A) (A)
                 (A) (A) (A) (A) (A) (A) (A)
       Virtual   (A) (A) (A) (A) (A) (A) (A) (A) (A) (A) (A) (A)
                 (A) (A) (A) (A) (A) (A) (A) (A) (A) (A) (A) (A)
                 (A) (A) (A) (A) (A) (A) (A) (A) (A) (A) (A) (A)
                 (A) (A) (A) (A) (A) (A) (A) (A) (A) (A) (A) (A)
                 (A) (A) (A) (A) (A) (A) (A) (A) (A) (A) (A) (A)
                 (A) (A) (A) (A) (A) (A) (A) (A) (A) (A) (A) (A)
                 (A) (A) (A) (A) (A) (A) (A) (A) (A) (A) (A) (A)
                 (A) (A) (A) (A) (A) (A) (A) (A) (A) (A) (A) (A)
                 (A) (A) (A) (A) (A) (A) (A) (A) (A) (A) (A) (A)
                 (A) (A) (A) (A) (A) (A) (A) (A) (A) (A) (A) (A)
                 (A) (A) (A) (A) (A) (A) (A) (A) (A) (A) (A) (A)
                 (A) (A) (A) (A) (A) (A) (A) (A) (A) (A) (A) (A)
                 (A) (A) (A) (A) (A) (A) (A) (A) (A) (A) (A) (A)
                 (A) (A) (A) (A) (A) (A) (A) (A) (A) (A) (A) (A)
                 (A) (A) (A) (A) (A) (A) (A) (A) (A) (A) (A) (A)
                 (A) (A) (A) (A) (A) (A) (A) (A) (A) (A) (A) (A)
                 (A) (A) (A) (A) (A) (A) (A) (A) (A) (A) (A) (A)
                 (A) (A) (A) (A) (A) (A) (A) (A) (A) (A) (A) (A)
                 (A) (A) (A) (A) (A) (A) (A) (A) (A) (A) (A) (A)
                 (A) (A) (A) (A) (A) (A) (A) (A) (A) (A) (A) (A)
                 (A) (A) (A) (A) (A) (A) (A) (A) (A) (A) (A) (A)
                 (A) (A) (A) (A) (A) (A) (A) (A) (A) (A) (A) (A)
                 (A) (A) (A) (A) (A) (A) (A) (A) (A) (A) (A) (A)
                 (A) (A) (A) (A) (A) (A) (A) (A) (A) (A) (A) (A)
                 (A) (A) (A) (A) (A) (A) (A) (A) (A) (A) (A) (A)
                 (A) (A) (A) (A) (A) (A) (A) (A) (A) (A) (A) (A)
                 (A) (A) (A) (A) (A) (A) (A) (A) (A) (A) (A) (A)
                 (A) (A) (A) (A) (A) (A) (A) (A) (A) (A) (A) (A)
                 (A) (A)
 The electronic state is 1-A.
 Alpha  occ. eigenvalues --  -14.30324 -14.30252 -10.20138 -10.20029 -10.17924
 Alpha  occ. eigenvalues --  -10.17716 -10.17703 -10.17542 -10.17075 -10.17057
 Alpha  occ. eigenvalues --  -10.17055 -10.16937 -10.16846 -10.16838 -10.16810
 Alpha  occ. eigenvalues --  -10.16750 -10.16734  -0.88283  -0.88027  -0.82325
 Alpha  occ. eigenvalues --   -0.80492  -0.76579  -0.75503  -0.73825  -0.71336
 Alpha  occ. eigenvalues --   -0.66782  -0.66464  -0.64791  -0.60272  -0.59528
 Alpha  occ. eigenvalues --   -0.58302  -0.55761  -0.52350  -0.51366  -0.49364
 Alpha  occ. eigenvalues --   -0.48545  -0.46578  -0.46246  -0.45104  -0.44436
 Alpha  occ. eigenvalues --   -0.43988  -0.42972  -0.41870  -0.41233  -0.40499
 Alpha  occ. eigenvalues --   -0.39457  -0.39142  -0.38664  -0.37490  -0.37048
 Alpha  occ. eigenvalues --   -0.36477  -0.35811  -0.35185  -0.34826  -0.34469
 Alpha  occ. eigenvalues --   -0.33693  -0.32921  -0.32776  -0.32058  -0.30487
 Alpha  occ. eigenvalues --   -0.30322  -0.29713  -0.28983  -0.28719  -0.26930
 Alpha  occ. eigenvalues --   -0.22735  -0.22614
 Alpha virt. eigenvalues --    0.07361   0.07849   0.08726   0.10168   0.10825
 Alpha virt. eigenvalues --    0.11452   0.11945   0.12715   0.13551   0.13974
 Alpha virt. eigenvalues --    0.14300   0.14828   0.15194   0.15585   0.16313
 Alpha virt. eigenvalues --    0.16711   0.17172   0.17467   0.18188   0.18270
 Alpha virt. eigenvalues --    0.18746   0.18970   0.19136   0.20047   0.20854
 Alpha virt. eigenvalues --    0.21129   0.21488   0.21749   0.22467   0.22885
 Alpha virt. eigenvalues --    0.23575   0.23926   0.24193   0.24770   0.25601
 Alpha virt. eigenvalues --    0.26619   0.27016   0.27538   0.28493   0.29083
 Alpha virt. eigenvalues --    0.29852   0.30290   0.31007   0.31532   0.32039
 Alpha virt. eigenvalues --    0.33584   0.34845   0.35847   0.50167   0.51011
 Alpha virt. eigenvalues --    0.51629   0.52295   0.53611   0.54001   0.54590
 Alpha virt. eigenvalues --    0.55328   0.55835   0.56233   0.57315   0.58879
 Alpha virt. eigenvalues --    0.59533   0.60231   0.61434   0.62787   0.64027
 Alpha virt. eigenvalues --    0.64497   0.66071   0.66372   0.67044   0.67532
 Alpha virt. eigenvalues --    0.68667   0.69918   0.70139   0.70374   0.71072
 Alpha virt. eigenvalues --    0.72036   0.72485   0.73250   0.73809   0.75753
 Alpha virt. eigenvalues --    0.76402   0.77489   0.77709   0.79221   0.80559
 Alpha virt. eigenvalues --    0.80914   0.82086   0.82705   0.83470   0.83571
 Alpha virt. eigenvalues --    0.84779   0.84938   0.85588   0.86791   0.87491
 Alpha virt. eigenvalues --    0.87553   0.88266   0.89166   0.89256   0.89699
 Alpha virt. eigenvalues --    0.89910   0.90137   0.90864   0.91391   0.91759
 Alpha virt. eigenvalues --    0.92668   0.92894   0.93306   0.94025   0.94865
 Alpha virt. eigenvalues --    0.95534   0.95680   0.96025   0.96856   0.97110
 Alpha virt. eigenvalues --    0.98439   0.99320   0.99652   1.00549   1.01552
 Alpha virt. eigenvalues --    1.02130   1.02600   1.03820   1.06601   1.10085
 Alpha virt. eigenvalues --    1.12620   1.15100   1.15270   1.16962   1.21249
 Alpha virt. eigenvalues --    1.22356   1.23720   1.25778   1.28689   1.29870
 Alpha virt. eigenvalues --    1.31520   1.33167   1.36928   1.39777   1.44361
 Alpha virt. eigenvalues --    1.46272   1.46501   1.47742   1.50626   1.50729
 Alpha virt. eigenvalues --    1.53140   1.53797   1.54551   1.54915   1.57291
 Alpha virt. eigenvalues --    1.58599   1.61870   1.63218   1.63791   1.64847
 Alpha virt. eigenvalues --    1.68495   1.69715   1.70984   1.72366   1.74640
 Alpha virt. eigenvalues --    1.75509   1.76153   1.77581   1.80062   1.81367
 Alpha virt. eigenvalues --    1.82264   1.83485   1.83867   1.84849   1.85707
 Alpha virt. eigenvalues --    1.87289   1.87412   1.88620   1.89478   1.89611
 Alpha virt. eigenvalues --    1.90658   1.91284   1.91803   1.93534   1.94784
 Alpha virt. eigenvalues --    1.95516   1.97403   1.97538   1.98504   1.99496
 Alpha virt. eigenvalues --    1.99782   2.01461   2.01936   2.04013   2.04465
 Alpha virt. eigenvalues --    2.05450   2.05714   2.06608   2.07514   2.08931
 Alpha virt. eigenvalues --    2.10016   2.11138   2.12962   2.13228   2.13841
 Alpha virt. eigenvalues --    2.14559   2.15095   2.15222   2.15778   2.18029
 Alpha virt. eigenvalues --    2.18469   2.20177   2.21140   2.22001   2.22385
 Alpha virt. eigenvalues --    2.24522   2.24715   2.26100   2.26835   2.27701
 Alpha virt. eigenvalues --    2.28496   2.29400   2.30425   2.31121   2.32510
 Alpha virt. eigenvalues --    2.33340   2.34540   2.35952   2.36227   2.36350
 Alpha virt. eigenvalues --    2.37639   2.40184   2.40420   2.40950   2.41410
 Alpha virt. eigenvalues --    2.42538   2.43973   2.45337   2.45371   2.46952
 Alpha virt. eigenvalues --    2.47521   2.50504   2.51901   2.52528   2.53766
 Alpha virt. eigenvalues --    2.54626   2.55608   2.56812   2.58415   2.59121
 Alpha virt. eigenvalues --    2.60643   2.61221   2.62746   2.62973   2.64339
 Alpha virt. eigenvalues --    2.66393   2.67839   2.68535   2.69313   2.70648
 Alpha virt. eigenvalues --    2.71409   2.72252   2.72612   2.73133   2.74379
 Alpha virt. eigenvalues --    2.75776   2.77656   2.78261   2.79446   2.79693
 Alpha virt. eigenvalues --    2.80680   2.81480   2.81937   2.84723   2.85024
 Alpha virt. eigenvalues --    2.86412   2.87268   2.88015   2.88865   2.89876
 Alpha virt. eigenvalues --    2.90916   2.91244   2.91528   2.92206   2.92819
 Alpha virt. eigenvalues --    2.93113   2.95127   2.96190   2.97423   2.98109
 Alpha virt. eigenvalues --    2.99213   2.99809   3.00908   3.02288   3.04575
 Alpha virt. eigenvalues --    3.04929   3.21047   3.21869   3.26026   3.28672
 Alpha virt. eigenvalues --    3.29530   3.30476   3.32113   3.32853   3.33929
 Alpha virt. eigenvalues --    3.34736   3.34823   3.35948   3.36413   3.41792
 Alpha virt. eigenvalues --    3.42609   3.43230   3.44507   3.47158   3.47766
 Alpha virt. eigenvalues --    3.48821   3.49250   3.50359   3.51077   3.52572
 Alpha virt. eigenvalues --    3.53232   3.54423   3.55657   3.56735   3.58655
 Alpha virt. eigenvalues --    3.60483   4.02727   4.04391   4.27792   4.32717
 Alpha virt. eigenvalues --    4.43737   4.44740   4.48826   4.54226   4.57518
 Alpha virt. eigenvalues --    4.60224   4.64410   4.69557   4.78562   4.80391
 Alpha virt. eigenvalues --    4.83362   4.85970   4.92625
          Condensed to atoms (all electrons):
               1          2          3          4          5          6
     1  C    4.973463   0.363735  -0.051100  -0.005591   0.000105  -0.000017
     2  C    0.363735   4.922746   0.364657  -0.031773   0.004035   0.000007
     3  C   -0.051100   0.364657   4.987508   0.372250  -0.040130  -0.002745
     4  C   -0.005591  -0.031773   0.372250   4.889169   0.369657  -0.026589
     5  C    0.000105   0.004035  -0.040130   0.369657   4.985519   0.354904
     6  C   -0.000017   0.000007  -0.002745  -0.026589   0.354904   4.909136
     7  C   -0.000007   0.000120  -0.000492  -0.003397  -0.031631   0.369727
     8  C   -0.000000  -0.000002   0.000053   0.000147  -0.003275  -0.039869
     9  C   -0.000000   0.000000  -0.000003  -0.000014   0.000049  -0.017466
    10  N    0.000000   0.000000   0.000000   0.000000  -0.000002   0.000148
    11  C    0.000000  -0.000000   0.000004  -0.000100   0.004306  -0.033056
    12  C   -0.000000   0.000000   0.000000   0.000001  -0.000143   0.004217
    13  C   -0.000000  -0.000000   0.000143   0.002716  -0.034897   0.372880
    14  C   -0.001265  -0.017489  -0.044867   0.372593  -0.041241   0.004111
    15  C   -0.000739  -0.043008  -0.022628  -0.031717   0.003871  -0.000142
    16  C   -0.047169   0.381253  -0.033619  -0.016615   0.000324  -0.000001
    17  N    0.003849  -0.054373  -0.002132  -0.001645   0.000010   0.000000
    18  H    0.377348  -0.030678   0.004972   0.000095   0.000000   0.000000
    19  H    0.383326  -0.032683  -0.005909   0.001957  -0.000106  -0.000001
    20  H    0.377178  -0.028073  -0.004580  -0.000437  -0.000023  -0.000006
    21  H   -0.041462   0.372316  -0.041667   0.005009  -0.000138   0.000002
    22  H    0.006081  -0.036912   0.372419  -0.039950  -0.005146  -0.001110
    23  H   -0.008660  -0.033165   0.375522  -0.031969  -0.005249   0.002916
    24  H    0.002482  -0.004402  -0.049835   0.386142  -0.044904  -0.005665
    25  H    0.000001  -0.000149   0.005558  -0.038623   0.372282  -0.044427
    26  H    0.000002  -0.000006  -0.009086  -0.031008   0.369430  -0.038229
    27  H    0.000014  -0.000142  -0.002170  -0.005071  -0.054222   0.386778
    28  H    0.000000  -0.000003  -0.000419   0.000159   0.004489  -0.031136
    29  H    0.000004   0.000014   0.000895  -0.001021  -0.009363  -0.040702
    30  H    0.000000  -0.000000  -0.000018   0.000029   0.001914  -0.005960
    31  H    0.000000   0.000000   0.000006  -0.000004   0.000008   0.004896
    32  H    0.000000  -0.000000   0.000000   0.000000   0.000020   0.000484
    33  H   -0.000000   0.000000   0.000000  -0.000000   0.000000  -0.000011
    34  H    0.000000   0.000000   0.000000  -0.000000   0.000000   0.000002
    35  H    0.000000   0.000000  -0.000001   0.000003   0.000126  -0.003404
    36  H   -0.000000   0.000000   0.000000   0.000000   0.000001   0.000067
    37  H    0.000000  -0.000000  -0.000000  -0.000000  -0.000002   0.000000
    38  H    0.000000  -0.000000  -0.000000  -0.000000   0.000002  -0.000180
    39  H    0.000000   0.000000  -0.000016   0.000240  -0.007483  -0.038818
    40  H   -0.000000  -0.000000   0.000014  -0.000162  -0.002464  -0.030908
    41  H    0.000017  -0.000624  -0.004489  -0.042267  -0.005644   0.000095
    42  H   -0.000038   0.000258   0.005345  -0.032741  -0.005493   0.000023
    43  H    0.000034   0.004948   0.000241   0.004406  -0.000141   0.000002
    44  H   -0.000211  -0.003507   0.000104  -0.006389   0.000068   0.000002
    45  H   -0.006998  -0.040787   0.005251   0.000168   0.000007  -0.000000
    46  H   -0.000237   0.006195   0.000059   0.000001  -0.000002   0.000000
    47  H    0.000008  -0.009133   0.004476  -0.000594   0.000024  -0.000001
               7          8          9         10         11         12
     1  C   -0.000007  -0.000000  -0.000000   0.000000   0.000000  -0.000000
     2  C    0.000120  -0.000002   0.000000   0.000000  -0.000000   0.000000
     3  C   -0.000492   0.000053  -0.000003   0.000000   0.000004   0.000000
     4  C   -0.003397   0.000147  -0.000014   0.000000  -0.000100   0.000001
     5  C   -0.031631  -0.003275   0.000049  -0.000002   0.004306  -0.000143
     6  C    0.369727  -0.039869  -0.017466   0.000148  -0.033056   0.004217
     7  C    4.947991   0.367858  -0.034855  -0.002638  -0.010556   0.000267
     8  C    0.367858   4.990829   0.360823  -0.049419  -0.043220   0.005049
     9  C   -0.034855   0.360823   4.824369   0.276979   0.381150  -0.041743
    10  N   -0.002638  -0.049419   0.276979   6.866049  -0.058767  -0.001491
    11  C   -0.010556  -0.043220   0.381150  -0.058767   4.934254   0.365666
    12  C    0.000267   0.005049  -0.041743  -0.001491   0.365666   4.968581
    13  C   -0.057110  -0.009335  -0.040588   0.004188   0.360256  -0.042300
    14  C   -0.000057   0.000004   0.000000  -0.000000   0.000001  -0.000000
    15  C    0.000001  -0.000000  -0.000000   0.000000  -0.000000   0.000000
    16  C   -0.000002   0.000000  -0.000000   0.000000  -0.000000   0.000000
    17  N    0.000000   0.000000   0.000000  -0.000000   0.000000  -0.000000
    18  H    0.000000  -0.000000   0.000000  -0.000000  -0.000000   0.000000
    19  H    0.000000   0.000000  -0.000000  -0.000000   0.000000   0.000000
    20  H   -0.000006   0.000000  -0.000000   0.000000   0.000000  -0.000000
    21  H    0.000006   0.000000   0.000000  -0.000000   0.000000  -0.000000
    22  H   -0.001187   0.000004  -0.000000  -0.000000  -0.000001   0.000000
    23  H   -0.001107   0.000113  -0.000002  -0.000000   0.000008  -0.000000
    24  H   -0.000150  -0.000002   0.000000  -0.000000  -0.000013   0.000000
    25  H    0.004869   0.000058  -0.000006  -0.000000   0.000469  -0.000010
    26  H   -0.009844   0.000988   0.000092  -0.000000  -0.000266   0.000003
    27  H   -0.044366   0.004702   0.000436  -0.000010  -0.003881  -0.000048
    28  H    0.372944  -0.043698  -0.007674   0.007160  -0.000915  -0.000055
    29  H    0.381625  -0.030731   0.004881  -0.000050   0.000042  -0.000002
    30  H   -0.041641   0.370471  -0.030236   0.004049  -0.001655  -0.000111
    31  H   -0.030164   0.373031  -0.033176  -0.007537   0.004429  -0.000105
    32  H    0.005167  -0.057563   0.386749  -0.058657  -0.051441  -0.011747
    33  H   -0.000062   0.006752  -0.033929   0.334298  -0.004957   0.002403
    34  H   -0.000046  -0.006844  -0.029210   0.330457   0.006198  -0.000064
    35  H   -0.000904  -0.002702  -0.043155   0.003558   0.372687  -0.046920
    36  H    0.000010   0.000003  -0.007448  -0.000058  -0.033037   0.381630
    37  H    0.000014  -0.000189   0.004690  -0.000065  -0.028237   0.376186
    38  H    0.000003   0.000044  -0.003579   0.000556  -0.030934   0.374589
    39  H   -0.003186   0.000704  -0.007543   0.000047  -0.040322  -0.004266
    40  H    0.005704   0.000083   0.005136  -0.000118  -0.030918  -0.004822
    41  H   -0.000006  -0.000001  -0.000000  -0.000000   0.000000   0.000000
    42  H   -0.000000  -0.000000   0.000000   0.000000   0.000000  -0.000000
    43  H   -0.000000   0.000000   0.000000   0.000000   0.000000  -0.000000
    44  H    0.000000  -0.000000  -0.000000   0.000000   0.000000  -0.000000
    45  H    0.000000  -0.000000   0.000000  -0.000000  -0.000000   0.000000
    46  H   -0.000000   0.000000  -0.000000   0.000000   0.000000  -0.000000
    47  H    0.000001  -0.000000  -0.000000   0.000000   0.000000  -0.000000
              13         14         15         16         17         18
     1  C   -0.000000  -0.001265  -0.000739  -0.047169   0.003849   0.377348
     2  C   -0.000000  -0.017489  -0.043008   0.381253  -0.054373  -0.030678
     3  C    0.000143  -0.044867  -0.022628  -0.033619  -0.002132   0.004972
     4  C    0.002716   0.372593  -0.031717  -0.016615  -0.001645   0.000095
     5  C   -0.034897  -0.041241   0.003871   0.000324   0.000010   0.000000
     6  C    0.372880   0.004111  -0.000142  -0.000001   0.000000   0.000000
     7  C   -0.057110  -0.000057   0.000001  -0.000002   0.000000   0.000000
     8  C   -0.009335   0.000004  -0.000000   0.000000   0.000000  -0.000000
     9  C   -0.040588   0.000000  -0.000000  -0.000000   0.000000   0.000000
    10  N    0.004188  -0.000000   0.000000   0.000000  -0.000000  -0.000000
    11  C    0.360256   0.000001  -0.000000  -0.000000   0.000000  -0.000000
    12  C   -0.042300  -0.000000   0.000000   0.000000  -0.000000   0.000000
    13  C    4.978020  -0.000152   0.000001   0.000000   0.000000  -0.000000
    14  C   -0.000152   4.972881   0.349244  -0.034367  -0.005714   0.000036
    15  C    0.000001   0.349244   5.053866   0.367180  -0.079549  -0.000455
    16  C    0.000000  -0.034367   0.367180   4.809313   0.316864  -0.004443
    17  N    0.000000  -0.005714  -0.079549   0.316864   6.815952   0.000031
    18  H   -0.000000   0.000036  -0.000455  -0.004443   0.000031   0.615402
    19  H    0.000000   0.000219   0.001417  -0.006195   0.000028  -0.031807
    20  H   -0.000000   0.000049  -0.000055   0.004597  -0.000111  -0.030910
[...]
   178    C   12  dyz    Ryd( 3d)     0.00097
   179    C   12  dx2y2  Ryd( 3d)     0.00047
   180    C   12  dz2    Ryd( 3d)     0.00050

   181    C   13  S      Cor( 1S)     1.99929
   182    C   13  S      Val( 2S)     1.02269
   183    C   13  S      Ryd( 3S)     0.00087
   184    C   13  S      Ryd( 4S)     0.00002
   185    C   13  px     Val( 2p)     1.03384
   186    C   13  px     Ryd( 3p)     0.00217
   187    C   13  py     Val( 2p)     1.16095
   188    C   13  py     Ryd( 3p)     0.00256
   189    C   13  pz     Val( 2p)     1.23368
   190    C   13  pz     Ryd( 3p)     0.00312
   191    C   13  dxy    Ryd( 3d)     0.00070
   192    C   13  dxz    Ryd( 3d)     0.00035
   193    C   13  dyz    Ryd( 3d)     0.00083
   194    C   13  dx2y2  Ryd( 3d)     0.00068
   195    C   13  dz2    Ryd( 3d)     0.00071

   196    C   14  S      Cor( 1S)     1.99928
   197    C   14  S      Val( 2S)     1.03689
   198    C   14  S      Ryd( 3S)     0.00085
   199    C   14  S      Ryd( 4S)     0.00004
   200    C   14  px     Val( 2p)     1.02219
   201    C   14  px     Ryd( 3p)     0.00225
   202    C   14  py     Val( 2p)     1.20505
   203    C   14  py     Ryd( 3p)     0.00444
   204    C   14  pz     Val( 2p)     1.19229
   205    C   14  pz     Ryd( 3p)     0.00288
   206    C   14  dxy    Ryd( 3d)     0.00047
   207    C   14  dxz    Ryd( 3d)     0.00049
   208    C   14  dyz    Ryd( 3d)     0.00033
   209    C   14  dx2y2  Ryd( 3d)     0.00090
   210    C   14  dz2    Ryd( 3d)     0.00093

   211    C   15  S      Cor( 1S)     1.99922
   212    C   15  S      Val( 2S)     1.04421
   213    C   15  S      Ryd( 3S)     0.00069
   214    C   15  S      Ryd( 4S)     0.00003
   215    C   15  px     Val( 2p)     1.12612
   216    C   15  px     Ryd( 3p)     0.00280
   217    C   15  py     Val( 2p)     1.02242
   218    C   15  py     Ryd( 3p)     0.00210
   219    C   15  pz     Val( 2p)     1.24522
   220    C   15  pz     Ryd( 3p)     0.00310
   221    C   15  dxy    Ryd( 3d)     0.00066
   222    C   15  dxz    Ryd( 3d)     0.00062
   223    C   15  dyz    Ryd( 3d)     0.00043
   224    C   15  dx2y2  Ryd( 3d)     0.00070
   225    C   15  dz2    Ryd( 3d)     0.00078

   226    C   16  S      Cor( 1S)     1.99913
   227    C   16  S      Val( 2S)     0.97764
   228    C   16  S      Ryd( 3S)     0.00158
   229    C   16  S      Ryd( 4S)     0.00004
   230    C   16  px     Val( 2p)     1.19412
   231    C   16  px     Ryd( 3p)     0.00476
   232    C   16  py     Val( 2p)     1.00133
   233    C   16  py     Ryd( 3p)     0.00201
   234    C   16  pz     Val( 2p)     0.93645
   235    C   16  pz     Ryd( 3p)     0.00531
   236    C   16  dxy    Ryd( 3d)     0.00064
   237    C   16  dxz    Ryd( 3d)     0.00095
   238    C   16  dyz    Ryd( 3d)     0.00113
   239    C   16  dx2y2  Ryd( 3d)     0.00101
   240    C   16  dz2    Ryd( 3d)     0.00118

   241    N   17  S      Cor( 1S)     1.99931
   242    N   17  S      Val( 2S)     1.47199
   243    N   17  S      Ryd( 3S)     0.01050
   244    N   17  S      Ryd( 4S)     0.00003
   245    N   17  px     Val( 2p)     1.40755
   246    N   17  px     Ryd( 3p)     0.00102
   247    N   17  py     Val( 2p)     1.13933
   248    N   17  py     Ryd( 3p)     0.00000
   249    N   17  pz     Val( 2p)     1.34117
   250    N   17  pz     Ryd( 3p)     0.00395
   251    N   17  dxy    Ryd( 3d)     0.00037
   252    N   17  dxz    Ryd( 3d)     0.00078
   253    N   17  dyz    Ryd( 3d)     0.00073
   254    N   17  dx2y2  Ryd( 3d)     0.00006
   255    N   17  dz2    Ryd( 3d)     0.00021

   256    H   18  S      Val( 1S)     0.77008
   257    H   18  S      Ryd( 2S)     0.00447
   258    H   18  px     Ryd( 2p)     0.00030
   259    H   18  py     Ryd( 2p)     0.00010
   260    H   18  pz     Ryd( 2p)     0.00012

   261    H   19  S      Val( 1S)     0.76796
   262    H   19  S      Ryd( 2S)     0.00227
   263    H   19  px     Ryd( 2p)     0.00011
   264    H   19  py     Ryd( 2p)     0.00031
   265    H   19  pz     Ryd( 2p)     0.00011

   266    H   20  S      Val( 1S)     0.75404
   267    H   20  S      Ryd( 2S)     0.00178
   268    H   20  px     Ryd( 2p)     0.00020
   269    H   20  py     Ryd( 2p)     0.00018
   270    H   20  pz     Ryd( 2p)     0.00015

   271    H   21  S      Val( 1S)     0.74926
   272    H   21  S      Ryd( 2S)     0.01110
   273    H   21  px     Ryd( 2p)     0.00011
   274    H   21  py     Ryd( 2p)     0.00036
   275    H   21  pz     Ryd( 2p)     0.00010

   276    H   22  S      Val( 1S)     0.80272
   277    H   22  S      Ryd( 2S)     0.03179
   278    H   22  px     Ryd( 2p)     0.00011
   279    H   22  py     Ryd( 2p)     0.00014
   280    H   22  pz     Ryd( 2p)     0.00033

   281    H   23  S      Val( 1S)     0.77074
   282    H   23  S      Ryd( 2S)     0.00676
   283    H   23  px     Ryd( 2p)     0.00021
   284    H   23  py     Ryd( 2p)     0.00017
   285    H   23  pz     Ryd( 2p)     0.00016

   286    H   24  S      Val( 1S)     0.76404
   287    H   24  S      Ryd( 2S)     0.00428
   288    H   24  px     Ryd( 2p)     0.00011
   289    H   24  py     Ryd( 2p)     0.00014
   290    H   24  pz     Ryd( 2p)     0.00034

   291    H   25  S      Val( 1S)     0.76831
   292    H   25  S      Ryd( 2S)     0.00331
   293    H   25  px     Ryd( 2p)     0.00010
   294    H   25  py     Ryd( 2p)     0.00035
   295    H   25  pz     Ryd( 2p)     0.00011

   296    H   26  S      Val( 1S)     0.77319
   297    H   26  S      Ryd( 2S)     0.00517
   298    H   26  px     Ryd( 2p)     0.00011
   299    H   26  py     Ryd( 2p)     0.00013
   300    H   26  pz     Ryd( 2p)     0.00034

   301    H   27  S      Val( 1S)     0.75959
   302    H   27  S      Ryd( 2S)     0.00196
   303    H   27  px     Ryd( 2p)     0.00012
   304    H   27  py     Ryd( 2p)     0.00011
   305    H   27  pz     Ryd( 2p)     0.00036

   306    H   28  S      Val( 1S)     0.76116
   307    H   28  S      Ryd( 2S)     0.00236
   308    H   28  px     Ryd( 2p)     0.00013
   309    H   28  py     Ryd( 2p)     0.00019
   310    H   28  pz     Ryd( 2p)     0.00026

   311    H   29  S      Val( 1S)     0.75962
   312    H   29  S      Ryd( 2S)     0.00245
   313    H   29  px     Ryd( 2p)     0.00027
   314    H   29  py     Ryd( 2p)     0.00014
   315    H   29  pz     Ryd( 2p)     0.00014

   316    H   30  S      Val( 1S)     0.76355
   317    H   30  S      Ryd( 2S)     0.00138
   318    H   30  px     Ryd( 2p)     0.00011
   319    H   30  py     Ryd( 2p)     0.00018
   320    H   30  pz     Ryd( 2p)     0.00028

   321    H   31  S      Val( 1S)     0.75617
   322    H   31  S      Ryd( 2S)     0.00137
   323    H   31  px     Ryd( 2p)     0.00010
   324    H   31  py     Ryd( 2p)     0.00032
   325    H   31  pz     Ryd( 2p)     0.00013

   326    H   32  S      Val( 1S)     0.78363
   327    H   32  S      Ryd( 2S)     0.00240
   328    H   32  px     Ryd( 2p)     0.00020
   329    H   32  py     Ryd( 2p)     0.00013
   330    H   32  pz     Ryd( 2p)     0.00025

   331    H   33  S      Val( 1S)     0.61215
   332    H   33  S      Ryd( 2S)     0.00132
   333    H   33  px     Ryd( 2p)     0.00060
   334    H   33  py     Ryd( 2p)     0.00035
   335    H   33  pz     Ryd( 2p)     0.00046

   336    H   34  S      Val( 1S)     0.61018
   337    H   34  S      Ryd( 2S)     0.00141
   338    H   34  px     Ryd( 2p)     0.00046
   339    H   34  py     Ryd( 2p)     0.00043
   340    H   34  pz     Ryd( 2p)     0.00050

   341    H   35  S      Val( 1S)     0.75601
   342    H   35  S      Ryd( 2S)     0.00298
   343    H   35  px     Ryd( 2p)     0.00011
   344    H   35  py     Ryd( 2p)     0.00017
   345    H   35  pz     Ryd( 2p)     0.00031

   346    H   36  S      Val( 1S)     0.76904
   347    H   36  S      Ryd( 2S)     0.00120
   348    H   36  px     Ryd( 2p)     0.00009
   349    H   36  py     Ryd( 2p)     0.00016
   350    H   36  pz     Ryd( 2p)     0.00027

   351    H   37  S      Val( 1S)     0.76163
   352    H   37  S      Ryd( 2S)     0.00088
   353    H   37  px     Ryd( 2p)     0.00009
   354    H   37  py     Ryd( 2p)     0.00020
   355    H   37  pz     Ryd( 2p)     0.00023

   356    H   38  S      Val( 1S)     0.76737
   357    H   38  S      Ryd( 2S)     0.00091
   358    H   38  px     Ryd( 2p)     0.00029
   359    H   38  py     Ryd( 2p)     0.00014
   360    H   38  pz     Ryd( 2p)     0.00010

   361    H   39  S      Val( 1S)     0.77046
   362    H   39  S      Ryd( 2S)     0.00171
   363    H   39  px     Ryd( 2p)     0.00010
   364    H   39  py     Ryd( 2p)     0.00015
   365    H   39  pz     Ryd( 2p)     0.00032

   366    H   40  S      Val( 1S)     0.75562
   367    H   40  S      Ryd( 2S)     0.00143
   368    H   40  px     Ryd( 2p)     0.00010
   369    H   40  py     Ryd( 2p)     0.00027
   370    H   40  pz     Ryd( 2p)     0.00019

   371    H   41  S      Val( 1S)     0.80274
   372    H   41  S      Ryd( 2S)     0.03249
   373    H   41  px     Ryd( 2p)     0.00010
   374    H   41  py     Ryd( 2p)     0.00015
   375    H   41  pz     Ryd( 2p)     0.00033

   376    H   42  S      Val( 1S)     0.77274
   377    H   42  S      Ryd( 2S)     0.00997
   378    H   42  px     Ryd( 2p)     0.00011
   379    H   42  py     Ryd( 2p)     0.00034
   380    H   42  pz     Ryd( 2p)     0.00009

   381    H   43  S      Val( 1S)     0.76747
   382    H   43  S      Ryd( 2S)     0.02384
   383    H   43  px     Ryd( 2p)     0.00020
   384    H   43  py     Ryd( 2p)     0.00018
   385    H   43  pz     Ryd( 2p)     0.00016

   386    H   44  S      Val( 1S)     0.73493
   387    H   44  S      Ryd( 2S)     0.00541
   388    H   44  px     Ryd( 2p)     0.00010
   389    H   44  py     Ryd( 2p)     0.00015
   390    H   44  pz     Ryd( 2p)     0.00030

   391    H   45  S      Val( 1S)     0.73344
   392    H   45  S      Ryd( 2S)     0.01825
   393    H   45  px     Ryd( 2p)     0.00031
   394    H   45  py     Ryd( 2p)     0.00009
   395    H   45  pz     Ryd( 2p)     0.00016

   396    H   46  S      Val( 1S)     0.68041
   397    H   46  S      Ryd( 2S)     0.06565
   398    H   46  px     Ryd( 2p)     0.00044
   399    H   46  py     Ryd( 2p)     0.00042
   400    H   46  pz     Ryd( 2p)     0.00035

   401    H   47  S      Val( 1S)     0.70729
   402    H   47  S      Ryd( 2S)     0.06889
   403    H   47  px     Ryd( 2p)     0.00068
   404    H   47  py     Ryd( 2p)     0.00016
   405    H   47  pz     Ryd( 2p)     0.00036


 Summary of Natural Population Analysis:                  
                                                          
                                       Natural Population 
                Natural  -----------------------------------------------
    Atom  No    Charge         Core      Valence    Rydberg      Total
 -----------------------------------------------------------------------
      C    1   -0.69203      1.99943     4.68334    0.00927     6.69203
      C    2   -0.26373      1.99919     4.24989    0.01465     6.26373
      C    3   -0.47682      1.99926     4.46315    0.01441     6.47682
      C    4   -0.25201      1.99921     4.23897    0.01384     6.25201
      C    5   -0.45517      1.99928     4.44156    0.01433     6.45517
      C    6   -0.25077      1.99923     4.23704    0.01450     6.25077
      C    7   -0.46963      1.99931     4.45816    0.01215     6.46963
      C    8   -0.47695      1.99929     4.46445    0.01320     6.47695
      C    9   -0.05121      1.99918     4.03495    0.01708     6.05121
      N   10   -0.93145      1.99964     5.91635    0.01547     7.93145
      C   11   -0.26754      1.99919     4.25537    0.01299     6.26754
      C   12   -0.68322      1.99943     4.67537    0.00842     6.68322
      C   13   -0.46245      1.99929     4.45115    0.01201     6.46245
      C   14   -0.46929      1.99928     4.45641    0.01359     6.46929
      C   15   -0.44909      1.99922     4.43797    0.01191     6.44909
      C   16   -0.12726      1.99913     4.10953    0.01860     6.12726
      N   17   -0.37700      1.99931     5.36005    0.01764     7.37700
      H   18    0.22494      0.00000     0.77008    0.00498     0.77506
      H   19    0.22924      0.00000     0.76796    0.00281     0.77076
      H   20    0.24366      0.00000     0.75404    0.00229     0.75634
      H   21    0.23907      0.00000     0.74926    0.01167     0.76093
      H   22    0.16491      0.00000     0.80272    0.03237     0.83509
      H   23    0.22196      0.00000     0.77074    0.00730     0.77804
      H   24    0.23109      0.00000     0.76404    0.00488     0.76891
      H   25    0.22782      0.00000     0.76831    0.00387     0.77218
      H   26    0.22107      0.00000     0.77319    0.00574     0.77893
      H   27    0.23785      0.00000     0.75959    0.00256     0.76215
      H   28    0.23590      0.00000     0.76116    0.00294     0.76410
      H   29    0.23738      0.00000     0.75962    0.00300     0.76262
      H   30    0.23450      0.00000     0.76355    0.00195     0.76550
      H   31    0.24191      0.00000     0.75617    0.00192     0.75809
      H   32    0.21338      0.00000     0.78363    0.00299     0.78662
      H   33    0.38511      0.00000     0.61215    0.00274     0.61489
      H   34    0.38700      0.00000     0.61018    0.00282     0.61300
      H   35    0.24042      0.00000     0.75601    0.00357     0.75958
      H   36    0.22923      0.00000     0.76904    0.00172     0.77077
      H   37    0.23696      0.00000     0.76163    0.00140     0.76304
      H   38    0.23119      0.00000     0.76737    0.00144     0.76881
      H   39    0.22726      0.00000     0.77046    0.00228     0.77274
      H   40    0.24239      0.00000     0.75562    0.00199     0.75761
      H   41    0.16420      0.00000     0.80274    0.03306     0.83580
      H   42    0.21675      0.00000     0.77274    0.01051     0.78325
      H   43    0.20814      0.00000     0.76747    0.02439     0.79186
      H   44    0.25911      0.00000     0.73493    0.00597     0.74089
      H   45    0.24775      0.00000     0.73344    0.01881     0.75225
      H   46    0.25273      0.00000     0.68041    0.06686     0.74727
      H   47    0.22262      0.00000     0.70729    0.07009     0.77738
 =======================================================================
   * Total *   -0.00006     33.98787    99.43925    0.57294   134.00006

                                 Natural Population      
 --------------------------------------------------------
   Core                      33.98787 ( 99.9643% of  34)
   Valence                   99.43925 ( 99.4392% of 100)
   Natural Minimal Basis    133.42712 ( 99.5725% of 134)
   Natural Rydberg Basis      0.57294 (  0.4276% of 134)
 --------------------------------------------------------

    Atom  No          Natural Electron Configuration
 ----------------------------------------------------------------------------
      C    1      [core]2S( 1.10)2p( 3.59)3p( 0.01)
      C    2      [core]2S( 0.97)2p( 3.28)3p( 0.01)
      C    3      [core]2S( 1.03)2p( 3.43)3p( 0.01)
      C    4      [core]2S( 0.97)2p( 3.27)3p( 0.01)
      C    5      [core]2S( 1.02)2p( 3.42)3p( 0.01)
      C    6      [core]2S( 0.97)2p( 3.27)3p( 0.01)
      C    7      [core]2S( 1.03)2p( 3.43)3p( 0.01)
      C    8      [core]2S( 1.03)2p( 3.43)3p( 0.01)
      C    9      [core]2S( 0.95)2p( 3.08)3p( 0.01)3d( 0.01)
      N   10      [core]2S( 1.44)2p( 4.47)3p( 0.01)
      C   11      [core]2S( 0.97)2p( 3.29)3p( 0.01)
      C   12      [core]2S( 1.10)2p( 3.58)3p( 0.01)
      C   13      [core]2S( 1.02)2p( 3.43)3p( 0.01)
      C   14      [core]2S( 1.04)2p( 3.42)3p( 0.01)
      C   15      [core]2S( 1.04)2p( 3.39)3p( 0.01)
      C   16      [core]2S( 0.98)2p( 3.13)3p( 0.01)
      N   17      [core]2S( 1.47)2p( 3.89)3S( 0.01)
      H   18            1S( 0.77)
      H   19            1S( 0.77)
      H   20            1S( 0.75)
      H   21            1S( 0.75)2S( 0.01)
      H   22            1S( 0.80)2S( 0.03)
      H   23            1S( 0.77)2S( 0.01)
      H   24            1S( 0.76)
      H   25            1S( 0.77)
      H   26            1S( 0.77)2S( 0.01)
      H   27            1S( 0.76)
      H   28            1S( 0.76)
      H   29            1S( 0.76)
      H   30            1S( 0.76)
      H   31            1S( 0.76)
      H   32            1S( 0.78)
      H   33            1S( 0.61)
      H   34            1S( 0.61)
      H   35            1S( 0.76)
      H   36            1S( 0.77)
      H   37            1S( 0.76)
      H   38            1S( 0.77)
      H   39            1S( 0.77)
      H   40            1S( 0.76)
      H   41            1S( 0.80)2S( 0.03)
      H   42            1S( 0.77)2S( 0.01)
      H   43            1S( 0.77)2S( 0.02)
      H   44            1S( 0.73)2S( 0.01)
      H   45            1S( 0.73)2S( 0.02)
      H   46            1S( 0.68)2S( 0.07)
      H   47            1S( 0.71)2S( 0.07)


 NBO analysis skipped by request.
 1\1\GINC-DRG2-W002\SP\RB3LYP TD-FC\6-31G(d,p)\C15H30N2\QDUEZ\18-Jul-20
 24\0\\# TD(NStates=10, Root=1) B3LYP/6-31G** SCRF=(Solvent=water) volu
 me pop=NPA density=current Geom=AllCheck Guess=Read\\IGSBHTZEJMPDSZ-IW
 TMDLJTSA-N_conf_1\\0,1\C,0,-3.3634188901,-2.2157056824,-0.5993435613\C
 ,0,-3.2962654442,-0.7419991287,-1.0328138615\C,0,-1.8791945254,-0.1457
 223368,-0.852717256\C,0,-1.4930755099,0.1173360773,0.6166392059\C,0,-0
 .0991395411,0.7511967198,0.7992680931\C,0,1.1097065321,-0.0842015371,0
 .3142379945\C,0,1.5068816354,0.1861885674,-1.1681488977\C,0,2.68786002
 41,1.1578091098,-1.272190888\C,0,3.971264724,0.5724590479,-0.643253877
 8\N,0,4.6721764017,-0.2523383189,-1.6483573786\C,0,3.651395621,-0.3019
 170112,0.5996890647\C,0,4.8067569677,-0.3070420885,1.6092579931\C,0,2.
 3290988629,0.1443599659,1.2410663812\C,0,-2.5736856904,0.9855334362,1.
 2904144345\C,0,-3.9784775847,0.3820163007,1.1506961507\C,0,-4.36554175
 92,0.1222690536,-0.3222978806\N,0,-4.6126254125,1.349599029,-1.1086018
 109\H,0,-4.3566245447,-2.6347147523,-0.7949519391\H,0,-3.1534632898,-2
 .3513453244,0.4661883952\H,0,-2.6335059621,-2.814152128,-1.1553992199\
 H,0,-3.5338254922,-0.7080055943,-2.1041525684\H,0,-1.8105916755,0.8019
 187465,-1.4068757657\H,0,-1.1545202983,-0.820326789,-1.3225515321\H,0,
 -1.473349479,-0.8505533312,1.1411935963\H,0,0.0214177904,0.9477218915,
 1.8736861631\H,0,-0.078241162,1.7386866059,0.3136539395\H,0,0.83630708
 75,-1.1454969245,0.3988752885\H,0,1.7931704524,-0.753494474,-1.6549862
 506\H,0,0.6522948986,0.5765878774,-1.7282240373\H,0,2.4354110895,2.100
 1962786,-0.7702043606\H,0,2.8846720462,1.4143259633,-2.3204695073\H,0,
 4.5947347199,1.4185656698,-0.3035685687\H,0,5.4875853655,-0.685131371,
 -1.2163775827\H,0,5.0497424913,0.3593094554,-2.3710111282\H,0,3.514247
 2934,-1.3294705007,0.2320458896\H,0,4.9445312831,0.6878617787,2.049479
 9387\H,0,4.6149513226,-1.0100327379,2.4271168102\H,0,5.755781996,-0.59
 54520556,1.1428037454\H,0,2.4033150782,1.2105256389,1.501481979\H,0,2.
 1696032803,-0.3849833535,2.1886210645\H,0,-2.5557121509,1.9895469736,0
 .8412251201\H,0,-2.3325343611,1.1256565474,2.3514531366\H,0,-4.7251291
 25,1.0436651074,1.6085977575\H,0,-4.0227075433,-0.5623311958,1.7094965
 457\H,0,-5.3120306339,-0.434767122,-0.3329986877\H,0,-5.3146989583,1.9
 097414401,-0.626176618\H,0,-3.7745479303,1.9287550143,-1.1115155087\\V
 ersion=ES64L-G16RevA.03\State=1-A\HF=-699.2255603\RMSD=1.273e-09\Dipol
 e=-0.5214908,-0.0382488,0.1651189\Quadrupole=12.5980775,-6.4643452,-6.
 1337324,3.7465241,1.1001117,-2.9176192\PG=C01 [X(C15H30N2)]\\@


 THERE'S A SUCKER BORN EVERY MINUTE

              -- PHINEAS TAYLOR (P.T.) BARNUM
 Job cpu time:       0 days  2 hours  8 minutes 14.7 seconds.
 Elapsed time:       0 days  0 hours 42 minutes 51.7 seconds.
 File lengths (MBytes):  RWF=   1264 Int=      0 D2E=      0 Chk=     82 Scr=      1
 Normal termination of Gaussian 16 at Thu Jul 18 02:42:14 2024.
