 Entering Gaussian System, Link 0=g16
 Initial command:
 /opt/sw/arch/manual/gaussian/G16_A03/g16/l1.exe "/scratch/1030824.jesse.materianova.be/Gau-76064.inp" -scrdir="/scratch/1030824.jesse.materianova.be/"
 Entering Link 1 = /opt/sw/arch/manual/gaussian/G16_A03/g16/l1.exe PID=     76076.
  
 Copyright (c) 1988,1990,1992,1993,1995,1998,2003,2009,2016,
            Gaussian, Inc.  All Rights Reserved.
  
 This is part of the Gaussian(R) 16 program.  It is based on
 the Gaussian(R) 09 system (copyright 2009, Gaussian, Inc.),
 the Gaussian(R) 03 system (copyright 2003, Gaussian, Inc.),
 the Gaussian(R) 98 system (copyright 1998, Gaussian, Inc.),
 the Gaussian(R) 94 system (copyright 1995, Gaussian, Inc.),
 the Gaussian 92(TM) system (copyright 1992, Gaussian, Inc.),
 the Gaussian 90(TM) system (copyright 1990, Gaussian, Inc.),
 the Gaussian 88(TM) system (copyright 1988, Gaussian, Inc.),
 the Gaussian 86(TM) system (copyright 1986, Carnegie Mellon
 University), and the Gaussian 82(TM) system (copyright 1983,
 Carnegie Mellon University). Gaussian is a federally registered
 trademark of Gaussian, Inc.
  
 This software contains proprietary and confidential information,
 including trade secrets, belonging to Gaussian, Inc.
  
 This software is provided under written license and may be
 used, copied, transmitted, or stored only in accord with that
 written license.
  
 The following legend is applicable only to US Government
 contracts under FAR:
  
                    RESTRICTED RIGHTS LEGEND
  
 Use, reproduction and disclosure by the US Government is
 subject to restrictions as set forth in subparagraphs (a)
 and (c) of the Commercial Computer Software - Restricted
 Rights clause in FAR 52.227-19.
  
 Gaussian, Inc.
 340 Quinnipiac St., Bldg. 40, Wallingford CT 06492
  
  
 ---------------------------------------------------------------
 Warning -- This program may not be used in any manner that
 competes with the business of Gaussian, Inc. or will provide
 assistance to any competitor of Gaussian, Inc.  The licensee
 of this program is prohibited from giving any competitor of
 Gaussian, Inc. access to this program.  By using this program,
 the user acknowledges that Gaussian, Inc. is engaged in the
 business of creating and licensing software in the field of
 computational chemistry and represents and warrants to the
 licensee that it is not a competitor of Gaussian, Inc. and that
 it will not use this program in any manner prohibited above.
 ---------------------------------------------------------------
  

 Cite this work as:
 Gaussian 16, Revision A.03,
 M. J. Frisch, G. W. Trucks, H. B. Schlegel, G. E. Scuseria, 
 M. A. Robb, J. R. Cheeseman, G. Scalmani, V. Barone, 
 G. A. Petersson, H. Nakatsuji, X. Li, M. Caricato, A. V. Marenich, 
 J. Bloino, B. G. Janesko, R. Gomperts, B. Mennucci, H. P. Hratchian, 
 J. V. Ortiz, A. F. Izmaylov, J. L. Sonnenberg, D. Williams-Young, 
 F. Ding, F. Lipparini, F. Egidi, J. Goings, B. Peng, A. Petrone, 
 T. Henderson, D. Ranasinghe, V. G. Zakrzewski, J. Gao, N. Rega, 
 G. Zheng, W. Liang, M. Hada, M. Ehara, K. Toyota, R. Fukuda, 
 J. Hasegawa, M. Ishida, T. Nakajima, Y. Honda, O. Kitao, H. Nakai, 
 T. Vreven, K. Throssell, J. A. Montgomery, Jr., J. E. Peralta, 
 F. Ogliaro, M. J. Bearpark, J. J. Heyd, E. N. Brothers, K. N. Kudin, 
 V. N. Staroverov, T. A. Keith, R. Kobayashi, J. Normand, 
 K. Raghavachari, A. P. Rendell, J. C. Burant, S. S. Iyengar, 
 J. Tomasi, M. Cossi, J. M. Millam, M. Klene, C. Adamo, R. Cammi, 
 J. W. Ochterski, R. L. Martin, K. Morokuma, O. Farkas, 
 J. B. Foresman, and D. J. Fox, Gaussian, Inc., Wallingford CT, 2016.
 
 ******************************************
 Gaussian 16:  EM64L-G16RevA.03 25-Dec-2016
                 9-Jul-2024 
 ******************************************
 %nprocshared=7
 Will use up to    7 processors via shared memory.
 %mem=14GB
 %Chk=QFTYSVGGYOXFRQ-UHFFFAOYSA-N_conf_0_0.chk
 -------------------------------------------------------
 # opt=CalcFc B3LYP/6-31G** SCRF=(Solvent=water) scf=xqc
 -------------------------------------------------------
 1/10=4,18=20,19=15,26=3,38=1/1,3;
 2/9=110,12=2,17=6,18=5,40=1/2;
 3/5=1,6=6,7=101,11=2,25=1,30=1,70=2201,71=2,72=1,74=-5,140=1/1,2,3;
 4//1;
 5/5=2,8=3,13=1,38=5,53=1/2,8;
 8/6=4,10=90,11=11/1;
 11/6=1,8=1,9=11,15=111,16=1/1,2,10;
 10/6=1,13=1/2;
 6/7=2,8=2,9=2,10=2,28=1/1;
 7/10=1,18=20,25=1/1,2,3,16;
 1/10=4,18=20,19=15,26=3/3(2);
 2/9=110/2;
 99//99;
 2/9=110/2;
 3/5=1,6=6,7=101,11=2,25=1,30=1,70=2205,71=1,72=1,74=-5/1,2,3;
 4/5=5,16=3,69=1/1;
 5/5=2,8=3,13=1,38=5,53=1/2,8;
 7//1,2,3,16;
 1/18=20,19=15,26=3/3(-5);
 2/9=110/2;
 6/7=2,8=2,9=2,10=2,19=2,28=1/1;
 99/9=1/99;
 ----------------------------------
 QFTYSVGGYOXFRQ-UHFFFAOYSA-N_conf_0
 ----------------------------------
 Symbolic Z-matrix:
 Charge =  0 Multiplicity = 1
 N                     7.42586  -0.44282   0.18517 
 C                     6.04386  -0.02947   0.40544 
 C                     5.3953    0.36694  -0.92044 
 C                     3.97314   0.91322  -0.75941 
 C                     2.97341  -0.13138  -0.25795 
 C                     1.55076   0.43468  -0.22373 
 C                     0.55142  -0.61025   0.27792 
 C                    -0.87053  -0.06483   0.44776 
 C                    -1.5391    0.30996  -0.8776 
 C                    -2.9609    0.85609  -0.708 
 C                    -3.96149  -0.1889   -0.20711 
 C                    -5.38424   0.3805   -0.17463 
 C                    -6.43208  -0.64577   0.26012 
 N                    -6.22366  -1.09041   1.6328 
 H                     7.44716  -1.24944  -0.43757 
 H                     7.83006  -0.75275   1.06791 
 H                     5.49943  -0.85581   0.87274 
 H                     6.0312    0.81727   1.09973 
 H                     6.00402   1.14301  -1.40246 
 H                     5.38137  -0.49161  -1.60376 
 H                     3.63958   1.28824  -1.73505 
 H                     3.98426   1.7728   -0.07822 
 H                     3.00187  -1.01165  -0.91137 
 H                     3.25075  -0.46342   0.74865 
 H                     1.27432   0.76685  -1.23036 
 H                     1.52236   1.31487   0.42978 
 H                     0.5375   -1.46865  -0.40467 
 H                     0.8891   -0.98708   1.25153 
 H                    -0.85345   0.80558   1.11462 
 H                    -1.462    -0.838     0.95061 
 H                    -1.55655  -0.56057  -1.54429 
 H                    -0.94717   1.08272  -1.38056 
 H                    -3.29767   1.2336   -1.68165 
 H                    -2.9469    1.71405  -0.02485 
 H                    -3.6782   -0.52186   0.79671 
 H                    -3.93424  -1.06727  -0.86306 
 H                    -5.41855   1.25141   0.49216 
 H                    -5.65107   0.74075  -1.17598 
 H                    -7.42902  -0.19892   0.17796 
 H                    -6.40602  -1.51333  -0.40798 
 H                    -6.98016  -1.71709   1.90398 
 H                    -6.2737   -0.29127   2.26333 
 

 GradGradGradGradGradGradGradGradGradGradGradGradGradGradGradGradGradGrad
 Berny optimization.
 Initialization pass.
                           ----------------------------
                           !    Initial Parameters    !
                           ! (Angstroms and Degrees)  !
 --------------------------                            --------------------------
 ! Name  Definition              Value          Derivative Info.                !
 --------------------------------------------------------------------------------
 ! R1    R(1,2)                  1.4592         calculate D2E/DX2 analytically  !
 ! R2    R(1,15)                 1.0193         calculate D2E/DX2 analytically  !
 ! R3    R(1,16)                 1.0192         calculate D2E/DX2 analytically  !
 ! R4    R(2,3)                  1.5283         calculate D2E/DX2 analytically  !
 ! R5    R(2,17)                 1.0944         calculate D2E/DX2 analytically  !
 ! R6    R(2,18)                 1.0951         calculate D2E/DX2 analytically  !
 ! R7    R(3,4)                  1.532          calculate D2E/DX2 analytically  !
 ! R8    R(3,19)                 1.0978         calculate D2E/DX2 analytically  !
 ! R9    R(3,20)                 1.0974         calculate D2E/DX2 analytically  !
 ! R10   R(4,5)                  1.5304         calculate D2E/DX2 analytically  !
 ! R11   R(4,21)                 1.0972         calculate D2E/DX2 analytically  !
 ! R12   R(4,22)                 1.0968         calculate D2E/DX2 analytically  !
 ! R13   R(5,6)                  1.5315         calculate D2E/DX2 analytically  !
 ! R14   R(5,23)                 1.0967         calculate D2E/DX2 analytically  !
 ! R15   R(5,24)                 1.0956         calculate D2E/DX2 analytically  !
 ! R16   R(6,7)                  1.5304         calculate D2E/DX2 analytically  !
 ! R17   R(6,25)                 1.0955         calculate D2E/DX2 analytically  !
 ! R18   R(6,26)                 1.0966         calculate D2E/DX2 analytically  !
 ! R19   R(7,8)                  1.5324         calculate D2E/DX2 analytically  !
 ! R20   R(7,27)                 1.0968         calculate D2E/DX2 analytically  !
 ! R21   R(7,28)                 1.0972         calculate D2E/DX2 analytically  !
 ! R22   R(8,9)                  1.531          calculate D2E/DX2 analytically  !
 ! R23   R(8,29)                 1.0966         calculate D2E/DX2 analytically  !
 ! R24   R(8,30)                 1.0957         calculate D2E/DX2 analytically  !
 ! R25   R(9,10)                 1.5325         calculate D2E/DX2 analytically  !
 ! R26   R(9,31)                 1.0966         calculate D2E/DX2 analytically  !
 ! R27   R(9,32)                 1.0957         calculate D2E/DX2 analytically  !
 ! R28   R(10,11)                1.531          calculate D2E/DX2 analytically  !
 ! R29   R(10,33)                1.0972         calculate D2E/DX2 analytically  !
 ! R30   R(10,34)                1.0968         calculate D2E/DX2 analytically  !
 ! R31   R(11,12)                1.5328         calculate D2E/DX2 analytically  !
 ! R32   R(11,35)                1.0949         calculate D2E/DX2 analytically  !
 ! R33   R(11,36)                1.0966         calculate D2E/DX2 analytically  !
 ! R34   R(12,13)                1.5298         calculate D2E/DX2 analytically  !
 ! R35   R(12,37)                1.0974         calculate D2E/DX2 analytically  !
 ! R36   R(12,38)                1.0971         calculate D2E/DX2 analytically  !
 ! R37   R(13,14)                1.4579         calculate D2E/DX2 analytically  !
 ! R38   R(13,39)                1.0956         calculate D2E/DX2 analytically  !
 ! R39   R(13,40)                1.0953         calculate D2E/DX2 analytically  !
 ! R40   R(14,41)                1.0191         calculate D2E/DX2 analytically  !
 ! R41   R(14,42)                1.0192         calculate D2E/DX2 analytically  !
 ! A1    A(2,1,15)             109.6454         calculate D2E/DX2 analytically  !
 ! A2    A(2,1,16)             109.3304         calculate D2E/DX2 analytically  !
 ! A3    A(15,1,16)            106.2747         calculate D2E/DX2 analytically  !
 ! A4    A(1,2,3)              110.147          calculate D2E/DX2 analytically  !
 ! A5    A(1,2,17)             108.7675         calculate D2E/DX2 analytically  !
 ! A6    A(1,2,18)             109.0068         calculate D2E/DX2 analytically  !
 ! A7    A(3,2,17)             110.8053         calculate D2E/DX2 analytically  !
 ! A8    A(3,2,18)             110.156          calculate D2E/DX2 analytically  !
 ! A9    A(17,2,18)            107.901          calculate D2E/DX2 analytically  !
 ! A10   A(2,3,4)              113.2817         calculate D2E/DX2 analytically  !
 ! A11   A(2,3,19)             109.2066         calculate D2E/DX2 analytically  !
 ! A12   A(2,3,20)             110.0393         calculate D2E/DX2 analytically  !
 ! A13   A(4,3,19)             107.9879         calculate D2E/DX2 analytically  !
 ! A14   A(4,3,20)             109.4303         calculate D2E/DX2 analytically  !
 ! A15   A(19,3,20)            106.661          calculate D2E/DX2 analytically  !
 ! A16   A(3,4,5)              113.4203         calculate D2E/DX2 analytically  !
 ! A17   A(3,4,21)             108.0983         calculate D2E/DX2 analytically  !
 ! A18   A(3,4,22)             109.5924         calculate D2E/DX2 analytically  !
 ! A19   A(5,4,21)             109.031          calculate D2E/DX2 analytically  !
 ! A20   A(5,4,22)             109.7583         calculate D2E/DX2 analytically  !
 ! A21   A(21,4,22)            106.7068         calculate D2E/DX2 analytically  !
 ! A22   A(4,5,6)              111.2142         calculate D2E/DX2 analytically  !
 ! A23   A(4,5,23)             109.6155         calculate D2E/DX2 analytically  !
 ! A24   A(4,5,24)             110.0317         calculate D2E/DX2 analytically  !
 ! A25   A(6,5,23)             109.5178         calculate D2E/DX2 analytically  !
 ! A26   A(6,5,24)             109.0642         calculate D2E/DX2 analytically  !
 ! A27   A(23,5,24)            107.3121         calculate D2E/DX2 analytically  !
 ! A28   A(5,6,7)              111.1943         calculate D2E/DX2 analytically  !
 ! A29   A(5,6,25)             109.0228         calculate D2E/DX2 analytically  !
 ! A30   A(5,6,26)             109.5133         calculate D2E/DX2 analytically  !
 ! A31   A(7,6,25)             110.0874         calculate D2E/DX2 analytically  !
 ! A32   A(7,6,26)             109.6195         calculate D2E/DX2 analytically  !
 ! A33   A(25,6,26)            107.3187         calculate D2E/DX2 analytically  !
 ! A34   A(6,7,8)              113.5296         calculate D2E/DX2 analytically  !
 ! A35   A(6,7,27)             109.7951         calculate D2E/DX2 analytically  !
 ! A36   A(6,7,28)             108.9278         calculate D2E/DX2 analytically  !
 ! A37   A(8,7,27)             109.6189         calculate D2E/DX2 analytically  !
 ! A38   A(8,7,28)             108.027          calculate D2E/DX2 analytically  !
 ! A39   A(27,7,28)            106.699          calculate D2E/DX2 analytically  !
 ! A40   A(7,8,9)              113.3528         calculate D2E/DX2 analytically  !
 ! A41   A(7,8,29)             109.5999         calculate D2E/DX2 analytically  !
 ! A42   A(7,8,30)             107.4947         calculate D2E/DX2 analytically  !
 ! A43   A(9,8,29)             109.8107         calculate D2E/DX2 analytically  !
 ! A44   A(9,8,30)             109.5301         calculate D2E/DX2 analytically  !
 ! A45   A(29,8,30)            106.8229         calculate D2E/DX2 analytically  !
 ! A46   A(8,9,10)             113.3641         calculate D2E/DX2 analytically  !
 ! A47   A(8,9,31)             109.8098         calculate D2E/DX2 analytically  !
 ! A48   A(8,9,32)             109.5183         calculate D2E/DX2 analytically  !
 ! A49   A(10,9,31)            109.5978         calculate D2E/DX2 analytically  !
 ! A50   A(10,9,32)            107.4988         calculate D2E/DX2 analytically  !
 ! A51   A(31,9,32)            106.8216         calculate D2E/DX2 analytically  !
 ! A52   A(9,10,11)            113.5341         calculate D2E/DX2 analytically  !
 ! A53   A(9,10,33)            108.0083         calculate D2E/DX2 analytically  !
 ! A54   A(9,10,34)            109.6244         calculate D2E/DX2 analytically  !
 ! A55   A(11,10,33)           108.9388         calculate D2E/DX2 analytically  !
 ! A56   A(11,10,34)           109.7841         calculate D2E/DX2 analytically  !
 ! A57   A(33,10,34)           106.7081         calculate D2E/DX2 analytically  !
 ! A58   A(10,11,12)           111.0996         calculate D2E/DX2 analytically  !
 ! A59   A(10,11,35)           109.7805         calculate D2E/DX2 analytically  !
 ! A60   A(10,11,36)           109.559          calculate D2E/DX2 analytically  !
 ! A61   A(12,11,35)           109.4933         calculate D2E/DX2 analytically  !
 ! A62   A(12,11,36)           109.4684         calculate D2E/DX2 analytically  !
 ! A63   A(35,11,36)           107.3619         calculate D2E/DX2 analytically  !
 ! A64   A(11,12,13)           113.1162         calculate D2E/DX2 analytically  !
 ! A65   A(11,12,37)           109.6767         calculate D2E/DX2 analytically  !
 ! A66   A(11,12,38)           109.1707         calculate D2E/DX2 analytically  !
 ! A67   A(13,12,37)           109.7741         calculate D2E/DX2 analytically  !
 ! A68   A(13,12,38)           108.2442         calculate D2E/DX2 analytically  !
 ! A69   A(37,12,38)           106.6413         calculate D2E/DX2 analytically  !
 ! A70   A(12,13,14)           111.9788         calculate D2E/DX2 analytically  !
 ! A71   A(12,13,39)           109.1694         calculate D2E/DX2 analytically  !
 ! A72   A(12,13,40)           109.9822         calculate D2E/DX2 analytically  !
 ! A73   A(14,13,39)           108.9717         calculate D2E/DX2 analytically  !
 ! A74   A(14,13,40)           109.2283         calculate D2E/DX2 analytically  !
 ! A75   A(39,13,40)           107.3957         calculate D2E/DX2 analytically  !
 ! A76   A(13,14,41)           109.3882         calculate D2E/DX2 analytically  !
 ! A77   A(13,14,42)           109.6542         calculate D2E/DX2 analytically  !
 ! A78   A(41,14,42)           106.326          calculate D2E/DX2 analytically  !
 ! D1    D(15,1,2,3)           -60.7738         calculate D2E/DX2 analytically  !
 ! D2    D(15,1,2,17)           60.8441         calculate D2E/DX2 analytically  !
 ! D3    D(15,1,2,18)          178.257          calculate D2E/DX2 analytically  !
 ! D4    D(16,1,2,3)          -176.9137         calculate D2E/DX2 analytically  !
 ! D5    D(16,1,2,17)          -55.2958         calculate D2E/DX2 analytically  !
 ! D6    D(16,1,2,18)           62.1171         calculate D2E/DX2 analytically  !
 ! D7    D(1,2,3,4)           -175.7082         calculate D2E/DX2 analytically  !
 ! D8    D(1,2,3,19)           -55.3167         calculate D2E/DX2 analytically  !
 ! D9    D(1,2,3,20)            61.4423         calculate D2E/DX2 analytically  !
 ! D10   D(17,2,3,4)            63.8936         calculate D2E/DX2 analytically  !
 ! D11   D(17,2,3,19)         -175.7149         calculate D2E/DX2 analytically  !
 ! D12   D(17,2,3,20)          -58.9559         calculate D2E/DX2 analytically  !
 ! D13   D(18,2,3,4)           -55.4297         calculate D2E/DX2 analytically  !
 ! D14   D(18,2,3,19)           64.9618         calculate D2E/DX2 analytically  !
 ! D15   D(18,2,3,20)         -178.2792         calculate D2E/DX2 analytically  !
 ! D16   D(2,3,4,5)            -66.122          calculate D2E/DX2 analytically  !
 ! D17   D(2,3,4,21)           172.8527         calculate D2E/DX2 analytically  !
 ! D18   D(2,3,4,22)            56.9178         calculate D2E/DX2 analytically  !
 ! D19   D(19,3,4,5)           172.7968         calculate D2E/DX2 analytically  !
 ! D20   D(19,3,4,21)           51.7715         calculate D2E/DX2 analytically  !
 ! D21   D(19,3,4,22)          -64.1634         calculate D2E/DX2 analytically  !
 ! D22   D(20,3,4,5)            57.0637         calculate D2E/DX2 analytically  !
 ! D23   D(20,3,4,21)          -63.9616         calculate D2E/DX2 analytically  !
 ! D24   D(20,3,4,22)         -179.8965         calculate D2E/DX2 analytically  !
 ! D25   D(3,4,5,6)           -175.3888         calculate D2E/DX2 analytically  !
 ! D26   D(3,4,5,23)           -54.137          calculate D2E/DX2 analytically  !
 ! D27   D(3,4,5,24)            63.6503         calculate D2E/DX2 analytically  !
 ! D28   D(21,4,5,6)           -54.8898         calculate D2E/DX2 analytically  !
 ! D29   D(21,4,5,23)           66.3621         calculate D2E/DX2 analytically  !
 ! D30   D(21,4,5,24)         -175.8507         calculate D2E/DX2 analytically  !
 ! D31   D(22,4,5,6)            61.6627         calculate D2E/DX2 analytically  !
 ! D32   D(22,4,5,23)         -177.0855         calculate D2E/DX2 analytically  !
 ! D33   D(22,4,5,24)          -59.2982         calculate D2E/DX2 analytically  !
 ! D34   D(4,5,6,7)           -179.9948         calculate D2E/DX2 analytically  !
 ! D35   D(4,5,6,25)            58.4488         calculate D2E/DX2 analytically  !
 ! D36   D(4,5,6,26)           -58.6967         calculate D2E/DX2 analytically  !
 ! D37   D(23,5,6,7)            58.6962         calculate D2E/DX2 analytically  !
 ! D38   D(23,5,6,25)          -62.8603         calculate D2E/DX2 analytically  !
 ! D39   D(23,5,6,26)          179.9943         calculate D2E/DX2 analytically  !
 ! D40   D(24,5,6,7)           -58.4677         calculate D2E/DX2 analytically  !
 ! D41   D(24,5,6,25)          179.9759         calculate D2E/DX2 analytically  !
 ! D42   D(24,5,6,26)           62.8304         calculate D2E/DX2 analytically  !
 ! D43   D(5,6,7,8)            175.0576         calculate D2E/DX2 analytically  !
 ! D44   D(5,6,7,27)           -61.8541         calculate D2E/DX2 analytically  !
 ! D45   D(5,6,7,28)            54.6506         calculate D2E/DX2 analytically  !
 ! D46   D(25,6,7,8)           -64.0092         calculate D2E/DX2 analytically  !
 ! D47   D(25,6,7,27)           59.079          calculate D2E/DX2 analytically  !
 ! D48   D(25,6,7,28)          175.5837         calculate D2E/DX2 analytically  !
 ! D49   D(26,6,7,8)            53.8216         calculate D2E/DX2 analytically  !
 ! D50   D(26,6,7,27)          176.9099         calculate D2E/DX2 analytically  !
 ! D51   D(26,6,7,28)          -66.5854         calculate D2E/DX2 analytically  !
 ! D52   D(6,7,8,9)             67.3621         calculate D2E/DX2 analytically  !
 ! D53   D(6,7,8,29)           -55.7037         calculate D2E/DX2 analytically  !
 ! D54   D(6,7,8,30)          -171.4476         calculate D2E/DX2 analytically  !
 ! D55   D(27,7,8,9)           -55.8228         calculate D2E/DX2 analytically  !
 ! D56   D(27,7,8,29)         -178.8886         calculate D2E/DX2 analytically  !
 ! D57   D(27,7,8,30)           65.3674         calculate D2E/DX2 analytically  !
 ! D58   D(28,7,8,9)          -171.7231         calculate D2E/DX2 analytically  !
 ! D59   D(28,7,8,29)           65.2111         calculate D2E/DX2 analytically  !
 ! D60   D(28,7,8,30)          -50.5328         calculate D2E/DX2 analytically  !
 ! D61   D(7,8,9,10)          -179.9717         calculate D2E/DX2 analytically  !
 ! D62   D(7,8,9,31)            57.0741         calculate D2E/DX2 analytically  !
 ! D63   D(7,8,9,32)           -59.9289         calculate D2E/DX2 analytically  !
 ! D64   D(29,8,9,10)          -57.0221         calculate D2E/DX2 analytically  !
 ! D65   D(29,8,9,31)         -179.9763         calculate D2E/DX2 analytically  !
 ! D66   D(29,8,9,32)           63.0206         calculate D2E/DX2 analytically  !
 ! D67   D(30,8,9,10)           59.9899         calculate D2E/DX2 analytically  !
 ! D68   D(30,8,9,31)          -62.9643         calculate D2E/DX2 analytically  !
 ! D69   D(30,8,9,32)         -179.9673         calculate D2E/DX2 analytically  !
 ! D70   D(8,9,10,11)          -67.4137         calculate D2E/DX2 analytically  !
 ! D71   D(8,9,10,33)          171.6679         calculate D2E/DX2 analytically  !
 ! D72   D(8,9,10,34)           55.7643         calculate D2E/DX2 analytically  !
 ! D73   D(31,9,10,11)          55.6574         calculate D2E/DX2 analytically  !
 ! D74   D(31,9,10,33)         -65.261          calculate D2E/DX2 analytically  !
 ! D75   D(31,9,10,34)         178.8354         calculate D2E/DX2 analytically  !
 ! D76   D(32,9,10,11)         171.401          calculate D2E/DX2 analytically  !
 ! D77   D(32,9,10,33)          50.4826         calculate D2E/DX2 analytically  !
 ! D78   D(32,9,10,34)         -65.421          calculate D2E/DX2 analytically  !
 ! D79   D(9,10,11,12)        -175.0307         calculate D2E/DX2 analytically  !
 ! D80   D(9,10,11,35)          63.7125         calculate D2E/DX2 analytically  !
 ! D81   D(9,10,11,36)         -53.953          calculate D2E/DX2 analytically  !
 ! D82   D(33,10,11,12)        -54.6369         calculate D2E/DX2 analytically  !
 ! D83   D(33,10,11,35)       -175.8936         calculate D2E/DX2 analytically  !
 ! D84   D(33,10,11,36)         66.4409         calculate D2E/DX2 analytically  !
 ! D85   D(34,10,11,12)         61.8789         calculate D2E/DX2 analytically  !
 ! D86   D(34,10,11,35)        -59.3779         calculate D2E/DX2 analytically  !
 ! D87   D(34,10,11,36)       -177.0434         calculate D2E/DX2 analytically  !
 ! D88   D(10,11,12,13)        177.4255         calculate D2E/DX2 analytically  !
 ! D89   D(10,11,12,37)        -59.6656         calculate D2E/DX2 analytically  !
 ! D90   D(10,11,12,38)         56.8421         calculate D2E/DX2 analytically  !
 ! D91   D(35,11,12,13)        -61.1495         calculate D2E/DX2 analytically  !
 ! D92   D(35,11,12,37)         61.7595         calculate D2E/DX2 analytically  !
 ! D93   D(35,11,12,38)        178.2672         calculate D2E/DX2 analytically  !
 ! D94   D(36,11,12,13)         56.2945         calculate D2E/DX2 analytically  !
 ! D95   D(36,11,12,37)        179.2035         calculate D2E/DX2 analytically  !
 ! D96   D(36,11,12,38)        -64.2888         calculate D2E/DX2 analytically  !
 ! D97   D(11,12,13,14)         64.0664         calculate D2E/DX2 analytically  !
 ! D98   D(11,12,13,39)       -175.1721         calculate D2E/DX2 analytically  !
 ! D99   D(11,12,13,40)        -57.5782         calculate D2E/DX2 analytically  !
 ! D100  D(37,12,13,14)        -58.7885         calculate D2E/DX2 analytically  !
 ! D101  D(37,12,13,39)         61.973          calculate D2E/DX2 analytically  !
 ! D102  D(37,12,13,40)        179.5669         calculate D2E/DX2 analytically  !
 ! D103  D(38,12,13,14)       -174.8249         calculate D2E/DX2 analytically  !
 ! D104  D(38,12,13,39)        -54.0634         calculate D2E/DX2 analytically  !
 ! D105  D(38,12,13,40)         63.5305         calculate D2E/DX2 analytically  !
 ! D106  D(12,13,14,41)        175.7984         calculate D2E/DX2 analytically  !
 ! D107  D(12,13,14,42)         59.5587         calculate D2E/DX2 analytically  !
 ! D108  D(39,13,14,41)         54.9223         calculate D2E/DX2 analytically  !
 ! D109  D(39,13,14,42)        -61.3174         calculate D2E/DX2 analytically  !
 ! D110  D(40,13,14,41)        -62.125          calculate D2E/DX2 analytically  !
 ! D111  D(40,13,14,42)       -178.3646         calculate D2E/DX2 analytically  !
 --------------------------------------------------------------------------------
 Trust Radius=3.00D-01 FncErr=1.00D-07 GrdErr=1.00D-06 EigMax=2.50D+02 EigMin=1.00D-04
 Number of steps in this run=    240 maximum allowed number of steps=    252.
 GradGradGradGradGradGradGradGradGradGradGradGradGradGradGradGradGradGrad

                          Input orientation:                          
 ---------------------------------------------------------------------
 Center     Atomic      Atomic             Coordinates (Angstroms)
 Number     Number       Type             X           Y           Z
 ---------------------------------------------------------------------
      1          7           0        7.425857   -0.442822    0.185169
      2          6           0        6.043857   -0.029470    0.405435
      3          6           0        5.395297    0.366938   -0.920439
      4          6           0        3.973140    0.913223   -0.759411
      5          6           0        2.973409   -0.131376   -0.257951
      6          6           0        1.550758    0.434682   -0.223727
      7          6           0        0.551417   -0.610254    0.277922
      8          6           0       -0.870531   -0.064828    0.447761
      9          6           0       -1.539105    0.309957   -0.877603
     10          6           0       -2.960905    0.856094   -0.708000
     11          6           0       -3.961487   -0.188903   -0.207110
     12          6           0       -5.384237    0.380503   -0.174628
     13          6           0       -6.432085   -0.645765    0.260119
     14          7           0       -6.223656   -1.090411    1.632799
     15          1           0        7.447164   -1.249444   -0.437565
     16          1           0        7.830056   -0.752749    1.067915
     17          1           0        5.499426   -0.855806    0.872745
     18          1           0        6.031205    0.817272    1.099729
     19          1           0        6.004024    1.143013   -1.402464
     20          1           0        5.381372   -0.491615   -1.603760
     21          1           0        3.639578    1.288244   -1.735048
     22          1           0        3.984264    1.772802   -0.078221
     23          1           0        3.001866   -1.011651   -0.911371
     24          1           0        3.250753   -0.463421    0.748646
     25          1           0        1.274322    0.766849   -1.230362
     26          1           0        1.522363    1.314875    0.429780
     27          1           0        0.537497   -1.468655   -0.404669
     28          1           0        0.889099   -0.987081    1.251527
     29          1           0       -0.853454    0.805578    1.114615
     30          1           0       -1.462002   -0.837996    0.950612
     31          1           0       -1.556553   -0.560573   -1.544286
     32          1           0       -0.947166    1.082717   -1.380565
     33          1           0       -3.297667    1.233598   -1.681651
     34          1           0       -2.946903    1.714050   -0.024847
     35          1           0       -3.678204   -0.521856    0.796706
     36          1           0       -3.934242   -1.067268   -0.863059
     37          1           0       -5.418551    1.251410    0.492156
     38          1           0       -5.651072    0.740746   -1.175982
     39          1           0       -7.429020   -0.198920    0.177957
     40          1           0       -6.406019   -1.513334   -0.407977
     41          1           0       -6.980163   -1.717087    1.903976
     42          1           0       -6.273702   -0.291265    2.263327
 ---------------------------------------------------------------------
                    Distance matrix (angstroms):
                    1          2          3          4          5
     1  N    0.000000
     2  C    1.459213   0.000000
     3  C    2.449745   1.528304   0.000000
     4  C    3.827838   2.556053   1.531956   0.000000
     5  C    4.485269   3.142947   2.559834   1.530395   0.000000
     6  C    5.954325   4.560616   3.907746   2.526636   1.531512
     7  C    6.877104   5.524533   5.084697   3.886544   2.526367
     8  C    8.309145   6.914608   6.427986   5.086747   3.908751
     9  C    9.059067   7.698227   6.934769   5.546417   4.576192
    10  C   10.505701   9.116452   8.373202   6.934471   6.032721
    11  C   11.396927  10.025345   9.400383   8.029820   6.935321
    12  C   12.841566  11.450148  10.805313   9.390754   8.373722
    13  C   13.859630  12.492000  11.929218  10.570647   9.433786
    14  N   13.741332  12.374324  11.985115  10.663577   9.438258
    15  H    1.019260   2.041631   2.656316   4.104821   4.614847
    16  H    1.019153   2.037773   3.336960   4.581527   5.072577
    17  H    2.086732   1.094355   2.172890   2.850078   2.860775
    18  H    2.090290   1.095068   2.165238   2.775111   3.477548
    19  H    2.656513   2.155180   1.097810   2.142617   3.481178
    20  H    2.717087   2.165486   1.097376   2.160929   2.781953
    21  H    4.584728   3.478304   2.143582   1.097165   2.154279
    22  H    4.101576   2.779214   2.162591   1.096823   2.163336
    23  H    4.593219   3.457220   2.762083   2.161389   1.096655
    24  H    4.213006   2.847373   2.841551   2.165924   1.095632
    25  H    6.427162   5.104745   4.151918   2.743508   2.153901
    26  H    6.164460   4.717177   4.209667   2.753508   2.161053
    27  H    6.989259   5.748697   5.218586   4.195572   2.782716
    28  H    6.645490   5.310783   5.182338   4.143227   2.712029
    29  H    8.424332   6.983777   6.586406   5.178762   4.172134
    30  H    8.929507   7.568940   7.209386   5.960848   4.651108
    31  H    9.148145   7.864458   7.041142   5.776296   4.728575
    32  H    8.653687   7.300764   6.399289   4.962254   4.255020
    33  H   11.013145   9.654809   8.769160   7.336061   6.573924
    34  H   10.596714   9.168357   8.497594   7.004849   6.205646
    35  H   11.121168   9.742381   9.277228   7.938766   6.746016
    36  H   11.425434  10.111803   9.439308   8.152286   6.996978
    37  H   12.959301  11.534079  10.941528   9.480752   8.538136
    38  H   13.200743  11.826473  11.055646   9.634767   8.716941
    39  H   14.856881  13.475863  12.883703  11.494554  10.411778
    40  H   13.885914  12.564350  11.961150  10.664831   9.481877
    41  H   14.564047  13.218123  12.863611  11.575275  10.308347
    42  H   13.857114  12.459637  12.113428  10.751070   9.586004
                    6          7          8          9         10
     6  C    0.000000
     7  C    1.530433   0.000000
     8  C    2.561845   1.532407   0.000000
     9  C    3.160754   2.559747   1.531027   0.000000
    10  C    4.557106   3.931746   2.559989   1.532497   0.000000
    11  C    5.547430   4.558409   3.162002   2.562490   1.531037
    12  C    6.935381   6.034765   4.578125   3.909500   2.526502
    13  C    8.070146   6.983615   5.594960   5.113616   3.904091
    14  N    8.137206   6.925884   5.577821   5.496196   4.462485
    15  H    6.135927   6.962170   8.448146   9.131177  10.622350
    16  H    6.519809   7.322771   8.749746   9.627854  11.053827
    17  H    4.296462   4.989680   6.432932   7.345995   8.775338
    18  H    4.687463   5.721998   6.988356   7.840714   9.172100
    19  H    4.660764   5.968966   7.220922   7.607118   8.996363
    20  H    4.175658   5.184908   6.593723   7.004486   8.497782
    21  H    2.715847   4.146454   5.190043   5.339571   6.693875
    22  H    2.780950   4.194070   5.217526   5.769448   7.033658
    23  H    2.161122   2.753223   4.211790   4.729504   6.251757
    24  H    2.154549   2.744003   4.151432   5.117180   6.515185
    25  H    1.095475   2.166546   2.847486   2.872030   4.268252
    26  H    1.096639   2.161461   2.762217   3.477311   4.648087
    27  H    2.163823   1.096803   2.163309   2.774780   4.211328
    28  H    2.153039   1.097239   2.143102   3.480183   4.696761
    29  H    2.776502   2.162937   1.096628   2.164414   2.786723
    30  H    3.474983   2.135003   1.095667   2.160118   2.804932
    31  H    3.519913   2.786834   2.164403   1.096628   2.162990
    32  H    2.828046   2.804011   2.159979   1.095682   2.135145
    33  H    5.125528   4.696292   3.480129   2.142929   1.097230
    34  H    4.680309   4.210974   2.774723   2.163461   1.096805
    35  H    5.412790   4.262235   2.865949   2.840945   2.162731
    36  H    5.722746   4.651004   3.479865   2.762904   2.161191
    37  H    7.053425   6.257173   4.734865   4.220507   2.763454
    38  H    7.270957   6.512289   5.112637   4.145224   2.733004
    39  H    9.011061   7.991656   6.565406   6.005353   4.675685
    40  H    8.193840   7.049250   5.785506   5.218409   4.192018
    41  H    9.051732   7.784204   6.494469   6.438261   5.440415
    42  H    8.242246   7.115184   5.704543   5.713433   4.595633
                   11         12         13         14         15
    11  C    0.000000
    12  C    1.532807   0.000000
    13  C    2.555559   1.529777   0.000000
    14  N    3.052113   2.476895   1.457876   0.000000
    15  H   11.460156  12.937183  13.909879  13.827618   0.000000
    16  H   11.873673  13.320876  14.285400  14.069114   1.630884
    17  H    9.545665  11.003617  11.949075  11.750038   2.380240
    18  H   10.127887  11.494654  12.576923  12.413905   2.939307
    19  H   10.124933  11.479612  12.673622  12.795201   2.955932
    20  H    9.451523  10.895015  11.960584  12.062776   2.490343
    21  H    7.892575   9.202616  10.447941  10.690360   4.756157
    22  H    8.185344   9.471885  10.698797  10.739051   4.610290
    23  H    7.047069   8.532737   9.513448   9.570228   4.476797
    24  H    7.280469   8.725119   9.696868   9.536209   4.431116
    25  H    5.419797   6.752795   7.975319   8.238130   6.542014
    26  H    5.721852   6.995676   8.194274   8.199602   6.513930
    27  H    4.681629   6.207998   7.049408   7.071601   6.913221
    28  H    5.127659   6.577153   7.395885   7.123716   6.777174
    29  H    3.520769   4.729781   5.827322   5.718598   8.690952
    30  H    2.830030   4.258502   5.021499   4.816892   9.026049
    31  H    2.776668   4.172859   5.199418   5.670666   9.097598
    32  H    3.475650   4.651343   5.980287   6.453232   8.763161
    33  H    2.153703   2.711579   4.138484   4.994798  11.097956
    34  H    2.164216   2.782333   4.218581   4.620596  10.816157
    35  H    1.094877   2.160624   2.808405   2.738911  11.217246
    36  H    1.096602   2.161588   2.770995   3.386925  11.390813
    37  H    2.164836   1.097387   2.163416   2.726424  13.139455
    38  H    2.158160   1.097125   2.143544   3.401505  13.269133
    39  H    3.488863   2.154341   1.095583   2.089072  14.925928
    40  H    2.787508   2.164512   1.095311   2.092101  13.855727
    41  H    3.988036   3.356703   2.037249   1.019098  14.623586
    42  H    3.385244   2.680680   2.040490   1.019168  14.016957
                   16         17         18         19         20
    16  H    0.000000
    17  H    2.341057   0.000000
    18  H    2.387853   1.770169   0.000000
    19  H    3.609858   3.070255   2.523453   0.000000
    20  H    3.633468   2.505923   3.073161   1.760745   0.000000
    21  H    5.438967   3.854422   3.738670   2.392135   2.493789
    22  H    4.741535   3.179564   2.547660   2.495933   3.067045
    23  H    5.224560   3.073299   4.070181   3.727828   2.532171
    24  H    4.599529   2.286022   3.081289   3.845569   3.173980
    25  H    7.111182   4.990749   5.297150   4.747757   4.311731
    26  H    6.668529   4.552483   4.585422   4.844785   4.721297
    27  H    7.474118   5.160243   6.137548   6.139977   5.084836
    28  H    6.947339   4.627724   5.451604   6.143567   5.345902
    29  H    8.822353   6.570981   6.884685   7.312630   6.924257
    30  H    9.293190   6.961886   7.675304   8.074831   7.312767
    31  H    9.745201   7.464318   8.152504   7.751428   6.938522
    32  H    9.295354   7.098861   7.410801   6.951485   6.525238
    33  H   11.633224   9.395711   9.743574   9.306320   8.849189
    34  H   11.109549   8.874137   9.092596   9.074305   8.758887
    35  H   11.513771   9.184018   9.806003  10.067456   9.372250
    36  H   11.925867   9.594364  10.330254  10.195363   9.362728
    37  H   13.411702  11.125980  11.474081  11.579143  11.138642
    38  H   13.747960  11.449012  11.902113  11.664234  11.109299
    39  H   15.295037  12.963756  13.529965  13.592100  12.937014
    40  H   14.332571  11.992173  12.743211  12.730057  11.891863
    41  H   14.865112  12.551709  13.280266  13.700431  12.907887
    42  H   14.161849  11.868402  12.409413  12.893321  12.281501
                   21         22         23         24         25
    21  H    0.000000
    22  H    1.760307   0.000000
    23  H    2.524805   3.067967   0.000000
    24  H    3.064025   2.494482   1.765830   0.000000
    25  H    2.474065   3.111777   2.499845   3.055538   0.000000
    26  H    3.028167   2.555136   3.065997   2.500269   1.765766
    27  H    4.358131   4.742764   2.557091   3.114865   2.494425
    28  H    4.654231   4.354908   3.023659   2.470733   3.063403
    29  H    5.342367   5.075618   4.719156   4.311474   3.166678
    30  H    6.144899   6.126710   4.839758   4.731929   3.849629
    31  H    5.518540   6.188265   4.624201   5.327022   3.142363
    32  H    4.605010   5.146971   4.494593   4.954453   2.248853
    33  H    6.937666   7.475844   6.731908   7.188047   4.617856
    34  H    6.818199   6.931621   6.603274   6.614425   4.491013
    35  H    7.952118   8.046388   6.912363   6.929370   5.504296
    36  H    7.979445   8.448946   6.936499   7.388259   5.534260
    37  H    9.327996   9.434517   8.831464   8.840999   6.927945
    38  H    9.323545   9.752431   8.832567   9.186767   6.925656
    39  H   11.330716  11.585179  10.519057  10.698280   8.869286
    40  H   10.513038  10.902541   9.434691   9.782297   8.053768
    41  H   11.621248  11.675919  10.395418  10.371987   9.172269
    42  H   10.805322  10.722363   9.830250   9.645680   8.384398
                   26         27         28         29         30
    26  H    0.000000
    27  H    3.068273   0.000000
    28  H    2.524934   1.760261   0.000000
    29  H    2.524458   3.068404   2.503769   0.000000
    30  H    3.716524   2.496500   2.374963   1.760273   0.000000
    31  H    4.110226   2.551153   3.738942   3.070907   2.512055
    32  H    3.070801   3.109034   3.818879   2.512272   3.064079
    33  H    5.262835   4.862236   5.573504   3.738513   3.819683
    34  H    4.510030   4.734440   4.862114   2.550730   3.109565
    35  H    5.527577   4.484625   4.613409   3.137253   2.243921
    36  H    6.092665   4.513057   5.267116   4.112177   3.074726
    37  H    6.941485   6.608900   6.736018   4.628859   4.497787
    38  H    7.373348   6.616250   7.186934   5.316782   4.956121
    39  H    9.081974   8.088082   8.424064   6.717471   6.050679
    40  H    8.459305   6.943660   7.499976   6.206981   5.171571
    41  H    9.146529   7.868086   7.929936   6.672592   5.668492
    42  H    8.168244   7.409243   7.267298   5.648158   5.017429
                   31         32         33         34         35
    31  H    0.000000
    32  H    1.760272   0.000000
    33  H    2.503876   2.374505   0.000000
    34  H    3.068498   2.497098   1.760360   0.000000
    35  H    3.159612   3.843661   3.060830   2.491792   0.000000
    36  H    2.524721   3.716567   2.523748   3.068088   1.765743
    37  H    4.727094   4.850652   3.037088   2.567172   2.503205
    38  H    4.312095   4.720755   2.457055   3.095958   3.062331
    39  H    6.130480   6.788668   4.751666   4.877495   3.815202
    40  H    5.071122   6.122457   4.339324   4.746396   3.142493
    41  H    6.530205   7.417827   5.926553   5.635622   3.682059
    42  H    6.068109   6.598315   5.171542   4.508284   2.990110
                   36         37         38         39         40
    36  H    0.000000
    37  H    3.068558   0.000000
    38  H    2.512835   1.759979   0.000000
    39  H    3.748496   2.498833   2.424298   0.000000
    40  H    2.552598   3.070691   2.498130   1.765654   0.000000
    41  H    4.166099   3.639209   4.158553   2.342102   2.390874
    42  H    3.981149   2.499635   3.644387   2.385803   2.940548
                   41         42
    41  H    0.000000
    42  H    1.631315   0.000000
 Stoichiometry    C12H28N2
 Framework group  C1[X(C12H28N2)]
 Deg. of freedom   120
 Full point group                 C1      NOp   1
 Largest Abelian subgroup         C1      NOp   1
 Largest concise Abelian subgroup C1      NOp   1
                         Standard orientation:                         
 ---------------------------------------------------------------------
 Center     Atomic      Atomic             Coordinates (Angstroms)
 Number     Number       Type             X           Y           Z
 ---------------------------------------------------------------------
      1          7           0        7.358445    0.843057    0.135020
      2          6           0        5.980292    0.676245   -0.314612
      3          6           0        5.403272   -0.629861    0.230225
      4          6           0        3.991452   -0.929049   -0.283720
      5          6           0        2.940961    0.069606    0.207470
      6          6           0        1.534886   -0.339698   -0.240808
      7          6           0        0.484766    0.659337    0.250518
      8          6           0       -0.927264    0.367483   -0.268387
      9          6           0       -1.524908   -0.925504    0.292909
     10          6           0       -2.936760   -1.217986   -0.226394
     11          6           0       -3.988087   -0.219561    0.265472
     12          6           0       -5.394087   -0.632343   -0.184273
     13          6           0       -6.489120    0.300808    0.335679
     14          7           0       -6.355080    1.650482   -0.198942
     15          1           0        7.384646    0.879483    1.153291
     16          1           0        7.713744    1.740508   -0.192113
     17          1           0        5.392199    1.533500    0.027254
     18          1           0        5.960672    0.669720   -1.409486
     19          1           0        6.054799   -1.463015   -0.063977
     20          1           0        5.395525   -0.608772    1.327371
     21          1           0        3.712701   -1.935684    0.052071
     22          1           0        3.996526   -0.952577   -1.380278
     23          1           0        2.973579    0.129756    1.301988
     24          1           0        3.163410    1.069695   -0.180791
     25          1           0        1.313348   -1.339847    0.147378
     26          1           0        1.502322   -0.399725   -1.335319
     27          1           0        0.476995    0.680891    1.347082
     28          1           0        0.767670    1.665778   -0.082613
     29          1           0       -0.915296    0.326346   -1.364177
     30          1           0       -1.562410    1.215703    0.010176
     31          1           0       -1.537258   -0.884176    1.388688
     32          1           0       -0.889302   -1.773525    0.014728
     33          1           0       -3.218725   -2.224845    0.106239
     34          1           0       -2.928945   -1.238820   -1.322974
     35          1           0       -3.759608    0.779283   -0.120356
     36          1           0       -3.956510   -0.162635    1.360140
     37          1           0       -5.433420   -0.676557   -1.280063
     38          1           0       -5.605474   -1.645819    0.178859
     39          1           0       -7.468260   -0.099596    0.050615
     40          1           0       -6.457870    0.341453    1.429789
     41          1           0       -7.140490    2.218544    0.115696
     42          1           0       -6.410540    1.623300   -1.216237
 ---------------------------------------------------------------------
 Rotational constants (GHZ):           2.6412606           0.1186209           0.1153824
 Standard basis: 6-31G(d,p) (6D, 7F)
 There are   350 symmetry adapted cartesian basis functions of A   symmetry.
 There are   350 symmetry adapted basis functions of A   symmetry.
   350 basis functions,   588 primitive gaussians,   350 cartesian basis functions
    57 alpha electrons       57 beta electrons
       nuclear repulsion energy       870.7403940499 Hartrees.
 NAtoms=   42 NActive=   42 NUniq=   42 SFac= 1.00D+00 NAtFMM=   60 NAOKFM=F Big=F
 Integral buffers will be    131072 words long.
 Raffenetti 2 integral format.
 Two-electron integral symmetry is turned on.
 Force inversion solution in PCM.
 ------------------------------------------------------------------------------
 Polarizable Continuum Model (PCM)
 =================================
 Model                : PCM.
 Atomic radii         : UFF (Universal Force Field).
 Polarization charges : Total charges.
 Charge compensation  : None.
 Solution method      : Matrix inversion.
 Cavity type          : Scaled VdW (van der Waals Surface) (Alpha=1.100).
 Cavity algorithm     : GePol (No added spheres)
                        Default sphere list used, NSphG=   42.
                        Lebedev-Laikov grids with approx.  5.0 points / Ang**2.
                        Smoothing algorithm: York/Karplus (Gamma=1.0000).
                        Polarization charges: spherical gaussians, with
                                              point-specific exponents (IZeta= 3).
                        Self-potential: point-specific (ISelfS= 7).
                        Self-field    : sphere-specific E.n sum rule (ISelfD= 2).
 1st derivatives      : Analytical E(r).r(x)/FMM algorithm (CHGder, D1EAlg=3).
                        Cavity 1st derivative terms included.
 2nd derivatives      : Analytical E(r).r(xy)/FMM algorithm (CHGder, D2EAlg=3).
                        Cavity 2nd derivative terms included.
 Solvent              : Water, Eps=  78.355300 Eps(inf)=   1.777849
 ------------------------------------------------------------------------------
 One-electron integrals computed using PRISM.
 NBasis=   350 RedAO= T EigKep=  2.32D-03  NBF=   350
 NBsUse=   350 1.00D-06 EigRej= -1.00D+00 NBFU=   350
 ExpMin= 1.61D-01 ExpMax= 4.17D+03 ExpMxC= 6.27D+02 IAcc=3 IRadAn=         5 AccDes= 0.00D+00
 Harris functional with IExCor=  402 and IRadAn=       5 diagonalized for initial guess.
 HarFok:  IExCor=  402 AccDes= 0.00D+00 IRadAn=         5 IDoV= 1 UseB2=F ITyADJ=14
 ICtDFT=  3500011 ScaDFX=  1.000000  1.000000  1.000000  1.000000
 FoFCou: FMM=F IPFlag=           0 FMFlag=      100000 FMFlg1=           0
         NFxFlg=           0 DoJE=T BraDBF=F KetDBF=T FulRan=T
         wScrn=  0.000000 ICntrl=       500 IOpCl=  0 I1Cent=   200000004 NGrid=           0
         NMat0=    1 NMatS0=      1 NMatT0=    0 NMatD0=    1 NMtDS0=    0 NMtDT0=    0
 Petite list used in FoFCou.
 Requested convergence on RMS density matrix=1.00D-08 within  32 cycles.
 Requested convergence on MAX density matrix=1.00D-06.
 Requested convergence on             energy=1.00D-06.
 No special actions if energy rises.
 Inv3:  Mode=1 IEnd=    22129968.
 Iteration    1 A*A^-1 deviation from unit magnitude is 7.99D-15 for   2553.
 Iteration    1 A*A^-1 deviation from orthogonality  is 4.88D-15 for   2033    983.
 Iteration    1 A^-1*A deviation from unit magnitude is 7.99D-15 for   2553.
 Iteration    1 A^-1*A deviation from orthogonality  is 4.00D-15 for   1934    538.
 Error on total polarization charges =  0.01244
 SCF Done:  E(RB3LYP) =  -583.692131229     A.U. after   10 cycles
            NFock= 10  Conv=0.91D-08     -V/T= 2.0097
 QCSCF skips out because SCF is already converged.
 DoSCS=F DFT=T ScalE2(SS,OS)=  1.000000  1.000000
 Range of M.O.s used for correlation:     1   350
 NBasis=   350 NAE=    57 NBE=    57 NFC=     0 NFV=     0
 NROrb=    350 NOA=    57 NOB=    57 NVA=   293 NVB=   293
 Symmetrizing basis deriv contribution to polar:
 IMax=3 JMax=2 DiffMx= 0.00D+00
 G2DrvN: will do    43 centers at a time, making    1 passes.
 Calling FoFCou, ICntrl=  3107 FMM=F I1Cent=   0 AccDes= 0.00D+00.
 NEqPCM:  Using equilibrium solvation (IEInf=0, Eps=  78.3553, EpsInf=   1.7778)
 G2PCM: DoFxE=T DoFxN=T DoGrad=T DoDP/DQ/DG/TGxP=FFFF NFrqRd=   0 IEInf=0 SqF1=F DoCFld=F IF1Alg=4.
 End of G2Drv F.D. properties file   721 does not exist.
 End of G2Drv F.D. properties file   722 does not exist.
 End of G2Drv F.D. properties file   788 does not exist.
          IDoAtm=111111111111111111111111111111111111111111
 NEqPCM:  Using equilibrium solvation (IEInf=0, Eps=  78.3553, EpsInf=   1.7778)
          Differentiating once with respect to nuclear coordinates.
 CalDSu exits because no D1Ps are significant.
          There are   129 degrees of freedom in the 1st order CPHF.  IDoFFX=6 NUNeed=     0.
    123 vectors produced by pass  0 Test12= 1.67D-14 1.00D-09 XBig12= 6.72D-02 8.11D-02.
 AX will form   123 AO Fock derivatives at one time.
    123 vectors produced by pass  1 Test12= 1.67D-14 1.00D-09 XBig12= 6.65D-03 1.93D-02.
    123 vectors produced by pass  2 Test12= 1.67D-14 1.00D-09 XBig12= 1.03D-04 1.85D-03.
    123 vectors produced by pass  3 Test12= 1.67D-14 1.00D-09 XBig12= 2.71D-07 5.74D-05.
    123 vectors produced by pass  4 Test12= 1.67D-14 1.00D-09 XBig12= 1.89D-10 2.24D-06.
     44 vectors produced by pass  5 Test12= 1.67D-14 1.00D-09 XBig12= 1.11D-13 3.21D-08.
      2 vectors produced by pass  6 Test12= 1.67D-14 1.00D-09 XBig12= 7.27D-17 1.55D-09.
 InvSVY:  IOpt=1 It=  1 EMax= 6.11D-16
 Solved reduced A of dimension   661 with   129 vectors.
 End of Minotr F.D. properties file   721 does not exist.
 End of Minotr F.D. properties file   722 does not exist.
 End of Minotr F.D. properties file   788 does not exist.

 **********************************************************************

            Population analysis using the SCF density.

 **********************************************************************

 Orbital symmetries:
       Occupied  (A) (A) (A) (A) (A) (A) (A) (A) (A) (A) (A) (A)
                 (A) (A) (A) (A) (A) (A) (A) (A) (A) (A) (A) (A)
                 (A) (A) (A) (A) (A) (A) (A) (A) (A) (A) (A) (A)
                 (A) (A) (A) (A) (A) (A) (A) (A) (A) (A) (A) (A)
                 (A) (A) (A) (A) (A) (A) (A) (A) (A)
       Virtual   (A) (A) (A) (A) (A) (A) (A) (A) (A) (A) (A) (A)
                 (A) (A) (A) (A) (A) (A) (A) (A) (A) (A) (A) (A)
                 (A) (A) (A) (A) (A) (A) (A) (A) (A) (A) (A) (A)
                 (A) (A) (A) (A) (A) (A) (A) (A) (A) (A) (A) (A)
                 (A) (A) (A) (A) (A) (A) (A) (A) (A) (A) (A) (A)
                 (A) (A) (A) (A) (A) (A) (A) (A) (A) (A) (A) (A)
                 (A) (A) (A) (A) (A) (A) (A) (A) (A) (A) (A) (A)
                 (A) (A) (A) (A) (A) (A) (A) (A) (A) (A) (A) (A)
                 (A) (A) (A) (A) (A) (A) (A) (A) (A) (A) (A) (A)
                 (A) (A) (A) (A) (A) (A) (A) (A) (A) (A) (A) (A)
                 (A) (A) (A) (A) (A) (A) (A) (A) (A) (A) (A) (A)
                 (A) (A) (A) (A) (A) (A) (A) (A) (A) (A) (A) (A)
                 (A) (A) (A) (A) (A) (A) (A) (A) (A) (A) (A) (A)
                 (A) (A) (A) (A) (A) (A) (A) (A) (A) (A) (A) (A)
                 (A) (A) (A) (A) (A) (A) (A) (A) (A) (A) (A) (A)
                 (A) (A) (A) (A) (A) (A) (A) (A) (A) (A) (A) (A)
                 (A) (A) (A) (A) (A) (A) (A) (A) (A) (A) (A) (A)
                 (A) (A) (A) (A) (A) (A) (A) (A) (A) (A) (A) (A)
                 (A) (A) (A) (A) (A) (A) (A) (A) (A) (A) (A) (A)
                 (A) (A) (A) (A) (A) (A) (A) (A) (A) (A) (A) (A)
                 (A) (A) (A) (A) (A) (A) (A) (A) (A) (A) (A) (A)
                 (A) (A) (A) (A) (A) (A) (A) (A) (A) (A) (A) (A)
                 (A) (A) (A) (A) (A) (A) (A) (A) (A) (A) (A) (A)
                 (A) (A) (A) (A) (A) (A) (A) (A) (A) (A) (A) (A)
                 (A) (A) (A) (A) (A)
 The electronic state is 1-A.
 Alpha  occ. eigenvalues --  -14.30423 -14.30381 -10.19715 -10.19691 -10.17269
 Alpha  occ. eigenvalues --  -10.17226 -10.17196 -10.16992 -10.16978 -10.16961
 Alpha  occ. eigenvalues --  -10.16926 -10.16922 -10.16900 -10.16785  -0.87392
 Alpha  occ. eigenvalues --   -0.87365  -0.80837  -0.79227  -0.76814  -0.73735
 Alpha  occ. eigenvalues --   -0.70384  -0.66344  -0.63741  -0.60552  -0.58301
 Alpha  occ. eigenvalues --   -0.56996  -0.56318  -0.55216  -0.48372  -0.47315
 Alpha  occ. eigenvalues --   -0.47026  -0.46141  -0.45501  -0.44731  -0.43506
 Alpha  occ. eigenvalues --   -0.43327  -0.42069  -0.40813  -0.39713  -0.38743
 Alpha  occ. eigenvalues --   -0.38474  -0.37326  -0.36435  -0.35334  -0.34898
 Alpha  occ. eigenvalues --   -0.34303  -0.33339  -0.32929  -0.32222  -0.31966
 Alpha  occ. eigenvalues --   -0.31641  -0.31455  -0.30571  -0.29735  -0.28716
 Alpha  occ. eigenvalues --   -0.22804  -0.22665
 Alpha virt. eigenvalues --    0.08627   0.09157   0.09538   0.10209   0.10972
 Alpha virt. eigenvalues --    0.11595   0.12137   0.12373   0.13053   0.14038
 Alpha virt. eigenvalues --    0.14397   0.15278   0.16113   0.16673   0.17570
 Alpha virt. eigenvalues --    0.17863   0.18092   0.18411   0.18712   0.19004
 Alpha virt. eigenvalues --    0.19641   0.19838   0.20109   0.20438   0.20844
 Alpha virt. eigenvalues --    0.21943   0.22540   0.23220   0.23787   0.24198
 Alpha virt. eigenvalues --    0.25153   0.25472   0.26047   0.26554   0.26882
 Alpha virt. eigenvalues --    0.27848   0.28458   0.29822   0.30272   0.31484
 Alpha virt. eigenvalues --    0.33393   0.49269   0.50090   0.50663   0.51249
 Alpha virt. eigenvalues --    0.52755   0.53758   0.54178   0.54864   0.55970
 Alpha virt. eigenvalues --    0.56467   0.57512   0.57938   0.58979   0.59830
 Alpha virt. eigenvalues --    0.62028   0.62943   0.66078   0.66395   0.66891
 Alpha virt. eigenvalues --    0.67517   0.68759   0.69708   0.70638   0.71140
 Alpha virt. eigenvalues --    0.72259   0.72425   0.73374   0.73502   0.75346
 Alpha virt. eigenvalues --    0.76512   0.77533   0.78850   0.79467   0.80609
 Alpha virt. eigenvalues --    0.81153   0.82726   0.83642   0.84252   0.84945
 Alpha virt. eigenvalues --    0.85446   0.87130   0.87260   0.87713   0.88053
 Alpha virt. eigenvalues --    0.88768   0.89392   0.90501   0.91018   0.91385
 Alpha virt. eigenvalues --    0.91777   0.92061   0.92668   0.93553   0.94389
 Alpha virt. eigenvalues --    0.94699   0.95188   0.95675   0.96051   0.96356
 Alpha virt. eigenvalues --    0.96773   0.97600   0.99460   0.99526   1.01647
 Alpha virt. eigenvalues --    1.02277   1.02908   1.03603   1.07247   1.10737
 Alpha virt. eigenvalues --    1.13803   1.14438   1.19796   1.21607   1.24929
 Alpha virt. eigenvalues --    1.28699   1.29224   1.32658   1.33545   1.35305
 Alpha virt. eigenvalues --    1.37112   1.37314   1.43175   1.45272   1.47257
 Alpha virt. eigenvalues --    1.47851   1.52056   1.54028   1.56332   1.57611
 Alpha virt. eigenvalues --    1.58861   1.62196   1.63401   1.64595   1.65948
 Alpha virt. eigenvalues --    1.67150   1.69636   1.69734   1.71380   1.72920
 Alpha virt. eigenvalues --    1.75348   1.76349   1.77112   1.78703   1.79758
 Alpha virt. eigenvalues --    1.81771   1.82759   1.84277   1.85929   1.86252
 Alpha virt. eigenvalues --    1.87787   1.88239   1.89138   1.89687   1.90607
 Alpha virt. eigenvalues --    1.91437   1.91970   1.93964   1.94708   1.96495
 Alpha virt. eigenvalues --    1.97925   2.00831   2.04353   2.05348   2.05862
 Alpha virt. eigenvalues --    2.08522   2.09357   2.09723   2.10356   2.11454
 Alpha virt. eigenvalues --    2.12212   2.12948   2.13892   2.14042   2.15498
 Alpha virt. eigenvalues --    2.16362   2.16634   2.19217   2.19371   2.19849
 Alpha virt. eigenvalues --    2.23362   2.24033   2.24093   2.24861   2.25846
 Alpha virt. eigenvalues --    2.26118   2.27138   2.28511   2.29054   2.30279
 Alpha virt. eigenvalues --    2.30750   2.31337   2.32021   2.33643   2.34348
 Alpha virt. eigenvalues --    2.36710   2.38117   2.38790   2.39348   2.40330
 Alpha virt. eigenvalues --    2.42407   2.42857   2.43929   2.46179   2.46688
 Alpha virt. eigenvalues --    2.47538   2.49403   2.53028   2.54335   2.56625
 Alpha virt. eigenvalues --    2.59159   2.59866   2.61379   2.62092   2.62799
 Alpha virt. eigenvalues --    2.63187   2.64769   2.66273   2.67153   2.68362
 Alpha virt. eigenvalues --    2.69033   2.71420   2.73957   2.75319   2.76339
 Alpha virt. eigenvalues --    2.77443   2.79235   2.80409   2.81067   2.82637
 Alpha virt. eigenvalues --    2.83344   2.84518   2.85680   2.86280   2.87744
 Alpha virt. eigenvalues --    2.88312   2.89521   2.89745   2.91133   2.91465
 Alpha virt. eigenvalues --    2.92514   2.92823   2.93160   2.93378   2.94282
 Alpha virt. eigenvalues --    2.95802   2.96050   2.98230   2.98616   2.99097
 Alpha virt. eigenvalues --    2.99886   3.22469   3.23424   3.25466   3.27007
 Alpha virt. eigenvalues --    3.28769   3.30423   3.30714   3.31116   3.31856
 Alpha virt. eigenvalues --    3.32404   3.33373   3.35034   3.36371   3.37157
 Alpha virt. eigenvalues --    3.40465   3.41789   3.44501   3.45577   3.47667
 Alpha virt. eigenvalues --    3.50204   3.51942   3.53972   3.56039   3.57444
 Alpha virt. eigenvalues --    3.58685   3.59563   3.59726   3.60591   4.00351
 Alpha virt. eigenvalues --    4.00669   4.25616   4.30132   4.36611   4.41983
 Alpha virt. eigenvalues --    4.48868   4.52758   4.59120   4.61128   4.66900
 Alpha virt. eigenvalues --    4.70371   4.76229   4.81152
          Condensed to atoms (all electrons):
               1          2          3          4          5          6
     1  N    6.823385   0.291904  -0.053529   0.003335   0.000108  -0.000002
     2  C    0.291904   4.790480   0.382024  -0.038967  -0.005498   0.000209
     3  C   -0.053529   0.382024   4.943103   0.351251  -0.039958   0.003732
     4  C    0.003335  -0.038967   0.351251   4.923843   0.373288  -0.037956
     5  C    0.000108  -0.005498  -0.039958   0.373288   4.911071   0.369703
     6  C   -0.000002   0.000209   0.003732  -0.037956   0.369703   4.910983
     7  C   -0.000000   0.000000  -0.000148   0.003782  -0.037913   0.375079
     8  C   -0.000000   0.000000   0.000001  -0.000148   0.003883  -0.040205
     9  C    0.000000  -0.000000   0.000000   0.000001   0.000212  -0.005811
    10  C    0.000000   0.000000   0.000000  -0.000000  -0.000001   0.000141
    11  C   -0.000000   0.000000  -0.000000   0.000000   0.000000  -0.000001
    12  C    0.000000  -0.000000  -0.000000   0.000000  -0.000000   0.000000
    13  C    0.000000   0.000000  -0.000000   0.000000   0.000000   0.000000
    14  N    0.000000   0.000000   0.000000  -0.000000  -0.000000   0.000000
    15  H    0.341098  -0.038957  -0.005794  -0.000057  -0.000020  -0.000000
    16  H    0.337552  -0.033726   0.005819  -0.000240   0.000004  -0.000000
    17  H   -0.053359   0.390720  -0.046898  -0.000635   0.001876   0.000011
    18  H   -0.041691   0.385376  -0.033770  -0.003933  -0.000619  -0.000049
    19  H    0.005053  -0.039579   0.366932  -0.028541   0.004781  -0.000134
    20  H   -0.002996  -0.040206   0.382498  -0.036144  -0.007909   0.000033
    21  H   -0.000113   0.004850  -0.032067   0.378684  -0.040221  -0.005549
    22  H    0.000034  -0.008338  -0.037855   0.382178  -0.039551  -0.004016
    23  H   -0.000021  -0.000915  -0.003469  -0.041073   0.383328  -0.038930
    24  H   -0.000099   0.002357  -0.004452  -0.038570   0.383881  -0.038078
    25  H    0.000000   0.000002   0.000029  -0.004090  -0.038421   0.383549
    26  H   -0.000000  -0.000020   0.000106  -0.003672  -0.039175   0.383336
    27  H   -0.000000   0.000000   0.000003   0.000042  -0.004051  -0.039408
    28  H    0.000000  -0.000004   0.000003   0.000119  -0.005350  -0.041689
    29  H    0.000000   0.000000   0.000000  -0.000002   0.000063  -0.008276
    30  H   -0.000000  -0.000000  -0.000000   0.000002  -0.000153   0.004747
    31  H    0.000000   0.000000  -0.000000  -0.000000  -0.000028  -0.000746
    32  H   -0.000000  -0.000000  -0.000000   0.000009  -0.000108   0.002464
    33  H   -0.000000  -0.000000  -0.000000   0.000000  -0.000000  -0.000003
    34  H    0.000000   0.000000  -0.000000   0.000000  -0.000000  -0.000022
    35  H    0.000000  -0.000000  -0.000000   0.000000  -0.000000  -0.000001
    36  H   -0.000000   0.000000  -0.000000   0.000000  -0.000000   0.000000
    37  H    0.000000   0.000000  -0.000000   0.000000  -0.000000   0.000000
    38  H    0.000000  -0.000000   0.000000  -0.000000   0.000000  -0.000000
    39  H    0.000000   0.000000   0.000000   0.000000  -0.000000   0.000000
    40  H    0.000000   0.000000   0.000000  -0.000000   0.000000  -0.000000
    41  H    0.000000   0.000000   0.000000   0.000000   0.000000  -0.000000
    42  H    0.000000  -0.000000   0.000000  -0.000000   0.000000  -0.000000
               7          8          9         10         11         12
     1  N   -0.000000  -0.000000   0.000000   0.000000  -0.000000   0.000000
     2  C    0.000000   0.000000  -0.000000   0.000000   0.000000  -0.000000
     3  C   -0.000148   0.000001   0.000000   0.000000  -0.000000  -0.000000
     4  C    0.003782  -0.000148   0.000001  -0.000000   0.000000   0.000000
     5  C   -0.037913   0.003883   0.000212  -0.000001   0.000000  -0.000000
     6  C    0.375079  -0.040205  -0.005811   0.000141  -0.000001   0.000000
     7  C    4.923472   0.360785  -0.040489   0.003982   0.000180  -0.000001
     8  C    0.360785   4.918195   0.384700  -0.040408  -0.005627   0.000217
     9  C   -0.040489   0.384700   4.916958   0.364299  -0.042123   0.003818
    10  C    0.003982  -0.040408   0.364299   4.917709   0.379127  -0.037987
    11  C    0.000180  -0.005627  -0.042123   0.379127   4.903189   0.369138
    12  C   -0.000001   0.000217   0.003818  -0.037987   0.369138   4.939243
    13  C   -0.000000   0.000002  -0.000157   0.003824  -0.040298   0.369694
    14  N   -0.000000  -0.000003   0.000007   0.000184  -0.003886  -0.055609
    15  H    0.000000  -0.000000  -0.000000  -0.000000   0.000000   0.000000
    16  H    0.000000  -0.000000  -0.000000  -0.000000   0.000000   0.000000
    17  H    0.000007  -0.000000   0.000000   0.000000  -0.000000   0.000000
    18  H   -0.000000  -0.000000   0.000000  -0.000000  -0.000000   0.000000
    19  H    0.000002  -0.000000  -0.000000  -0.000000   0.000000   0.000000
    20  H   -0.000001   0.000000   0.000000   0.000000  -0.000000   0.000000
    21  H    0.000111   0.000003  -0.000004   0.000000  -0.000000   0.000000
    22  H    0.000042   0.000003   0.000000  -0.000000  -0.000000   0.000000
    23  H   -0.003595   0.000109  -0.000019  -0.000000   0.000000  -0.000000
    24  H   -0.004128   0.000031   0.000000   0.000000  -0.000000   0.000000
    25  H   -0.038418  -0.003915   0.001876  -0.000115  -0.000002  -0.000000
    26  H   -0.040938  -0.003660  -0.000820  -0.000026   0.000000  -0.000000
    27  H    0.380764  -0.037720  -0.007975   0.000101  -0.000020  -0.000000
    28  H    0.377182  -0.033726   0.004864  -0.000168  -0.000003  -0.000000
    29  H   -0.038019   0.381483  -0.041562  -0.003637  -0.000735  -0.000026
    30  H   -0.032048   0.376688  -0.041203  -0.005070   0.003012  -0.000116
    31  H   -0.003605  -0.041527   0.381486  -0.037953  -0.008350   0.000065
    32  H   -0.005015  -0.041087   0.377098  -0.032287   0.004795  -0.000155
    33  H   -0.000165   0.004927  -0.034068   0.376070  -0.041932  -0.005001
    34  H    0.000100  -0.008028  -0.037637   0.380759  -0.039919  -0.003987
    35  H   -0.000124   0.001927  -0.003508  -0.038590   0.384112  -0.038392
    36  H   -0.000026  -0.000834  -0.003696  -0.041249   0.382877  -0.040994
    37  H   -0.000000  -0.000018   0.000084  -0.003768  -0.041534   0.381442
    38  H    0.000000   0.000001   0.000050  -0.004942  -0.038326   0.376495
    39  H   -0.000000  -0.000000   0.000002  -0.000115   0.005782  -0.043092
    40  H   -0.000000   0.000000  -0.000002   0.000016  -0.009250  -0.031264
    41  H    0.000000   0.000000  -0.000000   0.000000   0.000168   0.005844
    42  H    0.000000   0.000000  -0.000000  -0.000050  -0.000501  -0.005311
              13         14         15         16         17         18
     1  N    0.000000   0.000000   0.341098   0.337552  -0.053359  -0.041691
     2  C    0.000000   0.000000  -0.038957  -0.033726   0.390720   0.385376
     3  C   -0.000000   0.000000  -0.005794   0.005819  -0.046898  -0.033770
     4  C    0.000000  -0.000000  -0.000057  -0.000240  -0.000635  -0.003933
     5  C    0.000000  -0.000000  -0.000020   0.000004   0.001876  -0.000619
     6  C    0.000000   0.000000  -0.000000  -0.000000   0.000011  -0.000049
     7  C   -0.000000  -0.000000   0.000000   0.000000   0.000007  -0.000000
     8  C    0.000002  -0.000003  -0.000000  -0.000000  -0.000000  -0.000000
     9  C   -0.000157   0.000007  -0.000000  -0.000000   0.000000   0.000000
    10  C    0.003824   0.000184  -0.000000  -0.000000   0.000000  -0.000000
    11  C   -0.040298  -0.003886   0.000000   0.000000  -0.000000  -0.000000
    12  C    0.369694  -0.055609   0.000000   0.000000   0.000000   0.000000
    13  C    4.800176   0.298065   0.000000   0.000000   0.000000   0.000000
    14  N    0.298065   6.806666   0.000000   0.000000  -0.000000   0.000000
    15  H    0.000000   0.000000   0.482188  -0.032189  -0.004966   0.006653
    16  H    0.000000   0.000000  -0.032189   0.482416  -0.003783  -0.003269
    17  H    0.000000  -0.000000  -0.004966  -0.003783   0.675860  -0.049233
    18  H    0.000000   0.000000   0.006653  -0.003269  -0.049233   0.636852
    19  H    0.000000   0.000000  -0.000719  -0.000041   0.006973  -0.007025
    20  H   -0.000000   0.000000   0.005499  -0.000036  -0.007595   0.005959
    21  H   -0.000000   0.000000   0.000002   0.000004  -0.000106   0.000013
    22  H   -0.000000  -0.000000   0.000017  -0.000001  -0.000213   0.005711
    23  H    0.000000  -0.000000   0.000002  -0.000000   0.000617   0.000077
    24  H   -0.000000   0.000000   0.000001   0.000002   0.002872   0.000268
    25  H    0.000000  -0.000000   0.000000   0.000000  -0.000003   0.000001
    26  H    0.000000  -0.000000  -0.000000   0.000000   0.000014  -0.000001
    27  H    0.000000  -0.000000  -0.000000   0.000000   0.000001  -0.000000
    28  H    0.000000   0.000000   0.000000  -0.000000  -0.000006   0.000000
    29  H   -0.000000   0.000000   0.000000  -0.000000   0.000000  -0.000000
    30  H    0.000015  -0.000026   0.000000   0.000000   0.000000  -0.000000
    31  H   -0.000002   0.000000   0.000000   0.000000  -0.000000   0.000000
    32  H    0.000002  -0.000000  -0.000000   0.000000   0.000000  -0.000000
    33  H    0.000045  -0.000005  -0.000000   0.000000   0.000000  -0.000000
    34  H    0.000060   0.000001   0.000000  -0.000000  -0.000000   0.000000
    35  H   -0.005961   0.013062  -0.000000   0.000000   0.000000  -0.000000
    36  H   -0.003281  -0.000330   0.000000   0.000000  -0.000000   0.000000
    37  H   -0.036771  -0.005621   0.000000   0.000000   0.000000   0.000000
    38  H   -0.032704   0.004071   0.000000   0.000000  -0.000000  -0.000000
    39  H    0.383464  -0.054356   0.000000   0.000000   0.000000   0.000000
    40  H    0.385363  -0.044256   0.000000   0.000000   0.000000   0.000000
    41  H   -0.033202   0.338994   0.000000   0.000000  -0.000000   0.000000
    42  H   -0.039074   0.340403   0.000000   0.000000   0.000000   0.000000
              19         20         21         22         23         24
     1  N    0.005053  -0.002996  -0.000113   0.000034  -0.000021  -0.000099
     2  C   -0.039579  -0.040206   0.004850  -0.008338  -0.000915   0.002357
     3  C    0.366932   0.382498  -0.032067  -0.037855  -0.003469  -0.004452
     4  C   -0.028541  -0.036144   0.378684   0.382178  -0.041073  -0.038570
     5  C    0.004781  -0.007909  -0.040221  -0.039551   0.383328   0.383881
     6  C   -0.000134   0.000033  -0.005549  -0.004016  -0.038930  -0.038078
     7  C    0.000002  -0.000001   0.000111   0.000042  -0.003595  -0.004128
     8  C   -0.000000   0.000000   0.000003   0.000003   0.000109   0.000031
     9  C   -0.000000   0.000000  -0.000004   0.000000  -0.000019   0.000000
    10  C   -0.000000   0.000000   0.000000  -0.000000  -0.000000   0.000000
    11  C    0.000000  -0.000000  -0.000000  -0.000000   0.000000  -0.000000
    12  C    0.000000   0.000000   0.000000   0.000000  -0.000000   0.000000
    13  C    0.000000  -0.000000  -0.000000  -0.000000   0.000000  -0.000000
    14  N    0.000000   0.000000   0.000000  -0.000000  -0.000000   0.000000
    15  H   -0.000719   0.005499   0.000002   0.000017   0.000002   0.000001
    16  H   -0.000041  -0.000036   0.000004  -0.000001  -0.000000   0.000002
    17  H    0.006973  -0.007595  -0.000106  -0.000213   0.000617   0.002872
    18  H   -0.007025   0.005959   0.000013   0.005711   0.000077   0.000268
    19  H    0.651828  -0.039972  -0.005266  -0.003210   0.000068  -0.000026
    20  H   -0.039972   0.641454  -0.003439   0.006045   0.005769  -0.000235
    21  H   -0.005266  -0.003439   0.647448  -0.038675  -0.005283   0.005993
    22  H   -0.003210   0.006045  -0.038675   0.643138   0.006074  -0.006299
    23  H    0.000068   0.005769  -0.005283   0.006074   0.643881  -0.040226
    24  H   -0.000026  -0.000235   0.005993  -0.006299  -0.040226   0.636657
    25  H   -0.000009   0.000008   0.005902  -0.000512  -0.006028   0.005910
    26  H    0.000005   0.000007  -0.000556   0.004769   0.006024  -0.006009
    27  H    0.000000  -0.000002   0.000005   0.000003   0.004766  -0.000514
    28  H    0.000000   0.000001   0.000009   0.000006  -0.000550   0.005852
    29  H   -0.000000  -0.000000   0.000001  -0.000002   0.000007   0.000007
    30  H    0.000000  -0.000000   0.000000   0.000000   0.000005  -0.000009
    31  H   -0.000000  -0.000000   0.000000  -0.000000  -0.000001   0.000001
    32  H    0.000000   0.000000  -0.000006   0.000001   0.000015  -0.000002
    33  H    0.000000  -0.000000  -0.000000   0.000000   0.000000   0.000000
    34  H    0.000000   0.000000  -0.000000  -0.000000  -0.000000   0.000000
    35  H    0.000000  -0.000000   0.000000  -0.000000   0.000000   0.000000
    36  H    0.000000   0.000000  -0.000000  -0.000000  -0.000000  -0.000000
    37  H    0.000000   0.000000  -0.000000  -0.000000  -0.000000  -0.000000
    38  H   -0.000000   0.000000   0.000000   0.000000  -0.000000   0.000000
    39  H    0.000000   0.000000   0.000000  -0.000000  -0.000000   0.000000
    40  H    0.000000  -0.000000  -0.000000   0.000000   0.000000  -0.000000
    41  H    0.000000   0.000000  -0.000000   0.000000   0.000000  -0.000000
    42  H    0.000000   0.000000   0.000000   0.000000  -0.000000   0.000000
              25         26         27         28         29         30
     1  N    0.000000  -0.000000  -0.000000   0.000000   0.000000  -0.000000
     2  C    0.000002  -0.000020   0.000000  -0.000004   0.000000  -0.000000
     3  C    0.000029   0.000106   0.000003   0.000003   0.000000  -0.000000
     4  C   -0.004090  -0.003672   0.000042   0.000119  -0.000002   0.000002
     5  C   -0.038421  -0.039175  -0.004051  -0.005350   0.000063  -0.000153
     6  C    0.383549   0.383336  -0.039408  -0.041689  -0.008276   0.004747
     7  C   -0.038418  -0.040938   0.380764   0.377182  -0.038019  -0.032048
     8  C   -0.003915  -0.003660  -0.037720  -0.033726   0.381483   0.376688
     9  C    0.001876  -0.000820  -0.007975   0.004864  -0.041562  -0.041203
    10  C   -0.000115  -0.000026   0.000101  -0.000168  -0.003637  -0.005070
    11  C   -0.000002   0.000000  -0.000020  -0.000003  -0.000735   0.003012
    12  C   -0.000000  -0.000000  -0.000000  -0.000000  -0.000026  -0.000116
    13  C    0.000000   0.000000   0.000000   0.000000  -0.000000   0.000015
    14  N   -0.000000  -0.000000  -0.000000   0.000000   0.000000  -0.000026
    15  H    0.000000  -0.000000  -0.000000   0.000000   0.000000   0.000000
    16  H    0.000000   0.000000   0.000000  -0.000000  -0.000000   0.000000
    17  H   -0.000003   0.000014   0.000001  -0.000006   0.000000   0.000000
    18  H    0.000001  -0.000001  -0.000000   0.000000  -0.000000  -0.000000
    19  H   -0.000009   0.000005   0.000000   0.000000  -0.000000   0.000000
    20  H    0.000008   0.000007  -0.000002   0.000001  -0.000000  -0.000000
    21  H    0.005902  -0.000556   0.000005   0.000009   0.000001   0.000000
    22  H   -0.000512   0.004769   0.000003   0.000006  -0.000002   0.000000
    23  H   -0.006028   0.006024   0.004766  -0.000550   0.000007   0.000005
    24  H    0.005910  -0.006009  -0.000514   0.005852   0.000007  -0.000009
    25  H    0.637551  -0.040413  -0.006356   0.006129  -0.000151  -0.000041
    26  H   -0.040413   0.644851   0.006099  -0.005220   0.005913   0.000081
    27  H   -0.006356   0.006099   0.646714  -0.039080   0.006077  -0.002915
    28  H    0.006129  -0.005220  -0.039080   0.655341  -0.002870  -0.004965
    29  H   -0.000151   0.005913   0.006077  -0.002870   0.647471  -0.039187
    30  H   -0.000041   0.000081  -0.002915  -0.004965  -0.039187   0.648749
    31  H    0.000495   0.000072   0.005682   0.000045   0.006181  -0.005710
    32  H    0.002467   0.000599  -0.000150  -0.000005  -0.005711   0.006268
    33  H    0.000009   0.000000   0.000001   0.000003   0.000046   0.000007
    34  H    0.000014   0.000000   0.000010   0.000001   0.005681  -0.000162
    35  H   -0.000000   0.000000   0.000014   0.000008   0.000487   0.002558
    36  H    0.000000  -0.000000   0.000000   0.000000   0.000072   0.000569
    37  H    0.000000  -0.000000  -0.000000   0.000000  -0.000001   0.000016
    38  H    0.000000  -0.000000   0.000000   0.000000   0.000001  -0.000002
    39  H   -0.000000  -0.000000  -0.000000  -0.000000  -0.000000  -0.000000
    40  H    0.000000   0.000000   0.000000   0.000000  -0.000000   0.000001
    41  H    0.000000   0.000000   0.000000   0.000000  -0.000000   0.000000
    42  H    0.000000   0.000000   0.000000  -0.000000  -0.000000   0.000000
              31         32         33         34         35         36
     1  N    0.000000  -0.000000  -0.000000   0.000000   0.000000  -0.000000
     2  C    0.000000  -0.000000  -0.000000   0.000000  -0.000000   0.000000
     3  C   -0.000000  -0.000000  -0.000000  -0.000000  -0.000000  -0.000000
     4  C   -0.000000   0.000009   0.000000   0.000000   0.000000   0.000000
     5  C   -0.000028  -0.000108  -0.000000  -0.000000  -0.000000  -0.000000
     6  C   -0.000746   0.002464  -0.000003  -0.000022  -0.000001   0.000000
     7  C   -0.003605  -0.005015  -0.000165   0.000100  -0.000124  -0.000026
     8  C   -0.041527  -0.041087   0.004927  -0.008028   0.001927  -0.000834
     9  C    0.381486   0.377098  -0.034068  -0.037637  -0.003508  -0.003696
    10  C   -0.037953  -0.032287   0.376070   0.380759  -0.038590  -0.041249
    11  C   -0.008350   0.004795  -0.041932  -0.039919   0.384112   0.382877
    12  C    0.000065  -0.000155  -0.005001  -0.003987  -0.038392  -0.040994
    13  C   -0.000002   0.000002   0.000045   0.000060  -0.005961  -0.003281
    14  N    0.000000  -0.000000  -0.000005   0.000001   0.013062  -0.000330
    15  H    0.000000  -0.000000  -0.000000   0.000000  -0.000000   0.000000
    16  H    0.000000   0.000000   0.000000  -0.000000   0.000000   0.000000
    17  H   -0.000000   0.000000   0.000000  -0.000000   0.000000  -0.000000
    18  H    0.000000  -0.000000  -0.000000   0.000000  -0.000000   0.000000
    19  H   -0.000000   0.000000   0.000000   0.000000   0.000000   0.000000
    20  H   -0.000000   0.000000  -0.000000   0.000000  -0.000000   0.000000
    21  H    0.000000  -0.000006  -0.000000  -0.000000   0.000000  -0.000000
    22  H   -0.000000   0.000001   0.000000  -0.000000  -0.000000  -0.000000
    23  H   -0.000001   0.000015   0.000000  -0.000000   0.000000  -0.000000
    24  H    0.000001  -0.000002   0.000000   0.000000   0.000000  -0.000000
    25  H    0.000495   0.002467   0.000009   0.000014  -0.000000   0.000000
    26  H    0.000072   0.000599   0.000000   0.000000   0.000000  -0.000000
    27  H    0.005682  -0.000150   0.000001   0.000010   0.000014   0.000000
    28  H    0.000045  -0.000005   0.000003   0.000001   0.000008   0.000000
    29  H    0.006181  -0.005711   0.000046   0.005681   0.000487   0.000072
    30  H   -0.005710   0.006268   0.000007  -0.000162   0.002558   0.000569
    31  H    0.647320  -0.039257  -0.002884   0.006082  -0.000167   0.005928
    32  H   -0.039257   0.648944  -0.005010  -0.002918  -0.000039   0.000081
    33  H   -0.002884  -0.005010   0.658546  -0.039421   0.005917  -0.005240
    34  H    0.006082  -0.002918  -0.039421   0.647734  -0.006223   0.006139
    35  H   -0.000167  -0.000039   0.005917  -0.006223   0.623649  -0.038720
    36  H    0.005928   0.000081  -0.005240   0.006139  -0.038720   0.647489
    37  H    0.000007   0.000005  -0.000441   0.004699  -0.006095   0.006019
    38  H    0.000008  -0.000009   0.005848  -0.000472   0.005893  -0.005348
    39  H    0.000000  -0.000000  -0.000012   0.000005   0.000330   0.000006
    40  H   -0.000002   0.000000   0.000015   0.000006  -0.000668   0.005416
    41  H   -0.000000   0.000000   0.000000  -0.000000  -0.000255  -0.000030
    42  H   -0.000000  -0.000000   0.000001  -0.000003  -0.000264   0.000077
[...]
   103    C    7  dyz    Ryd( 3d)     0.00025
   104    C    7  dx2y2  Ryd( 3d)     0.00081
   105    C    7  dz2    Ryd( 3d)     0.00112

   106    C    8  S      Cor( 1S)     1.99934
   107    C    8  S      Val( 2S)     1.03107
   108    C    8  S      Ryd( 3S)     0.00082
   109    C    8  S      Ryd( 4S)     0.00002
   110    C    8  px     Val( 2p)     1.08753
   111    C    8  px     Ryd( 3p)     0.00241
   112    C    8  py     Val( 2p)     1.12866
   113    C    8  py     Ryd( 3p)     0.00226
   114    C    8  pz     Val( 2p)     1.20302
   115    C    8  pz     Ryd( 3p)     0.00245
   116    C    8  dxy    Ryd( 3d)     0.00089
   117    C    8  dxz    Ryd( 3d)     0.00034
   118    C    8  dyz    Ryd( 3d)     0.00030
   119    C    8  dx2y2  Ryd( 3d)     0.00053
   120    C    8  dz2    Ryd( 3d)     0.00112

   121    C    9  S      Cor( 1S)     1.99933
   122    C    9  S      Val( 2S)     1.03100
   123    C    9  S      Ryd( 3S)     0.00080
   124    C    9  S      Ryd( 4S)     0.00002
   125    C    9  px     Val( 2p)     1.08474
   126    C    9  px     Ryd( 3p)     0.00229
   127    C    9  py     Val( 2p)     1.13010
   128    C    9  py     Ryd( 3p)     0.00229
   129    C    9  pz     Val( 2p)     1.20348
   130    C    9  pz     Ryd( 3p)     0.00239
   131    C    9  dxy    Ryd( 3d)     0.00089
   132    C    9  dxz    Ryd( 3d)     0.00034
   133    C    9  dyz    Ryd( 3d)     0.00030
   134    C    9  dx2y2  Ryd( 3d)     0.00054
   135    C    9  dz2    Ryd( 3d)     0.00111

   136    C   10  S      Cor( 1S)     1.99934
   137    C   10  S      Val( 2S)     1.03002
   138    C   10  S      Ryd( 3S)     0.00085
   139    C   10  S      Ryd( 4S)     0.00002
   140    C   10  px     Val( 2p)     1.03923
   141    C   10  px     Ryd( 3p)     0.00209
   142    C   10  py     Val( 2p)     1.17500
   143    C   10  py     Ryd( 3p)     0.00325
   144    C   10  pz     Val( 2p)     1.20638
   145    C   10  pz     Ryd( 3p)     0.00269
   146    C   10  dxy    Ryd( 3d)     0.00064
   147    C   10  dxz    Ryd( 3d)     0.00038
   148    C   10  dyz    Ryd( 3d)     0.00025
   149    C   10  dx2y2  Ryd( 3d)     0.00078
   150    C   10  dz2    Ryd( 3d)     0.00111

   151    C   11  S      Cor( 1S)     1.99932
   152    C   11  S      Val( 2S)     1.03759
   153    C   11  S      Ryd( 3S)     0.00096
   154    C   11  S      Ryd( 4S)     0.00003
   155    C   11  px     Val( 2p)     1.03271
   156    C   11  px     Ryd( 3p)     0.00433
   157    C   11  py     Val( 2p)     1.17488
   158    C   11  py     Ryd( 3p)     0.00207
   159    C   11  pz     Val( 2p)     1.20803
   160    C   11  pz     Ryd( 3p)     0.00239
   161    C   11  dxy    Ryd( 3d)     0.00056
   162    C   11  dxz    Ryd( 3d)     0.00039
   163    C   11  dyz    Ryd( 3d)     0.00030
   164    C   11  dx2y2  Ryd( 3d)     0.00083
   165    C   11  dz2    Ryd( 3d)     0.00109

   166    C   12  S      Cor( 1S)     1.99932
   167    C   12  S      Val( 2S)     1.04381
   168    C   12  S      Ryd( 3S)     0.00110
   169    C   12  S      Ryd( 4S)     0.00003
   170    C   12  px     Val( 2p)     1.02219
   171    C   12  px     Ryd( 3p)     0.00264
   172    C   12  py     Val( 2p)     1.17625
   173    C   12  py     Ryd( 3p)     0.00404
   174    C   12  pz     Val( 2p)     1.22145
   175    C   12  pz     Ryd( 3p)     0.00244
   176    C   12  dxy    Ryd( 3d)     0.00067
   177    C   12  dxz    Ryd( 3d)     0.00039
   178    C   12  dyz    Ryd( 3d)     0.00033
   179    C   12  dx2y2  Ryd( 3d)     0.00070
   180    C   12  dz2    Ryd( 3d)     0.00102

   181    C   13  S      Cor( 1S)     1.99931
   182    C   13  S      Val( 2S)     1.06138
   183    C   13  S      Ryd( 3S)     0.00217
   184    C   13  S      Ryd( 4S)     0.00003
   185    C   13  px     Val( 2p)     1.16241
   186    C   13  px     Ryd( 3p)     0.00179
   187    C   13  py     Val( 2p)     0.90732
   188    C   13  py     Ryd( 3p)     0.00683
   189    C   13  pz     Val( 2p)     1.20493
   190    C   13  pz     Ryd( 3p)     0.00326
   191    C   13  dxy    Ryd( 3d)     0.00061
   192    C   13  dxz    Ryd( 3d)     0.00039
   193    C   13  dyz    Ryd( 3d)     0.00088
   194    C   13  dx2y2  Ryd( 3d)     0.00134
   195    C   13  dz2    Ryd( 3d)     0.00118

   196    N   14  S      Cor( 1S)     1.99934
   197    N   14  S      Val( 2S)     1.51916
   198    N   14  S      Ryd( 3S)     0.01741
   199    N   14  S      Ryd( 4S)     0.00003
   200    N   14  px     Val( 2p)     1.15640
   201    N   14  px     Ryd( 3p)     0.00050
   202    N   14  py     Val( 2p)     1.28454
   203    N   14  py     Ryd( 3p)     0.00128
   204    N   14  pz     Val( 2p)     1.39704
   205    N   14  pz     Ryd( 3p)     0.00223
   206    N   14  dxy    Ryd( 3d)     0.00066
   207    N   14  dxz    Ryd( 3d)     0.00019
   208    N   14  dyz    Ryd( 3d)     0.00034
   209    N   14  dx2y2  Ryd( 3d)     0.00015
   210    N   14  dz2    Ryd( 3d)     0.00068

   211    H   15  S      Val( 1S)     0.61480
   212    H   15  S      Ryd( 2S)     0.00152
   213    H   15  px     Ryd( 2p)     0.00034
   214    H   15  py     Ryd( 2p)     0.00049
   215    H   15  pz     Ryd( 2p)     0.00060

   216    H   16  S      Val( 1S)     0.60827
   217    H   16  S      Ryd( 2S)     0.00125
   218    H   16  px     Ryd( 2p)     0.00038
   219    H   16  py     Ryd( 2p)     0.00067
   220    H   16  pz     Ryd( 2p)     0.00036

   221    H   17  S      Val( 1S)     0.79465
   222    H   17  S      Ryd( 2S)     0.00180
   223    H   17  px     Ryd( 2p)     0.00017
   224    H   17  py     Ryd( 2p)     0.00029
   225    H   17  pz     Ryd( 2p)     0.00011

   226    H   18  S      Val( 1S)     0.77596
   227    H   18  S      Ryd( 2S)     0.00162
   228    H   18  px     Ryd( 2p)     0.00006
   229    H   18  py     Ryd( 2p)     0.00010
   230    H   18  pz     Ryd( 2p)     0.00039

   231    H   19  S      Val( 1S)     0.75912
   232    H   19  S      Ryd( 2S)     0.00216
   233    H   19  px     Ryd( 2p)     0.00020
   234    H   19  py     Ryd( 2p)     0.00024
   235    H   19  pz     Ryd( 2p)     0.00011

   236    H   20  S      Val( 1S)     0.77089
   237    H   20  S      Ryd( 2S)     0.00171
   238    H   20  px     Ryd( 2p)     0.00010
   239    H   20  py     Ryd( 2p)     0.00010
   240    H   20  pz     Ryd( 2p)     0.00037

   241    H   21  S      Val( 1S)     0.76199
   242    H   21  S      Ryd( 2S)     0.00146
   243    H   21  px     Ryd( 2p)     0.00011
   244    H   21  py     Ryd( 2p)     0.00033
   245    H   21  pz     Ryd( 2p)     0.00011

   246    H   22  S      Val( 1S)     0.76869
   247    H   22  S      Ryd( 2S)     0.00169
   248    H   22  px     Ryd( 2p)     0.00010
   249    H   22  py     Ryd( 2p)     0.00010
   250    H   22  pz     Ryd( 2p)     0.00037

   251    H   23  S      Val( 1S)     0.76988
   252    H   23  S      Ryd( 2S)     0.00172
   253    H   23  px     Ryd( 2p)     0.00010
   254    H   23  py     Ryd( 2p)     0.00009
   255    H   23  pz     Ryd( 2p)     0.00036

   256    H   24  S      Val( 1S)     0.77005
   257    H   24  S      Ryd( 2S)     0.00161
   258    H   24  px     Ryd( 2p)     0.00012
   259    H   24  py     Ryd( 2p)     0.00033
   260    H   24  pz     Ryd( 2p)     0.00011

   261    H   25  S      Val( 1S)     0.77008
   262    H   25  S      Ryd( 2S)     0.00151
   263    H   25  px     Ryd( 2p)     0.00012
   264    H   25  py     Ryd( 2p)     0.00033
   265    H   25  pz     Ryd( 2p)     0.00012

   266    H   26  S      Val( 1S)     0.77027
   267    H   26  S      Ryd( 2S)     0.00173
   268    H   26  px     Ryd( 2p)     0.00010
   269    H   26  py     Ryd( 2p)     0.00009
   270    H   26  pz     Ryd( 2p)     0.00036

   271    H   27  S      Val( 1S)     0.76992
   272    H   27  S      Ryd( 2S)     0.00169
   273    H   27  px     Ryd( 2p)     0.00010
   274    H   27  py     Ryd( 2p)     0.00010
   275    H   27  pz     Ryd( 2p)     0.00037

   276    H   28  S      Val( 1S)     0.76407
   277    H   28  S      Ryd( 2S)     0.00149
   278    H   28  px     Ryd( 2p)     0.00011
   279    H   28  py     Ryd( 2p)     0.00033
   280    H   28  pz     Ryd( 2p)     0.00011

   281    H   29  S      Val( 1S)     0.77061
   282    H   29  S      Ryd( 2S)     0.00185
   283    H   29  px     Ryd( 2p)     0.00010
   284    H   29  py     Ryd( 2p)     0.00010
   285    H   29  pz     Ryd( 2p)     0.00036

   286    H   30  S      Val( 1S)     0.76455
   287    H   30  S      Ryd( 2S)     0.00155
   288    H   30  px     Ryd( 2p)     0.00019
   289    H   30  py     Ryd( 2p)     0.00026
   290    H   30  pz     Ryd( 2p)     0.00011

   291    H   31  S      Val( 1S)     0.77035
   292    H   31  S      Ryd( 2S)     0.00175
   293    H   31  px     Ryd( 2p)     0.00010
   294    H   31  py     Ryd( 2p)     0.00010
   295    H   31  pz     Ryd( 2p)     0.00036

   296    H   32  S      Val( 1S)     0.76323
   297    H   32  S      Ryd( 2S)     0.00128
   298    H   32  px     Ryd( 2p)     0.00019
   299    H   32  py     Ryd( 2p)     0.00026
   300    H   32  pz     Ryd( 2p)     0.00011

   301    H   33  S      Val( 1S)     0.76238
   302    H   33  S      Ryd( 2S)     0.00288
   303    H   33  px     Ryd( 2p)     0.00011
   304    H   33  py     Ryd( 2p)     0.00033
   305    H   33  pz     Ryd( 2p)     0.00011

   306    H   34  S      Val( 1S)     0.76973
   307    H   34  S      Ryd( 2S)     0.00258
   308    H   34  px     Ryd( 2p)     0.00010
   309    H   34  py     Ryd( 2p)     0.00010
   310    H   34  pz     Ryd( 2p)     0.00036

   311    H   35  S      Val( 1S)     0.77476
   312    H   35  S      Ryd( 2S)     0.00829
   313    H   35  px     Ryd( 2p)     0.00012
   314    H   35  py     Ryd( 2p)     0.00032
   315    H   35  pz     Ryd( 2p)     0.00012

   316    H   36  S      Val( 1S)     0.76783
   317    H   36  S      Ryd( 2S)     0.00544
   318    H   36  px     Ryd( 2p)     0.00010
   319    H   36  py     Ryd( 2p)     0.00009
   320    H   36  pz     Ryd( 2p)     0.00036

   321    H   37  S      Val( 1S)     0.77019
   322    H   37  S      Ryd( 2S)     0.02113
   323    H   37  px     Ryd( 2p)     0.00010
   324    H   37  py     Ryd( 2p)     0.00011
   325    H   37  pz     Ryd( 2p)     0.00035

   326    H   38  S      Val( 1S)     0.78012
   327    H   38  S      Ryd( 2S)     0.01318
   328    H   38  px     Ryd( 2p)     0.00011
   329    H   38  py     Ryd( 2p)     0.00033
   330    H   38  pz     Ryd( 2p)     0.00011

   331    H   39  S      Val( 1S)     0.71876
   332    H   39  S      Ryd( 2S)     0.03455
   333    H   39  px     Ryd( 2p)     0.00032
   334    H   39  py     Ryd( 2p)     0.00014
   335    H   39  pz     Ryd( 2p)     0.00010

   336    H   40  S      Val( 1S)     0.75855
   337    H   40  S      Ryd( 2S)     0.02466
   338    H   40  px     Ryd( 2p)     0.00007
   339    H   40  py     Ryd( 2p)     0.00006
   340    H   40  pz     Ryd( 2p)     0.00038

   341    H   41  S      Val( 1S)     0.74392
   342    H   41  S      Ryd( 2S)     0.08551
   343    H   41  px     Ryd( 2p)     0.00051
   344    H   41  py     Ryd( 2p)     0.00038
   345    H   41  pz     Ryd( 2p)     0.00027

   346    H   42  S      Val( 1S)     0.72682
   347    H   42  S      Ryd( 2S)     0.08636
   348    H   42  px     Ryd( 2p)     0.00017
   349    H   42  py     Ryd( 2p)     0.00027
   350    H   42  pz     Ryd( 2p)     0.00076


 Summary of Natural Population Analysis:                  
                                                          
                                       Natural Population 
                Natural  -----------------------------------------------
    Atom  No    Charge         Core      Valence    Rydberg      Total
 -----------------------------------------------------------------------
      N    1   -0.92929      1.99969     5.91471    0.01490     7.92929
      C    2   -0.26090      1.99936     4.24856    0.01299     6.26090
      C    3   -0.47259      1.99933     4.46145    0.01181     6.47259
      C    4   -0.46031      1.99934     4.45000    0.01097     6.46031
      C    5   -0.45939      1.99934     4.44932    0.01073     6.45939
      C    6   -0.45932      1.99934     4.44929    0.01069     6.45932
      C    7   -0.45725      1.99934     4.44687    0.01104     6.45725
      C    8   -0.46074      1.99934     4.45028    0.01113     6.46074
      C    9   -0.45965      1.99933     4.44933    0.01099     6.45965
      C   10   -0.46202      1.99934     4.45063    0.01206     6.46202
      C   11   -0.46548      1.99932     4.45321    0.01295     6.46548
      C   12   -0.47638      1.99932     4.46369    0.01336     6.47638
      C   13   -0.35381      1.99931     4.33603    0.01847     6.35381
      N   14   -0.37995      1.99934     5.35714    0.02347     7.37995
      H   15    0.38225      0.00000     0.61480    0.00294     0.61775
      H   16    0.38906      0.00000     0.60827    0.00267     0.61094
      H   17    0.20298      0.00000     0.79465    0.00237     0.79702
      H   18    0.22187      0.00000     0.77596    0.00217     0.77813
      H   19    0.23818      0.00000     0.75912    0.00270     0.76182
      H   20    0.22684      0.00000     0.77089    0.00227     0.77316
      H   21    0.23600      0.00000     0.76199    0.00201     0.76400
      H   22    0.22907      0.00000     0.76869    0.00225     0.77093
      H   23    0.22784      0.00000     0.76988    0.00228     0.77216
      H   24    0.22778      0.00000     0.77005    0.00217     0.77222
      H   25    0.22785      0.00000     0.77008    0.00207     0.77215
      H   26    0.22744      0.00000     0.77027    0.00228     0.77256
      H   27    0.22783      0.00000     0.76992    0.00225     0.77217
      H   28    0.23389      0.00000     0.76407    0.00204     0.76611
      H   29    0.22699      0.00000     0.77061    0.00241     0.77301
      H   30    0.23334      0.00000     0.76455    0.00211     0.76666
      H   31    0.22734      0.00000     0.77035    0.00231     0.77266
      H   32    0.23493      0.00000     0.76323    0.00184     0.76507
      H   33    0.23418      0.00000     0.76238    0.00344     0.76582
      H   34    0.22712      0.00000     0.76973    0.00314     0.77288
      H   35    0.21639      0.00000     0.77476    0.00885     0.78361
      H   36    0.22618      0.00000     0.76783    0.00599     0.77382
      H   37    0.20812      0.00000     0.77019    0.02169     0.79188
      H   38    0.20616      0.00000     0.78012    0.01372     0.79384
      H   39    0.24613      0.00000     0.71876    0.03510     0.75387
      H   40    0.21628      0.00000     0.75855    0.02517     0.78372
      H   41    0.16941      0.00000     0.74392    0.08667     0.83059
      H   42    0.18562      0.00000     0.72682    0.08756     0.81438
 =======================================================================
   * Total *   -0.00000     27.99103    85.49092    0.51805   114.00000

                                 Natural Population      
 --------------------------------------------------------
   Core                      27.99103 ( 99.9680% of  28)
   Valence                   85.49092 ( 99.4081% of  86)
   Natural Minimal Basis    113.48195 ( 99.5456% of 114)
   Natural Rydberg Basis      0.51805 (  0.4544% of 114)
 --------------------------------------------------------

    Atom  No          Natural Electron Configuration
 ----------------------------------------------------------------------------
      N    1      [core]2S( 1.45)2p( 4.46)3p( 0.01)
      C    2      [core]2S( 1.02)2p( 3.23)3p( 0.01)
      C    3      [core]2S( 1.04)2p( 3.42)3p( 0.01)
      C    4      [core]2S( 1.03)2p( 3.42)3p( 0.01)
      C    5      [core]2S( 1.03)2p( 3.42)3p( 0.01)
      C    6      [core]2S( 1.03)2p( 3.42)3p( 0.01)
      C    7      [core]2S( 1.03)2p( 3.42)3p( 0.01)
      C    8      [core]2S( 1.03)2p( 3.42)3p( 0.01)
      C    9      [core]2S( 1.03)2p( 3.42)3p( 0.01)
      C   10      [core]2S( 1.03)2p( 3.42)3p( 0.01)
      C   11      [core]2S( 1.04)2p( 3.42)3p( 0.01)
      C   12      [core]2S( 1.04)2p( 3.42)3p( 0.01)
      C   13      [core]2S( 1.06)2p( 3.27)3p( 0.01)
      N   14      [core]2S( 1.52)2p( 3.84)3S( 0.02)
      H   15            1S( 0.61)
      H   16            1S( 0.61)
      H   17            1S( 0.79)
      H   18            1S( 0.78)
      H   19            1S( 0.76)
      H   20            1S( 0.77)
      H   21            1S( 0.76)
      H   22            1S( 0.77)
      H   23            1S( 0.77)
      H   24            1S( 0.77)
      H   25            1S( 0.77)
      H   26            1S( 0.77)
      H   27            1S( 0.77)
      H   28            1S( 0.76)
      H   29            1S( 0.77)
      H   30            1S( 0.76)
      H   31            1S( 0.77)
      H   32            1S( 0.76)
      H   33            1S( 0.76)
      H   34            1S( 0.77)
      H   35            1S( 0.77)2S( 0.01)
      H   36            1S( 0.77)2S( 0.01)
      H   37            1S( 0.77)2S( 0.02)
      H   38            1S( 0.78)2S( 0.01)
      H   39            1S( 0.72)2S( 0.03)
      H   40            1S( 0.76)2S( 0.02)
      H   41            1S( 0.74)2S( 0.09)
      H   42            1S( 0.73)2S( 0.09)


 NBO analysis skipped by request.
 1\1\GINC-CN34\SP\RB3LYP TD-FC\6-31G(d,p)\C12H28N2\QDUEZ\09-Jul-2024\0\
 \# TD(NStates=10, Root=1) B3LYP/6-31G** SCRF=(Solvent=water) volume po
 p=NPA density=current Geom=AllCheck Guess=Read\\QFTYSVGGYOXFRQ-UHFFFAO
 YSA-N_conf_0\\0,1\N,0,7.5400871576,-0.4408381354,0.156285122\C,0,6.143
 2377638,-0.0439255905,0.4059582299\C,0,5.4603783784,0.3675561136,-0.90
 11150752\C,0,4.0297964138,0.9049090103,-0.7368376891\C,0,2.9968847879,
 -0.1298541758,-0.2673841014\C,0,1.5691267009,0.4282597415,-0.202354202
 8\C,0,0.5374900524,-0.6043723992,0.2727769305\C,0,-0.8965473118,-0.069
 0140923,0.4238521778\C,0,-1.5734760189,0.3289315133,-0.8964936483\C,0,
 -3.0106514888,0.855836224,-0.7431605103\C,0,-4.0310959617,-0.184152433
 8,-0.2609742967\C,0,-5.4613627238,0.3647460016,-0.1914822389\C,0,-6.50
 22713156,-0.6423596839,0.3094274651\N,0,-6.2315091355,-1.05579064,1.69
 67927167\H,0,7.5399409255,-1.2917627075,-0.4053790131\H,0,7.9696860763
 ,-0.7107785102,1.0396311839\H,0,5.5538172155,-0.8308012565,0.904043269
 1\H,0,6.1559893715,0.8147185005,1.0901286252\H,0,6.0839195479,1.132245
 6134,-1.380841817\H,0,5.4481333983,-0.4934409415,-1.5858205447\H,0,3.7
 002255895,1.315603848,-1.7006039204\H,0,4.0394755356,1.7519969269,-0.0
 358929894\H,0,3.0179265628,-0.9934143117,-0.9480202146\H,0,3.273944326
 9,-0.5164013376,0.7221787591\H,0,1.2911968394,0.8107758304,-1.19327518
 57\H,0,1.5491015207,1.29446181,0.475062808\H,0,0.5333132608,-1.4579607
 747,-0.4205793348\H,0,0.8658362308,-1.0049713397,1.2416486597\H,0,-0.8
 892958147,0.7984221409,1.1002120284\H,0,-1.5000674445,-0.8368128189,0.
 9231735307\H,0,-1.5766128878,-0.5374195492,-1.5742837149\H,0,-0.973587
 4387,1.1006886468,-1.3944656718\H,0,-3.3435784261,1.253778238,-1.71180
 15084\H,0,-3.00931749,1.710675676,-0.0510921689\H,0,-3.7526610777,-0.5
 642273405,0.7272998267\H,0,-4.011964462,-1.049605389,-0.9399147067\H,0
 ,-5.4831240622,1.2514929981,0.4596934026\H,0,-5.7705521254,0.713720613
 7,-1.1860461807\H,0,-7.5071838541,-0.2073350342,0.1750860358\H,0,-6.46
 71731793,-1.5418981132,-0.3189216507\H,0,-6.9316268745,-1.7378712048,1
 .9824098481\H,0,-6.3758485629,-0.2538116669,2.3092813286\\Version=EM64
 L-G16RevA.03\State=1-A\HF=-583.6962502\RMSD=1.271e-09\Dipole=-0.278473
 5,-0.6184272,0.0150128\Quadrupole=-6.1901521,3.3796972,2.8104549,-6.99
 89047,8.6866942,0.3737478\PG=C01 [X(C12H28N2)]\\@


 TRUST EVERYONE, BUT CUT THE CARDS.
 Job cpu time:       0 days  2 hours 43 minutes 12.6 seconds.
 Elapsed time:       0 days  0 hours 37 minutes 23.5 seconds.
 File lengths (MBytes):  RWF=    992 Int=      0 D2E=      0 Chk=     64 Scr=      1
 Normal termination of Gaussian 16 at Tue Jul  9 20:38:36 2024.
