 Entering Gaussian System, Link 0=g16
 Initial command:
 /opt/sw/arch/manual/gaussian/G16_A03/g16/l1.exe "/scratch/1030828.jesse.materianova.be/Gau-76198.inp" -scrdir="/scratch/1030828.jesse.materianova.be/"
 Entering Link 1 = /opt/sw/arch/manual/gaussian/G16_A03/g16/l1.exe PID=     76205.
  
 Copyright (c) 1988,1990,1992,1993,1995,1998,2003,2009,2016,
            Gaussian, Inc.  All Rights Reserved.
  
 This is part of the Gaussian(R) 16 program.  It is based on
 the Gaussian(R) 09 system (copyright 2009, Gaussian, Inc.),
 the Gaussian(R) 03 system (copyright 2003, Gaussian, Inc.),
 the Gaussian(R) 98 system (copyright 1998, Gaussian, Inc.),
 the Gaussian(R) 94 system (copyright 1995, Gaussian, Inc.),
 the Gaussian 92(TM) system (copyright 1992, Gaussian, Inc.),
 the Gaussian 90(TM) system (copyright 1990, Gaussian, Inc.),
 the Gaussian 88(TM) system (copyright 1988, Gaussian, Inc.),
 the Gaussian 86(TM) system (copyright 1986, Carnegie Mellon
 University), and the Gaussian 82(TM) system (copyright 1983,
 Carnegie Mellon University). Gaussian is a federally registered
 trademark of Gaussian, Inc.
  
 This software contains proprietary and confidential information,
 including trade secrets, belonging to Gaussian, Inc.
  
 This software is provided under written license and may be
 used, copied, transmitted, or stored only in accord with that
 written license.
  
 The following legend is applicable only to US Government
 contracts under FAR:
  
                    RESTRICTED RIGHTS LEGEND
  
 Use, reproduction and disclosure by the US Government is
 subject to restrictions as set forth in subparagraphs (a)
 and (c) of the Commercial Computer Software - Restricted
 Rights clause in FAR 52.227-19.
  
 Gaussian, Inc.
 340 Quinnipiac St., Bldg. 40, Wallingford CT 06492
  
  
 ---------------------------------------------------------------
 Warning -- This program may not be used in any manner that
 competes with the business of Gaussian, Inc. or will provide
 assistance to any competitor of Gaussian, Inc.  The licensee
 of this program is prohibited from giving any competitor of
 Gaussian, Inc. access to this program.  By using this program,
 the user acknowledges that Gaussian, Inc. is engaged in the
 business of creating and licensing software in the field of
 computational chemistry and represents and warrants to the
 licensee that it is not a competitor of Gaussian, Inc. and that
 it will not use this program in any manner prohibited above.
 ---------------------------------------------------------------
  

 Cite this work as:
 Gaussian 16, Revision A.03,
 M. J. Frisch, G. W. Trucks, H. B. Schlegel, G. E. Scuseria, 
 M. A. Robb, J. R. Cheeseman, G. Scalmani, V. Barone, 
 G. A. Petersson, H. Nakatsuji, X. Li, M. Caricato, A. V. Marenich, 
 J. Bloino, B. G. Janesko, R. Gomperts, B. Mennucci, H. P. Hratchian, 
 J. V. Ortiz, A. F. Izmaylov, J. L. Sonnenberg, D. Williams-Young, 
 F. Ding, F. Lipparini, F. Egidi, J. Goings, B. Peng, A. Petrone, 
 T. Henderson, D. Ranasinghe, V. G. Zakrzewski, J. Gao, N. Rega, 
 G. Zheng, W. Liang, M. Hada, M. Ehara, K. Toyota, R. Fukuda, 
 J. Hasegawa, M. Ishida, T. Nakajima, Y. Honda, O. Kitao, H. Nakai, 
 T. Vreven, K. Throssell, J. A. Montgomery, Jr., J. E. Peralta, 
 F. Ogliaro, M. J. Bearpark, J. J. Heyd, E. N. Brothers, K. N. Kudin, 
 V. N. Staroverov, T. A. Keith, R. Kobayashi, J. Normand, 
 K. Raghavachari, A. P. Rendell, J. C. Burant, S. S. Iyengar, 
 J. Tomasi, M. Cossi, J. M. Millam, M. Klene, C. Adamo, R. Cammi, 
 J. W. Ochterski, R. L. Martin, K. Morokuma, O. Farkas, 
 J. B. Foresman, and D. J. Fox, Gaussian, Inc., Wallingford CT, 2016.
 
 ******************************************
 Gaussian 16:  EM64L-G16RevA.03 25-Dec-2016
                 9-Jul-2024 
 ******************************************
 %nprocshared=7
 Will use up to    7 processors via shared memory.
 %mem=14GB
 %Chk=QFTYSVGGYOXFRQ-UHFFFAOYSA-N_conf_4_0.chk
 -------------------------------------------------------
 # opt=CalcFc B3LYP/6-31G** SCRF=(Solvent=water) scf=xqc
 -------------------------------------------------------
 1/10=4,18=20,19=15,26=3,38=1/1,3;
 2/9=110,12=2,17=6,18=5,40=1/2;
 3/5=1,6=6,7=101,11=2,25=1,30=1,70=2201,71=2,72=1,74=-5,140=1/1,2,3;
 4//1;
 5/5=2,8=3,13=1,38=5,53=1/2,8;
 8/6=4,10=90,11=11/1;
 11/6=1,8=1,9=11,15=111,16=1/1,2,10;
 10/6=1,13=1/2;
 6/7=2,8=2,9=2,10=2,28=1/1;
 7/10=1,18=20,25=1/1,2,3,16;
 1/10=4,18=20,19=15,26=3/3(2);
 2/9=110/2;
 99//99;
 2/9=110/2;
 3/5=1,6=6,7=101,11=2,25=1,30=1,70=2205,71=1,72=1,74=-5/1,2,3;
 4/5=5,16=3,69=1/1;
 5/5=2,8=3,13=1,38=5,53=1/2,8;
 7//1,2,3,16;
 1/18=20,19=15,26=3/3(-5);
 2/9=110/2;
 6/7=2,8=2,9=2,10=2,19=2,28=1/1;
 99/9=1/99;
 ----------------------------------
 QFTYSVGGYOXFRQ-UHFFFAOYSA-N_conf_4
 ----------------------------------
 Symbolic Z-matrix:
 Charge =  0 Multiplicity = 1
 N                     6.48629  -0.53671  -1.00704 
 C                     5.1261   -0.85347  -1.42569 
 C                     4.12562  -0.86991  -0.26606 
 C                     3.9143    0.50499   0.37518 
 C                     2.93078   0.4851    1.55066 
 C                     1.51022   0.0021    1.2369 
 C                     0.79823   0.85004   0.17997 
 C                    -0.62692   0.37367  -0.12509 
 C                    -1.60485   0.59964   1.03121 
 C                    -3.02926   0.1241    0.72182 
 C                    -3.71628   0.93786  -0.37777 
 C                    -5.20918   0.61721  -0.52576 
 C                    -5.54715  -0.83517  -0.87022 
 N                    -4.97509  -1.24904  -2.14541 
 H                     6.52464   0.41122  -0.63629 
 H                     6.76145  -1.15101  -0.2417 
 H                     5.135    -1.84075  -1.90047 
 H                     4.80752  -0.13577  -2.18956 
 H                     3.17243  -1.24147  -0.6591 
 H                     4.45377  -1.5873    0.4964 
 H                     4.86999   0.88469   0.75528 
 H                     3.58004   1.22162  -0.38343 
 H                     3.34326  -0.15125   2.34379 
 H                     2.87391   1.49788   1.96917 
 H                     1.53032  -1.04702   0.92128 
 H                     0.94305   0.02927   2.17406 
 H                     1.36437   0.81209  -0.75762 
 H                     0.77657   1.89976   0.49638 
 H                    -0.97493   0.92153  -1.00804 
 H                    -0.61014  -0.68857  -0.39709 
 H                    -1.26049   0.05406   1.91657 
 H                    -1.62221   1.66248   1.30075 
 H                    -3.62052   0.19805   1.64292 
 H                    -3.00053  -0.93626   0.44628 
 H                    -3.21169   0.78298  -1.33727 
 H                    -3.62137   2.00613  -0.14627 
 H                    -5.62849   1.27543  -1.29772 
 H                    -5.72108   0.8786    0.409 
 H                    -5.21017  -1.51078  -0.07737 
 H                    -6.63654  -0.93582  -0.93068 
 H                    -5.24295  -2.21363  -2.33731 
 H                    -3.95802  -1.24659  -2.08515 
 

 GradGradGradGradGradGradGradGradGradGradGradGradGradGradGradGradGradGrad
 Berny optimization.
 Initialization pass.
                           ----------------------------
                           !    Initial Parameters    !
                           ! (Angstroms and Degrees)  !
 --------------------------                            --------------------------
 ! Name  Definition              Value          Derivative Info.                !
 --------------------------------------------------------------------------------
 ! R1    R(1,2)                  1.458          calculate D2E/DX2 analytically  !
 ! R2    R(1,15)                 1.0186         calculate D2E/DX2 analytically  !
 ! R3    R(1,16)                 1.0192         calculate D2E/DX2 analytically  !
 ! R4    R(2,3)                  1.5317         calculate D2E/DX2 analytically  !
 ! R5    R(2,17)                 1.0955         calculate D2E/DX2 analytically  !
 ! R6    R(2,18)                 1.0955         calculate D2E/DX2 analytically  !
 ! R7    R(3,4)                  1.5317         calculate D2E/DX2 analytically  !
 ! R8    R(3,19)                 1.096          calculate D2E/DX2 analytically  !
 ! R9    R(3,20)                 1.0971         calculate D2E/DX2 analytically  !
 ! R10   R(4,5)                  1.5328         calculate D2E/DX2 analytically  !
 ! R11   R(4,21)                 1.0963         calculate D2E/DX2 analytically  !
 ! R12   R(4,22)                 1.0958         calculate D2E/DX2 analytically  !
 ! R13   R(5,6)                  1.5329         calculate D2E/DX2 analytically  !
 ! R14   R(5,23)                 1.0973         calculate D2E/DX2 analytically  !
 ! R15   R(5,24)                 1.0973         calculate D2E/DX2 analytically  !
 ! R16   R(6,7)                  1.5307         calculate D2E/DX2 analytically  !
 ! R17   R(6,25)                 1.0958         calculate D2E/DX2 analytically  !
 ! R18   R(6,26)                 1.0958         calculate D2E/DX2 analytically  !
 ! R19   R(7,8)                  1.5333         calculate D2E/DX2 analytically  !
 ! R20   R(7,27)                 1.0959         calculate D2E/DX2 analytically  !
 ! R21   R(7,28)                 1.0966         calculate D2E/DX2 analytically  !
 ! R22   R(8,9)                  1.5312         calculate D2E/DX2 analytically  !
 ! R23   R(8,29)                 1.0958         calculate D2E/DX2 analytically  !
 ! R24   R(8,30)                 1.0966         calculate D2E/DX2 analytically  !
 ! R25   R(9,10)                 1.5332         calculate D2E/DX2 analytically  !
 ! R26   R(9,31)                 1.0955         calculate D2E/DX2 analytically  !
 ! R27   R(9,32)                 1.0966         calculate D2E/DX2 analytically  !
 ! R28   R(10,11)                1.5308         calculate D2E/DX2 analytically  !
 ! R29   R(10,33)                1.097          calculate D2E/DX2 analytically  !
 ! R30   R(10,34)                1.096          calculate D2E/DX2 analytically  !
 ! R31   R(11,12)                1.5341         calculate D2E/DX2 analytically  !
 ! R32   R(11,35)                1.0951         calculate D2E/DX2 analytically  !
 ! R33   R(11,36)                1.0972         calculate D2E/DX2 analytically  !
 ! R34   R(12,13)                1.5305         calculate D2E/DX2 analytically  !
 ! R35   R(12,37)                1.0977         calculate D2E/DX2 analytically  !
 ! R36   R(12,38)                1.0973         calculate D2E/DX2 analytically  !
 ! R37   R(13,14)                1.4576         calculate D2E/DX2 analytically  !
 ! R38   R(13,39)                1.0948         calculate D2E/DX2 analytically  !
 ! R39   R(13,40)                1.0957         calculate D2E/DX2 analytically  !
 ! R40   R(14,41)                1.0193         calculate D2E/DX2 analytically  !
 ! R41   R(14,42)                1.0189         calculate D2E/DX2 analytically  !
 ! A1    A(2,1,15)             109.9886         calculate D2E/DX2 analytically  !
 ! A2    A(2,1,16)             109.6662         calculate D2E/DX2 analytically  !
 ! A3    A(15,1,16)            106.1065         calculate D2E/DX2 analytically  !
 ! A4    A(1,2,3)              113.2233         calculate D2E/DX2 analytically  !
 ! A5    A(1,2,17)             108.219          calculate D2E/DX2 analytically  !
 ! A6    A(1,2,18)             109.2192         calculate D2E/DX2 analytically  !
 ! A7    A(3,2,17)             108.8898         calculate D2E/DX2 analytically  !
 ! A8    A(3,2,18)             110.1818         calculate D2E/DX2 analytically  !
 ! A9    A(17,2,18)            106.893          calculate D2E/DX2 analytically  !
 ! A10   A(2,3,4)              113.4186         calculate D2E/DX2 analytically  !
 ! A11   A(2,3,19)             107.4712         calculate D2E/DX2 analytically  !
 ! A12   A(2,3,20)             109.7437         calculate D2E/DX2 analytically  !
 ! A13   A(4,3,19)             109.54           calculate D2E/DX2 analytically  !
 ! A14   A(4,3,20)             109.7098         calculate D2E/DX2 analytically  !
 ! A15   A(19,3,20)            106.7191         calculate D2E/DX2 analytically  !
 ! A16   A(3,4,5)              113.4487         calculate D2E/DX2 analytically  !
 ! A17   A(3,4,21)             109.6182         calculate D2E/DX2 analytically  !
 ! A18   A(3,4,22)             109.8334         calculate D2E/DX2 analytically  !
 ! A19   A(5,4,21)             107.3345         calculate D2E/DX2 analytically  !
 ! A20   A(5,4,22)             110.1            calculate D2E/DX2 analytically  !
 ! A21   A(21,4,22)            106.2253         calculate D2E/DX2 analytically  !
 ! A22   A(4,5,6)              116.2157         calculate D2E/DX2 analytically  !
 ! A23   A(4,5,23)             108.7005         calculate D2E/DX2 analytically  !
 ! A24   A(4,5,24)             108.286          calculate D2E/DX2 analytically  !
 ! A25   A(6,5,23)             108.2748         calculate D2E/DX2 analytically  !
 ! A26   A(6,5,24)             108.7143         calculate D2E/DX2 analytically  !
 ! A27   A(23,5,24)            106.2038         calculate D2E/DX2 analytically  !
 ! A28   A(5,6,7)              113.4439         calculate D2E/DX2 analytically  !
 ! A29   A(5,6,25)             110.0984         calculate D2E/DX2 analytically  !
 ! A30   A(5,6,26)             107.2652         calculate D2E/DX2 analytically  !
 ! A31   A(7,6,25)             109.8788         calculate D2E/DX2 analytically  !
 ! A32   A(7,6,26)             109.6369         calculate D2E/DX2 analytically  !
 ! A33   A(25,6,26)            106.2355         calculate D2E/DX2 analytically  !
 ! A34   A(6,7,8)              113.4285         calculate D2E/DX2 analytically  !
 ! A35   A(6,7,27)             109.345          calculate D2E/DX2 analytically  !
 ! A36   A(6,7,28)             109.8912         calculate D2E/DX2 analytically  !
 ! A37   A(8,7,27)             107.4082         calculate D2E/DX2 analytically  !
 ! A38   A(8,7,28)             109.6614         calculate D2E/DX2 analytically  !
 ! A39   A(27,7,28)            106.8704         calculate D2E/DX2 analytically  !
 ! A40   A(7,8,9)              113.424          calculate D2E/DX2 analytically  !
 ! A41   A(7,8,29)             107.4668         calculate D2E/DX2 analytically  !
 ! A42   A(7,8,30)             109.6371         calculate D2E/DX2 analytically  !
 ! A43   A(9,8,29)             109.3818         calculate D2E/DX2 analytically  !
 ! A44   A(9,8,30)             109.8784         calculate D2E/DX2 analytically  !
 ! A45   A(29,8,30)            106.8151         calculate D2E/DX2 analytically  !
 ! A46   A(8,9,10)             113.2783         calculate D2E/DX2 analytically  !
 ! A47   A(8,9,31)             109.6375         calculate D2E/DX2 analytically  !
 ! A48   A(8,9,32)             109.801          calculate D2E/DX2 analytically  !
 ! A49   A(10,9,31)            107.4967         calculate D2E/DX2 analytically  !
 ! A50   A(10,9,32)            109.6026         calculate D2E/DX2 analytically  !
 ! A51   A(31,9,32)            106.7984         calculate D2E/DX2 analytically  !
 ! A52   A(9,10,11)            113.3921         calculate D2E/DX2 analytically  !
 ! A53   A(9,10,33)            108.0817         calculate D2E/DX2 analytically  !
 ! A54   A(9,10,34)            109.0542         calculate D2E/DX2 analytically  !
 ! A55   A(11,10,33)           108.9894         calculate D2E/DX2 analytically  !
 ! A56   A(11,10,34)           110.2122         calculate D2E/DX2 analytically  !
 ! A57   A(33,10,34)           106.8849         calculate D2E/DX2 analytically  !
 ! A58   A(10,11,12)           113.262          calculate D2E/DX2 analytically  !
 ! A59   A(10,11,35)           110.328          calculate D2E/DX2 analytically  !
 ! A60   A(10,11,36)           109.0992         calculate D2E/DX2 analytically  !
 ! A61   A(12,11,35)           109.5311         calculate D2E/DX2 analytically  !
 ! A62   A(12,11,36)           107.9414         calculate D2E/DX2 analytically  !
 ! A63   A(35,11,36)           106.4216         calculate D2E/DX2 analytically  !
 ! A64   A(11,12,13)           115.7829         calculate D2E/DX2 analytically  !
 ! A65   A(11,12,37)           108.3145         calculate D2E/DX2 analytically  !
 ! A66   A(11,12,38)           108.7838         calculate D2E/DX2 analytically  !
 ! A67   A(13,12,37)           109.0506         calculate D2E/DX2 analytically  !
 ! A68   A(13,12,38)           108.3464         calculate D2E/DX2 analytically  !
 ! A69   A(37,12,38)           106.1429         calculate D2E/DX2 analytically  !
 ! A70   A(12,13,14)           112.3144         calculate D2E/DX2 analytically  !
 ! A71   A(12,13,39)           110.7724         calculate D2E/DX2 analytically  !
 ! A72   A(12,13,40)           108.6119         calculate D2E/DX2 analytically  !
 ! A73   A(14,13,39)           109.7264         calculate D2E/DX2 analytically  !
 ! A74   A(14,13,40)           108.4119         calculate D2E/DX2 analytically  !
 ! A75   A(39,13,40)           106.816          calculate D2E/DX2 analytically  !
 ! A76   A(13,14,41)           109.2846         calculate D2E/DX2 analytically  !
 ! A77   A(13,14,42)           109.8371         calculate D2E/DX2 analytically  !
 ! A78   A(41,14,42)           106.0058         calculate D2E/DX2 analytically  !
 ! D1    D(15,1,2,3)           -64.2061         calculate D2E/DX2 analytically  !
 ! D2    D(15,1,2,17)          174.9889         calculate D2E/DX2 analytically  !
 ! D3    D(15,1,2,18)           58.9663         calculate D2E/DX2 analytically  !
 ! D4    D(16,1,2,3)            52.1207         calculate D2E/DX2 analytically  !
 ! D5    D(16,1,2,17)          -68.6844         calculate D2E/DX2 analytically  !
 ! D6    D(16,1,2,18)          175.2931         calculate D2E/DX2 analytically  !
 ! D7    D(1,2,3,4)             65.982          calculate D2E/DX2 analytically  !
 ! D8    D(1,2,3,19)          -172.7902         calculate D2E/DX2 analytically  !
 ! D9    D(1,2,3,20)           -57.107          calculate D2E/DX2 analytically  !
 ! D10   D(17,2,3,4)          -173.5934         calculate D2E/DX2 analytically  !
 ! D11   D(17,2,3,19)          -52.3656         calculate D2E/DX2 analytically  !
 ! D12   D(17,2,3,20)           63.3176         calculate D2E/DX2 analytically  !
 ! D13   D(18,2,3,4)           -56.6577         calculate D2E/DX2 analytically  !
 ! D14   D(18,2,3,19)           64.57           calculate D2E/DX2 analytically  !
 ! D15   D(18,2,3,20)         -179.7467         calculate D2E/DX2 analytically  !
 ! D16   D(2,3,4,5)           -179.0456         calculate D2E/DX2 analytically  !
 ! D17   D(2,3,4,21)           -59.0859         calculate D2E/DX2 analytically  !
 ! D18   D(2,3,4,22)            57.2671         calculate D2E/DX2 analytically  !
 ! D19   D(19,3,4,5)            60.8955         calculate D2E/DX2 analytically  !
 ! D20   D(19,3,4,21)         -179.1448         calculate D2E/DX2 analytically  !
 ! D21   D(19,3,4,22)          -62.7918         calculate D2E/DX2 analytically  !
 ! D22   D(20,3,4,5)           -55.938          calculate D2E/DX2 analytically  !
 ! D23   D(20,3,4,21)           64.0217         calculate D2E/DX2 analytically  !
 ! D24   D(20,3,4,22)         -179.6253         calculate D2E/DX2 analytically  !
 ! D25   D(3,4,5,6)            -59.6034         calculate D2E/DX2 analytically  !
 ! D26   D(3,4,5,23)            62.7868         calculate D2E/DX2 analytically  !
 ! D27   D(3,4,5,24)           177.7558         calculate D2E/DX2 analytically  !
 ! D28   D(21,4,5,6)           179.1468         calculate D2E/DX2 analytically  !
 ! D29   D(21,4,5,23)          -58.4631         calculate D2E/DX2 analytically  !
 ! D30   D(21,4,5,24)           56.506          calculate D2E/DX2 analytically  !
 ! D31   D(22,4,5,6)            63.9382         calculate D2E/DX2 analytically  !
 ! D32   D(22,4,5,23)         -173.6716         calculate D2E/DX2 analytically  !
 ! D33   D(22,4,5,24)          -58.7026         calculate D2E/DX2 analytically  !
 ! D34   D(4,5,6,7)            -59.8018         calculate D2E/DX2 analytically  !
 ! D35   D(4,5,6,25)            63.7946         calculate D2E/DX2 analytically  !
 ! D36   D(4,5,6,26)           178.9762         calculate D2E/DX2 analytically  !
 ! D37   D(23,5,6,7)           177.5847         calculate D2E/DX2 analytically  !
 ! D38   D(23,5,6,25)          -58.819          calculate D2E/DX2 analytically  !
 ! D39   D(23,5,6,26)           56.3627         calculate D2E/DX2 analytically  !
 ! D40   D(24,5,6,7)            62.6144         calculate D2E/DX2 analytically  !
 ! D41   D(24,5,6,25)         -173.7893         calculate D2E/DX2 analytically  !
 ! D42   D(24,5,6,26)          -58.6077         calculate D2E/DX2 analytically  !
 ! D43   D(5,6,7,8)           -179.5178         calculate D2E/DX2 analytically  !
 ! D44   D(5,6,7,27)            60.6342         calculate D2E/DX2 analytically  !
 ! D45   D(5,6,7,28)           -56.3739         calculate D2E/DX2 analytically  !
 ! D46   D(25,6,7,8)            56.7659         calculate D2E/DX2 analytically  !
 ! D47   D(25,6,7,27)          -63.0821         calculate D2E/DX2 analytically  !
 ! D48   D(25,6,7,28)          179.9099         calculate D2E/DX2 analytically  !
 ! D49   D(26,6,7,8)           -59.6365         calculate D2E/DX2 analytically  !
 ! D50   D(26,6,7,27)         -179.4846         calculate D2E/DX2 analytically  !
 ! D51   D(26,6,7,28)           63.5074         calculate D2E/DX2 analytically  !
 ! D52   D(6,7,8,9)             69.0767         calculate D2E/DX2 analytically  !
 ! D53   D(6,7,8,29)          -169.8943         calculate D2E/DX2 analytically  !
 ! D54   D(6,7,8,30)           -54.1554         calculate D2E/DX2 analytically  !
 ! D55   D(27,7,8,9)          -169.9784         calculate D2E/DX2 analytically  !
 ! D56   D(27,7,8,29)          -48.9494         calculate D2E/DX2 analytically  !
 ! D57   D(27,7,8,30)           66.7896         calculate D2E/DX2 analytically  !
 ! D58   D(28,7,8,9)           -54.1935         calculate D2E/DX2 analytically  !
 ! D59   D(28,7,8,29)           66.8355         calculate D2E/DX2 analytically  !
 ! D60   D(28,7,8,30)         -177.4256         calculate D2E/DX2 analytically  !
 ! D61   D(7,8,9,10)           179.9118         calculate D2E/DX2 analytically  !
 ! D62   D(7,8,9,31)           -60.0209         calculate D2E/DX2 analytically  !
 ! D63   D(7,8,9,32)            57.0187         calculate D2E/DX2 analytically  !
 ! D64   D(29,8,9,10)           59.9664         calculate D2E/DX2 analytically  !
 ! D65   D(29,8,9,31)         -179.9664         calculate D2E/DX2 analytically  !
 ! D66   D(29,8,9,32)          -62.9268         calculate D2E/DX2 analytically  !
 ! D67   D(30,8,9,10)          -56.9887         calculate D2E/DX2 analytically  !
 ! D68   D(30,8,9,31)           63.0785         calculate D2E/DX2 analytically  !
 ! D69   D(30,8,9,32)         -179.8819         calculate D2E/DX2 analytically  !
 ! D70   D(8,9,10,11)          -66.6421         calculate D2E/DX2 analytically  !
 ! D71   D(8,9,10,33)          172.415          calculate D2E/DX2 analytically  !
 ! D72   D(8,9,10,34)           56.5649         calculate D2E/DX2 analytically  !
 ! D73   D(31,9,10,11)         172.0781         calculate D2E/DX2 analytically  !
 ! D74   D(31,9,10,33)          51.1352         calculate D2E/DX2 analytically  !
 ! D75   D(31,9,10,34)         -64.7149         calculate D2E/DX2 analytically  !
 ! D76   D(32,9,10,11)          56.3607         calculate D2E/DX2 analytically  !
 ! D77   D(32,9,10,33)         -64.5823         calculate D2E/DX2 analytically  !
 ! D78   D(32,9,10,34)         179.5676         calculate D2E/DX2 analytically  !
 ! D79   D(9,10,11,12)        -170.4721         calculate D2E/DX2 analytically  !
 ! D80   D(9,10,11,35)          66.344          calculate D2E/DX2 analytically  !
 ! D81   D(9,10,11,36)         -50.2279         calculate D2E/DX2 analytically  !
 ! D82   D(33,10,11,12)        -50.042          calculate D2E/DX2 analytically  !
 ! D83   D(33,10,11,35)       -173.2258         calculate D2E/DX2 analytically  !
 ! D84   D(33,10,11,36)         70.2022         calculate D2E/DX2 analytically  !
 ! D85   D(34,10,11,12)         66.9598         calculate D2E/DX2 analytically  !
 ! D86   D(34,10,11,35)        -56.224          calculate D2E/DX2 analytically  !
 ! D87   D(34,10,11,36)       -172.796          calculate D2E/DX2 analytically  !
 ! D88   D(10,11,12,13)        -59.8516         calculate D2E/DX2 analytically  !
 ! D89   D(10,11,12,37)        177.3477         calculate D2E/DX2 analytically  !
 ! D90   D(10,11,12,38)         62.3917         calculate D2E/DX2 analytically  !
 ! D91   D(35,11,12,13)         63.7704         calculate D2E/DX2 analytically  !
 ! D92   D(35,11,12,37)        -59.0304         calculate D2E/DX2 analytically  !
 ! D93   D(35,11,12,38)       -173.9863         calculate D2E/DX2 analytically  !
 ! D94   D(36,11,12,13)        179.2476         calculate D2E/DX2 analytically  !
 ! D95   D(36,11,12,37)         56.4468         calculate D2E/DX2 analytically  !
 ! D96   D(36,11,12,38)        -58.5091         calculate D2E/DX2 analytically  !
 ! D97   D(11,12,13,14)        -61.0414         calculate D2E/DX2 analytically  !
 ! D98   D(11,12,13,39)         62.0445         calculate D2E/DX2 analytically  !
 ! D99   D(11,12,13,40)        179.0597         calculate D2E/DX2 analytically  !
 ! D100  D(37,12,13,14)         61.3702         calculate D2E/DX2 analytically  !
 ! D101  D(37,12,13,39)       -175.5439         calculate D2E/DX2 analytically  !
 ! D102  D(37,12,13,40)        -58.5286         calculate D2E/DX2 analytically  !
 ! D103  D(38,12,13,14)        176.4834         calculate D2E/DX2 analytically  !
 ! D104  D(38,12,13,39)        -60.4307         calculate D2E/DX2 analytically  !
 ! D105  D(38,12,13,40)         56.5845         calculate D2E/DX2 analytically  !
 ! D106  D(12,13,14,41)       -178.892          calculate D2E/DX2 analytically  !
 ! D107  D(12,13,14,42)         65.2094         calculate D2E/DX2 analytically  !
 ! D108  D(39,13,14,41)         57.4364         calculate D2E/DX2 analytically  !
 ! D109  D(39,13,14,42)        -58.4622         calculate D2E/DX2 analytically  !
 ! D110  D(40,13,14,41)        -58.877          calculate D2E/DX2 analytically  !
 ! D111  D(40,13,14,42)       -174.7756         calculate D2E/DX2 analytically  !
 --------------------------------------------------------------------------------
 Trust Radius=3.00D-01 FncErr=1.00D-07 GrdErr=1.00D-06 EigMax=2.50D+02 EigMin=1.00D-04
 Number of steps in this run=    240 maximum allowed number of steps=    252.
 GradGradGradGradGradGradGradGradGradGradGradGradGradGradGradGradGradGrad

                          Input orientation:                          
 ---------------------------------------------------------------------
 Center     Atomic      Atomic             Coordinates (Angstroms)
 Number     Number       Type             X           Y           Z
 ---------------------------------------------------------------------
      1          7           0        6.486287   -0.536713   -1.007041
      2          6           0        5.126096   -0.853473   -1.425693
      3          6           0        4.125624   -0.869906   -0.266062
      4          6           0        3.914302    0.504985    0.375182
      5          6           0        2.930778    0.485096    1.550661
      6          6           0        1.510216    0.002105    1.236896
      7          6           0        0.798227    0.850045    0.179973
      8          6           0       -0.626920    0.373672   -0.125094
      9          6           0       -1.604850    0.599636    1.031208
     10          6           0       -3.029259    0.124097    0.721821
     11          6           0       -3.716283    0.937857   -0.377771
     12          6           0       -5.209182    0.617213   -0.525763
     13          6           0       -5.547153   -0.835168   -0.870221
     14          7           0       -4.975094   -1.249044   -2.145414
     15          1           0        6.524638    0.411223   -0.636289
     16          1           0        6.761453   -1.151012   -0.241703
     17          1           0        5.134995   -1.840748   -1.900470
     18          1           0        4.807524   -0.135766   -2.189560
     19          1           0        3.172431   -1.241472   -0.659101
     20          1           0        4.453770   -1.587299    0.496402
     21          1           0        4.869988    0.884689    0.755277
     22          1           0        3.580039    1.221621   -0.383426
     23          1           0        3.343255   -0.151253    2.343786
     24          1           0        2.873906    1.497880    1.969167
     25          1           0        1.530321   -1.047019    0.921276
     26          1           0        0.943054    0.029274    2.174062
     27          1           0        1.364374    0.812089   -0.757619
     28          1           0        0.776574    1.899759    0.496380
     29          1           0       -0.974927    0.921531   -1.008036
     30          1           0       -0.610140   -0.688566   -0.397087
     31          1           0       -1.260494    0.054065    1.916568
     32          1           0       -1.622205    1.662482    1.300749
     33          1           0       -3.620520    0.198055    1.642922
     34          1           0       -3.000531   -0.936261    0.446280
     35          1           0       -3.211687    0.782983   -1.337270
     36          1           0       -3.621367    2.006134   -0.146275
     37          1           0       -5.628485    1.275425   -1.297721
     38          1           0       -5.721075    0.878600    0.408995
     39          1           0       -5.210167   -1.510776   -0.077375
     40          1           0       -6.636544   -0.935822   -0.930678
     41          1           0       -5.242950   -2.213626   -2.337309
     42          1           0       -3.958020   -1.246592   -2.085154
 ---------------------------------------------------------------------
                    Distance matrix (angstroms):
                    1          2          3          4          5
     1  N    0.000000
     2  C    1.457987   0.000000
     3  C    2.496557   1.531653   0.000000
     4  C    3.100126   2.560665   1.531723   0.000000
     5  C    4.497509   3.933176   2.562063   1.532797   0.000000
     6  C    5.485149   4.571212   3.140007   2.602896   1.532881
     7  C    5.973787   4.920426   3.772102   3.141194   2.561200
     8  C    7.225257   6.024503   4.914573   4.570581   3.934181
     9  C    8.420941   7.311192   6.056467   5.558810   4.566713
    10  C    9.693876   8.489833   7.290836   6.962634   6.028211
    11  C   10.327767   9.082658   8.048353   7.679853   6.935939
    12  C   11.762107  10.478109   9.456086   9.168547   8.401662
    13  C   12.037919  10.687710   9.691689   9.636710   8.915104
    14  N   11.539781  10.134521   9.300472   9.404859   8.897809
    15  H    1.018583   2.044147   2.744746   2.801021   4.207617
    16  H    1.019227   2.040774   2.650889   3.350991   4.534699
    17  H    2.079594   1.095538   2.152361   3.488717   4.709398
    18  H    2.092212   1.095483   2.168824   2.790396   4.230473
    19  H    3.405787   2.134248   1.095955   2.161070   2.814690
    20  H    2.737736   2.164480   1.097126   2.164111   2.779530
    21  H    2.781829   2.800612   2.162363   1.096350   2.133741
    22  H    3.453537   2.789736   2.164699   1.095803   2.169032
    23  H    4.610344   4.228547   2.817777   2.152242   1.097327
    24  H    5.103595   4.703860   3.488475   2.146871   1.097321
    25  H    5.342323   4.298293   2.859499   2.896601   2.169050
    26  H    6.416166   5.588857   4.109924   3.505793   2.132474
    27  H    5.302402   4.167850   3.270357   2.807077   2.808683
    28  H    6.387292   5.494815   4.412312   3.435902   2.784488
    29  H    7.602380   6.367696   5.456683   5.098172   4.689556
    30  H    7.124210   5.830062   4.741045   4.742524   4.208242
    31  H    8.301153   7.265182   5.884545   5.418276   4.229236
    32  H    8.712635   7.700850   6.473440   5.731438   4.709389
    33  H   10.474241   9.328740   8.049068   7.646889   6.558231
    34  H    9.605806   8.339857   7.161978   7.063792   6.198414
    35  H    9.792924   8.497320   7.597083   7.334132   6.794024
    36  H   10.458091   9.291522   8.264492   7.701407   6.937128
    37  H   12.253001  10.964014  10.040389   9.718897   9.055323
    38  H   12.370447  11.136754  10.023496   9.642677   8.735720
    39  H   11.773705  10.444537   9.359665   9.355429   8.538676
    40  H   13.129121  11.773340  10.782872  10.728539   9.985474
    41  H   11.922946  10.497532   9.688438   9.929940   9.445064
    42  H   10.523774   9.116502   8.294353   8.431769   7.979563
                    6          7          8          9         10
     6  C    0.000000
     7  C    1.530692   0.000000
     8  C    2.561334   1.533310   0.000000
     9  C    3.178520   2.561656   1.531157   0.000000
    10  C    4.570232   3.933223   2.559450   1.533231   0.000000
    11  C    5.549691   4.549680   3.150605   2.560813   1.530787
    12  C    6.973926   6.053200   4.606189   3.926280   2.559628
    13  C    7.412654   6.648811   5.121055   4.606067   3.129629
    14  N    7.420555   6.568472   5.061770   4.986691   3.727308
    15  H    5.368485   5.800917   7.169903   8.300881   9.654214
    16  H    5.575968   6.304134   7.544953   8.641765   9.920298
    17  H    5.135971   5.511458   6.423028   7.744400   8.797276
    18  H    4.757294   4.760355   5.835643   7.213370   8.364140
    19  H    2.811449   3.273428   4.162802   5.391589   6.498667
    20  H    3.426229   4.404971   5.481339   6.463403   7.679545
    21  H    3.506990   4.112349   5.590366   6.486981   7.935850
    22  H    2.897728   2.862510   4.299332   5.410280   6.790356
    23  H    2.146801   3.487385   4.704594   5.174016   6.581453
    24  H    2.152490   2.815910   4.231495   4.663246   6.187932
    25  H    1.095756   2.164335   2.786924   3.543001   4.711801
    26  H    1.095760   2.161256   2.805271   2.850130   4.230516
    27  H    2.157646   1.095921   2.134842   3.472943   4.686799
    28  H    2.165107   1.096578   2.164478   2.765419   4.205730
    29  H    3.472895   2.135544   1.095831   2.158457   2.801533
    30  H    2.764568   2.164212   1.096636   2.165396   2.786487
    31  H    2.853330   2.808501   2.161469   1.095486   2.135615
    32  H    3.545842   2.788312   2.164405   1.096629   2.163697
    33  H    5.150505   4.700067   3.481144   2.144385   1.097036
    34  H    4.674660   4.206230   2.770636   2.156164   1.095950
    35  H    5.434379   4.287882   2.884082   2.867966   2.169623
    36  H    5.680004   4.579933   3.410585   2.725994   2.155515
    37  H    7.681581   6.608112   5.215733   4.697898   3.487131
    38  H    7.331115   6.523386   5.146904   4.172323   2.813008
    39  H    7.012822   6.460689   4.955763   4.322165   2.840403
    40  H    8.482204   7.726492   6.203171   5.614675   4.106908
    41  H    7.955480   7.226244   5.735481   5.700625   4.441132
    42  H    6.518963   5.669971   4.190862   4.319454   3.258910
                   11         12         13         14         15
    11  C    0.000000
    12  C    1.534100   0.000000
    13  C    2.595806   1.530452   0.000000
    14  N    3.080861   2.482132   1.457622   0.000000
    15  H   10.257711  11.736148  12.138219  11.716560   0.000000
    16  H   10.684795  12.103859  12.328690  11.890343   1.628606
    17  H    9.401297  10.720699  10.778725  10.130351   2.932684
    18  H    8.780122  10.181827  10.461796   9.845860   2.379144
    19  H    7.230699   8.586264   8.731598   8.281989   3.737541
    20  H    8.595950   9.963801  10.121849   9.797810   3.092827
    21  H    8.660870  10.163773  10.682555  10.482960   2.213254
    22  H    7.301840   8.811127   9.368724   9.077394   3.064531
    23  H    7.643959   9.053675   9.478235   9.515933   4.395273
    24  H    7.018001   8.505090   9.188007   9.278047   4.614875
    25  H    5.757961   7.091156   7.303766   7.194847   5.430992
    26  H    5.389508   6.744237   7.220645   7.437502   6.260834
    27  H    5.096389   6.580530   7.106008   6.809045   5.177233
    28  H    4.677089   6.206366   7.024027   7.069351   6.044743
    29  H    2.812923   4.272483   4.900024   4.691093   7.526094
    30  H    3.506244   4.782552   4.961799   4.735357   7.223005
    31  H    3.475050   4.676991   5.189641   5.656504   8.200788
    32  H    2.779869   4.158742   5.133866   5.620933   8.466925
    33  H    2.153991   2.720797   3.330969   4.275565  10.400215
    34  H    2.168797   2.869893   2.868567   3.273165   9.680729
    35  H    1.095098   2.162408   2.879401   2.809241   9.768604
    36  H    1.097185   2.143425   3.507955   4.052816  10.282280
    37  H    2.148669   1.097715   2.154988   2.741979  12.201752
    38  H    2.154462   1.097330   2.145610   3.407105  12.299129
    39  H    2.884048   2.174716   1.094811   2.097748  11.904290
    40  H    3.513447   2.147845   1.095700   2.081852  13.233213
    41  H    4.012773   3.361024   2.035935   1.019308  12.176183
    42  H    2.783058   2.733290   2.042224   1.018860  10.711381
                   16         17         18         19         20
    16  H    0.000000
    17  H    2.423347   0.000000
    18  H    2.939849   1.760050   0.000000
    19  H    3.614344   2.398289   2.497683   0.000000
    20  H    2.461818   2.504656   3.073514   1.759719   0.000000
    21  H    2.952234   3.814607   3.117257   3.066386   2.520116
    22  H    3.971256   3.754653   2.571253   2.511765   3.070429
    23  H    4.400949   4.906978   4.763985   3.199232   2.590039
    24  H    5.197845   5.588654   4.868541   3.808012   3.766077
    25  H    5.359858   4.646066   4.609527   2.287340   3.003160
    26  H    6.409584   6.137684   5.831172   3.822529   4.213428
    27  H    5.766143   4.749867   3.847618   2.737862   4.107798
    28  H    6.758014   6.223514   5.254160   4.116139   5.067677
    29  H    8.045761   6.764449   5.995883   4.690513   6.166710
    30  H    7.387718   6.049319   5.733204   3.831736   5.220079
    31  H    8.394164   7.685206   7.329200   5.288035   6.112591
    32  H    8.976672   8.257129   7.533749   5.938223   6.937256
    33  H   10.637535   9.662887   9.264517   7.315444   8.348422
    34  H    9.788554   8.515405   8.279745   6.278574   7.482845
    35  H   10.217834   8.767456   8.116542   6.731664   8.230421
    36  H   10.852633   9.723661   8.933586   7.547558   8.861920
    37  H   12.669386  11.221691  10.568686   9.175987  10.633247
    38  H   12.663185  11.427281  10.891870   9.204890  10.469755
    39  H   11.978153  10.509755  10.329866   8.407074   9.681258
    40  H   13.417426  11.846034  11.540866   9.817493  11.200716
    41  H   12.232188  10.393826  10.264082   8.635978  10.121689
    42  H   10.877250   9.114278   8.836267   7.271657   8.805608
                   21         22         23         24         25
    21  H    0.000000
    22  H    1.753321   0.000000
    23  H    2.434636   3.062440   0.000000
    24  H    2.415342   2.471768   1.755069   0.000000
    25  H    3.861661   3.324201   2.472380   3.062647   0.000000
    26  H    4.262100   3.862140   2.412957   2.434538   1.752930
    27  H    3.818829   2.284055   3.802988   3.191294   2.510480
    28  H    4.225332   3.015517   3.769272   2.594110   3.071185
    29  H    6.105216   4.607375   5.570662   4.899942   3.724742
    30  H    5.816775   4.605062   4.840498   4.745343   2.539320
    31  H    6.294549   5.484881   4.628086   4.379570   3.160957
    32  H    6.561332   5.485813   5.388261   4.548504   4.174185
    33  H    8.564351   7.549954   7.007666   6.631255   5.348097
    34  H    8.084331   6.974867   6.667863   6.538596   4.557029
    35  H    8.348807   6.872391   7.575635   6.962618   5.562067
    36  H    8.612406   7.247892   7.704588   6.849962   6.082870
    37  H   10.704457   9.253958   9.787140   9.111130   7.846414
    38  H   10.596725   9.341109   9.325562   8.757360   7.520186
    39  H   10.394282   9.210178   8.992851   8.865246   6.829829
    40  H   11.771023  10.456223  10.532524  10.236243   8.374950
    41  H   11.019762   9.667663   9.994446   9.909811   7.606350
    42  H    9.515468   8.112354   8.609524   8.405050   6.261018
                   26         27         28         29         30
    26  H    0.000000
    27  H    3.063505   0.000000
    28  H    2.518144   1.760980   0.000000
    29  H    3.821063   2.355210   2.507580   0.000000
    30  H    3.088448   2.506123   3.069313   1.760323   0.000000
    31  H    2.218681   3.823063   3.094054   3.063879   2.515445
    32  H    3.163953   3.725548   2.541152   2.509675   3.071538
    33  H    4.597478   5.566759   4.852298   3.814467   3.743010
    34  H    4.412409   4.853710   4.723563   3.109582   2.546879
    35  H    5.491758   4.612720   4.529425   2.265102   3.133281
    36  H    5.488704   5.163051   4.445920   2.987079   4.048679
    37  H    7.536000   7.028974   6.680821   4.675977   5.463716
    38  H    6.946038   7.181157   6.577983   4.953357   5.406241
    39  H    6.730740   7.005929   6.913901   4.971872   4.683856
    40  H    8.247492   8.191449   8.064201   5.958998   6.055031
    41  H    7.978077   7.436875   7.822046   5.460054   5.249114
    42  H    6.617347   5.859044   6.243415   3.841847   3.790682
                   31         32         33         34         35
    31  H    0.000000
    32  H    1.759850   0.000000
    33  H    2.380196   2.500978   0.000000
    34  H    2.483992   3.063227   1.761536   0.000000
    35  H    3.863410   3.202985   3.064446   2.486250   0.000000
    36  H    3.693185   2.491711   2.543694   3.065004   1.755678
    37  H    5.559021   4.790839   3.720219   3.852173   2.466774
    38  H    4.780106   4.267368   2.529437   3.270546   3.058695
    39  H    4.693022   4.984202   2.899397   2.342387   3.292809
    40  H    6.163489   6.072400   4.123772   3.888008   3.853473
    41  H    6.252827   6.431910   4.928562   3.795849   3.755765
    42  H    4.998213   5.038163   4.012414   2.724198   2.288126
                   36         37         38         39         40
    36  H    0.000000
    37  H    2.426579   0.000000
    38  H    2.447128   1.754686   0.000000
    39  H    3.859753   3.070367   2.491325   0.000000
    40  H    4.285054   2.457747   2.434119   1.758763   0.000000
    41  H    5.023598   3.660991   4.163250   2.366934   2.356585
    42  H    3.801686   3.125872   3.720966   2.380934   2.933238
                   41         42
    41  H    0.000000
    42  H    1.627815   0.000000
 Stoichiometry    C12H28N2
 Framework group  C1[X(C12H28N2)]
 Deg. of freedom   120
 Full point group                 C1      NOp   1
 Largest Abelian subgroup         C1      NOp   1
 Largest concise Abelian subgroup C1      NOp   1
                         Standard orientation:                         
 ---------------------------------------------------------------------
 Center     Atomic      Atomic             Coordinates (Angstroms)
 Number     Number       Type             X           Y           Z
 ---------------------------------------------------------------------
      1          7           0        6.427209    1.211564    0.266968
      2          6           0        5.055062    1.695258    0.172225
      3          6           0        4.107556    0.696385   -0.498929
      4          6           0        3.902688   -0.587214    0.311365
      5          6           0        2.972872   -1.597122   -0.370541
      6          6           0        1.547784   -1.114683   -0.663966
      7          6           0        0.775826   -0.697243    0.590165
      8          6           0       -0.653563   -0.225822    0.297508
      9          6           0       -1.582632   -1.351038   -0.166347
     10          6           0       -3.011489   -0.876395   -0.455963
     11          6           0       -3.759853   -0.403917    0.793047
     12          6           0       -5.252458   -0.150423    0.545395
     13          6           0       -5.581810    0.908307   -0.509547
     14          7           0       -5.060395    2.222776   -0.156046
     15          1           0        6.466630    0.392118    0.870678
     16          1           0        6.746074    0.902498   -0.650434
     17          1           0        5.058850    2.624936   -0.407335
     18          1           0        4.691229    1.946452    1.174528
     19          1           0        3.143979    1.199567   -0.638371
     20          1           0        4.480885    0.446485   -1.499858
     21          1           0        4.868048   -1.083756    0.464691
     22          1           0        3.523432   -0.340339    1.309364
     23          1           0        3.430487   -1.913866   -1.316261
     24          1           0        2.918248   -2.494351    0.258831
     25          1           0        1.570848   -0.285895   -1.380388
     26          1           0        1.022500   -1.936618   -1.163155
     27          1           0        1.300253    0.130799    1.080437
     28          1           0        0.751242   -1.527056    1.306607
     29          1           0       -1.049339    0.215981    1.218929
     30          1           0       -0.631666    0.573070   -0.453427
     31          1           0       -1.190433   -1.796211   -1.087265
     32          1           0       -1.605221   -2.148202    0.586391
     33          1           0       -3.562318   -1.710523   -0.907964
     34          1           0       -2.977848   -0.075171   -1.202967
     35          1           0       -3.295987    0.503448    1.193995
     36          1           0       -3.672077   -1.168635    1.574915
     37          1           0       -5.716304    0.136549    1.498008
     38          1           0       -5.726442   -1.094155    0.247334
     39          1           0       -5.198977    0.610642   -1.491099
     40          1           0       -6.671035    0.981768   -0.603091
     41          1           0       -5.320838    2.893544   -0.878007
     42          1           0       -4.041822    2.199980   -0.148028
 ---------------------------------------------------------------------
 Rotational constants (GHZ):           1.4249620           0.1522751           0.1426709
 Standard basis: 6-31G(d,p) (6D, 7F)
 There are   350 symmetry adapted cartesian basis functions of A   symmetry.
 There are   350 symmetry adapted basis functions of A   symmetry.
   350 basis functions,   588 primitive gaussians,   350 cartesian basis functions
    57 alpha electrons       57 beta electrons
       nuclear repulsion energy       899.6045087864 Hartrees.
 NAtoms=   42 NActive=   42 NUniq=   42 SFac= 1.00D+00 NAtFMM=   60 NAOKFM=F Big=F
 Integral buffers will be    131072 words long.
 Raffenetti 2 integral format.
 Two-electron integral symmetry is turned on.
 Force inversion solution in PCM.
 ------------------------------------------------------------------------------
 Polarizable Continuum Model (PCM)
 =================================
 Model                : PCM.
 Atomic radii         : UFF (Universal Force Field).
 Polarization charges : Total charges.
 Charge compensation  : None.
 Solution method      : Matrix inversion.
 Cavity type          : Scaled VdW (van der Waals Surface) (Alpha=1.100).
 Cavity algorithm     : GePol (No added spheres)
                        Default sphere list used, NSphG=   42.
                        Lebedev-Laikov grids with approx.  5.0 points / Ang**2.
                        Smoothing algorithm: York/Karplus (Gamma=1.0000).
                        Polarization charges: spherical gaussians, with
                                              point-specific exponents (IZeta= 3).
                        Self-potential: point-specific (ISelfS= 7).
                        Self-field    : sphere-specific E.n sum rule (ISelfD= 2).
 1st derivatives      : Analytical E(r).r(x)/FMM algorithm (CHGder, D1EAlg=3).
                        Cavity 1st derivative terms included.
 2nd derivatives      : Analytical E(r).r(xy)/FMM algorithm (CHGder, D2EAlg=3).
                        Cavity 2nd derivative terms included.
 Solvent              : Water, Eps=  78.355300 Eps(inf)=   1.777849
 ------------------------------------------------------------------------------
 One-electron integrals computed using PRISM.
 NBasis=   350 RedAO= T EigKep=  2.69D-03  NBF=   350
 NBsUse=   350 1.00D-06 EigRej= -1.00D+00 NBFU=   350
 ExpMin= 1.61D-01 ExpMax= 4.17D+03 ExpMxC= 6.27D+02 IAcc=3 IRadAn=         5 AccDes= 0.00D+00
 Harris functional with IExCor=  402 and IRadAn=       5 diagonalized for initial guess.
 HarFok:  IExCor=  402 AccDes= 0.00D+00 IRadAn=         5 IDoV= 1 UseB2=F ITyADJ=14
 ICtDFT=  3500011 ScaDFX=  1.000000  1.000000  1.000000  1.000000
 FoFCou: FMM=F IPFlag=           0 FMFlag=      100000 FMFlg1=           0
         NFxFlg=           0 DoJE=T BraDBF=F KetDBF=T FulRan=T
         wScrn=  0.000000 ICntrl=       500 IOpCl=  0 I1Cent=   200000004 NGrid=           0
         NMat0=    1 NMatS0=      1 NMatT0=    0 NMatD0=    1 NMtDS0=    0 NMtDT0=    0
 Petite list used in FoFCou.
 Requested convergence on RMS density matrix=1.00D-08 within  32 cycles.
 Requested convergence on MAX density matrix=1.00D-06.
 Requested convergence on             energy=1.00D-06.
 No special actions if energy rises.
 Inv3:  Mode=1 IEnd=    21853803.
 Iteration    1 A*A^-1 deviation from unit magnitude is 8.44D-15 for   2040.
 Iteration    1 A*A^-1 deviation from orthogonality  is 4.88D-15 for   2264   1653.
 Iteration    1 A^-1*A deviation from unit magnitude is 7.99D-15 for   2040.
 Iteration    1 A^-1*A deviation from orthogonality  is 3.83D-15 for   2093   1796.
 Error on total polarization charges =  0.01232
 SCF Done:  E(RB3LYP) =  -583.690774076     A.U. after   11 cycles
            NFock= 11  Conv=0.18D-08     -V/T= 2.0097
 QCSCF skips out because SCF is already converged.
 DoSCS=F DFT=T ScalE2(SS,OS)=  1.000000  1.000000
 Range of M.O.s used for correlation:     1   350
 NBasis=   350 NAE=    57 NBE=    57 NFC=     0 NFV=     0
 NROrb=    350 NOA=    57 NOB=    57 NVA=   293 NVB=   293
 Symmetrizing basis deriv contribution to polar:
 IMax=3 JMax=2 DiffMx= 0.00D+00
 G2DrvN: will do    43 centers at a time, making    1 passes.
 Calling FoFCou, ICntrl=  3107 FMM=F I1Cent=   0 AccDes= 0.00D+00.
 NEqPCM:  Using equilibrium solvation (IEInf=0, Eps=  78.3553, EpsInf=   1.7778)
 G2PCM: DoFxE=T DoFxN=T DoGrad=T DoDP/DQ/DG/TGxP=FFFF NFrqRd=   0 IEInf=0 SqF1=F DoCFld=F IF1Alg=4.
 End of G2Drv F.D. properties file   721 does not exist.
 End of G2Drv F.D. properties file   722 does not exist.
 End of G2Drv F.D. properties file   788 does not exist.
          IDoAtm=111111111111111111111111111111111111111111
 NEqPCM:  Using equilibrium solvation (IEInf=0, Eps=  78.3553, EpsInf=   1.7778)
          Differentiating once with respect to nuclear coordinates.
 CalDSu exits because no D1Ps are significant.
          There are   129 degrees of freedom in the 1st order CPHF.  IDoFFX=6 NUNeed=     0.
    123 vectors produced by pass  0 Test12= 1.67D-14 1.00D-09 XBig12= 7.27D-02 6.45D-02.
 AX will form   123 AO Fock derivatives at one time.
    123 vectors produced by pass  1 Test12= 1.67D-14 1.00D-09 XBig12= 1.18D-02 2.39D-02.
    123 vectors produced by pass  2 Test12= 1.67D-14 1.00D-09 XBig12= 2.04D-04 2.22D-03.
    123 vectors produced by pass  3 Test12= 1.67D-14 1.00D-09 XBig12= 5.69D-07 8.87D-05.
    123 vectors produced by pass  4 Test12= 1.67D-14 1.00D-09 XBig12= 4.23D-10 1.75D-06.
     45 vectors produced by pass  5 Test12= 1.67D-14 1.00D-09 XBig12= 2.51D-13 4.51D-08.
      1 vectors produced by pass  6 Test12= 1.67D-14 1.00D-09 XBig12= 2.18D-16 2.19D-09.
 InvSVY:  IOpt=1 It=  1 EMax= 5.27D-16
 Solved reduced A of dimension   661 with   129 vectors.
 End of Minotr F.D. properties file   721 does not exist.
 End of Minotr F.D. properties file   722 does not exist.
 End of Minotr F.D. properties file   788 does not exist.

 **********************************************************************

            Population analysis using the SCF density.

 **********************************************************************

 Orbital symmetries:
       Occupied  (A) (A) (A) (A) (A) (A) (A) (A) (A) (A) (A) (A)
                 (A) (A) (A) (A) (A) (A) (A) (A) (A) (A) (A) (A)
                 (A) (A) (A) (A) (A) (A) (A) (A) (A) (A) (A) (A)
                 (A) (A) (A) (A) (A) (A) (A) (A) (A) (A) (A) (A)
                 (A) (A) (A) (A) (A) (A) (A) (A) (A)
       Virtual   (A) (A) (A) (A) (A) (A) (A) (A) (A) (A) (A) (A)
                 (A) (A) (A) (A) (A) (A) (A) (A) (A) (A) (A) (A)
                 (A) (A) (A) (A) (A) (A) (A) (A) (A) (A) (A) (A)
                 (A) (A) (A) (A) (A) (A) (A) (A) (A) (A) (A) (A)
                 (A) (A) (A) (A) (A) (A) (A) (A) (A) (A) (A) (A)
                 (A) (A) (A) (A) (A) (A) (A) (A) (A) (A) (A) (A)
                 (A) (A) (A) (A) (A) (A) (A) (A) (A) (A) (A) (A)
                 (A) (A) (A) (A) (A) (A) (A) (A) (A) (A) (A) (A)
                 (A) (A) (A) (A) (A) (A) (A) (A) (A) (A) (A) (A)
                 (A) (A) (A) (A) (A) (A) (A) (A) (A) (A) (A) (A)
                 (A) (A) (A) (A) (A) (A) (A) (A) (A) (A) (A) (A)
                 (A) (A) (A) (A) (A) (A) (A) (A) (A) (A) (A) (A)
                 (A) (A) (A) (A) (A) (A) (A) (A) (A) (A) (A) (A)
                 (A) (A) (A) (A) (A) (A) (A) (A) (A) (A) (A) (A)
                 (A) (A) (A) (A) (A) (A) (A) (A) (A) (A) (A) (A)
                 (A) (A) (A) (A) (A) (A) (A) (A) (A) (A) (A) (A)
                 (A) (A) (A) (A) (A) (A) (A) (A) (A) (A) (A) (A)
                 (A) (A) (A) (A) (A) (A) (A) (A) (A) (A) (A) (A)
                 (A) (A) (A) (A) (A) (A) (A) (A) (A) (A) (A) (A)
                 (A) (A) (A) (A) (A) (A) (A) (A) (A) (A) (A) (A)
                 (A) (A) (A) (A) (A) (A) (A) (A) (A) (A) (A) (A)
                 (A) (A) (A) (A) (A) (A) (A) (A) (A) (A) (A) (A)
                 (A) (A) (A) (A) (A) (A) (A) (A) (A) (A) (A) (A)
                 (A) (A) (A) (A) (A) (A) (A) (A) (A) (A) (A) (A)
                 (A) (A) (A) (A) (A)
 The electronic state is 1-A.
 Alpha  occ. eigenvalues --  -14.30606 -14.30515 -10.19874 -10.19757 -10.17312
 Alpha  occ. eigenvalues --  -10.17254 -10.17192 -10.17170 -10.17160 -10.17054
 Alpha  occ. eigenvalues --  -10.17036 -10.17018 -10.16966 -10.16961  -0.87603
 Alpha  occ. eigenvalues --   -0.87486  -0.80907  -0.79205  -0.76539  -0.73451
 Alpha  occ. eigenvalues --   -0.70509  -0.66872  -0.64685  -0.61119  -0.59187
 Alpha  occ. eigenvalues --   -0.57298  -0.55005  -0.54356  -0.48908  -0.48447
 Alpha  occ. eigenvalues --   -0.46789  -0.45901  -0.45368  -0.44842  -0.43598
 Alpha  occ. eigenvalues --   -0.42303  -0.41634  -0.40903  -0.40150  -0.39240
 Alpha  occ. eigenvalues --   -0.38977  -0.37130  -0.37029  -0.36641  -0.34897
 Alpha  occ. eigenvalues --   -0.34191  -0.33532  -0.33081  -0.32310  -0.31746
 Alpha  occ. eigenvalues --   -0.31473  -0.30836  -0.30535  -0.29641  -0.29157
 Alpha  occ. eigenvalues --   -0.22984  -0.22963
 Alpha virt. eigenvalues --    0.07429   0.08075   0.10082   0.10684   0.11222
 Alpha virt. eigenvalues --    0.11568   0.11688   0.12443   0.13798   0.14338
 Alpha virt. eigenvalues --    0.14576   0.15285   0.16117   0.16835   0.16965
 Alpha virt. eigenvalues --    0.17654   0.18044   0.18299   0.18640   0.18880
 Alpha virt. eigenvalues --    0.19244   0.19773   0.20233   0.21637   0.22193
 Alpha virt. eigenvalues --    0.22579   0.22894   0.23707   0.23988   0.24681
 Alpha virt. eigenvalues --    0.25495   0.25687   0.26018   0.26773   0.27219
 Alpha virt. eigenvalues --    0.27962   0.28649   0.29140   0.29944   0.31146
 Alpha virt. eigenvalues --    0.31533   0.49855   0.50628   0.51288   0.52402
 Alpha virt. eigenvalues --    0.52653   0.53101   0.54308   0.54672   0.55050
 Alpha virt. eigenvalues --    0.55457   0.57371   0.57795   0.59590   0.60962
 Alpha virt. eigenvalues --    0.61653   0.63913   0.64781   0.65533   0.66554
 Alpha virt. eigenvalues --    0.67425   0.68250   0.69236   0.69990   0.70645
 Alpha virt. eigenvalues --    0.70850   0.72138   0.72864   0.73244   0.74163
 Alpha virt. eigenvalues --    0.75949   0.76328   0.78697   0.79591   0.82039
 Alpha virt. eigenvalues --    0.82766   0.83624   0.84126   0.85524   0.85988
 Alpha virt. eigenvalues --    0.86701   0.86900   0.87235   0.87563   0.87653
 Alpha virt. eigenvalues --    0.87858   0.88213   0.89063   0.89451   0.91449
 Alpha virt. eigenvalues --    0.91803   0.92882   0.93758   0.94085   0.94369
 Alpha virt. eigenvalues --    0.94893   0.95486   0.95604   0.96811   0.97372
 Alpha virt. eigenvalues --    0.97904   0.98387   0.99571   1.00353   1.01278
 Alpha virt. eigenvalues --    1.02597   1.03244   1.05344   1.07926   1.10279
 Alpha virt. eigenvalues --    1.10942   1.13804   1.16299   1.19047   1.24766
 Alpha virt. eigenvalues --    1.28172   1.29332   1.31382   1.33710   1.34079
 Alpha virt. eigenvalues --    1.37346   1.39609   1.41769   1.43487   1.46567
 Alpha virt. eigenvalues --    1.47155   1.49001   1.53140   1.56455   1.57406
 Alpha virt. eigenvalues --    1.61106   1.62597   1.62981   1.64653   1.65856
 Alpha virt. eigenvalues --    1.67279   1.68768   1.69192   1.71057   1.72404
 Alpha virt. eigenvalues --    1.74451   1.75665   1.77362   1.78238   1.79675
 Alpha virt. eigenvalues --    1.80464   1.82010   1.83134   1.85305   1.85824
 Alpha virt. eigenvalues --    1.87781   1.89158   1.89449   1.89811   1.90573
 Alpha virt. eigenvalues --    1.92443   1.93621   1.96105   1.96636   1.97252
 Alpha virt. eigenvalues --    1.98963   2.01603   2.02924   2.03745   2.04544
 Alpha virt. eigenvalues --    2.05024   2.05703   2.08536   2.11807   2.12502
 Alpha virt. eigenvalues --    2.12813   2.13312   2.14701   2.15492   2.16343
 Alpha virt. eigenvalues --    2.17434   2.18884   2.19716   2.20544   2.21799
 Alpha virt. eigenvalues --    2.23465   2.23930   2.24134   2.24924   2.26261
 Alpha virt. eigenvalues --    2.26314   2.27164   2.27515   2.28758   2.29135
 Alpha virt. eigenvalues --    2.29303   2.30175   2.31723   2.32714   2.33373
 Alpha virt. eigenvalues --    2.34683   2.35708   2.36707   2.37646   2.40192
 Alpha virt. eigenvalues --    2.41469   2.42366   2.43618   2.46661   2.47950
 Alpha virt. eigenvalues --    2.50555   2.51540   2.53040   2.54001   2.55165
 Alpha virt. eigenvalues --    2.57824   2.58412   2.59909   2.60793   2.61875
 Alpha virt. eigenvalues --    2.63227   2.64407   2.65114   2.66619   2.68035
 Alpha virt. eigenvalues --    2.68804   2.70179   2.71649   2.72452   2.74860
 Alpha virt. eigenvalues --    2.76674   2.76792   2.78811   2.79884   2.81795
 Alpha virt. eigenvalues --    2.82138   2.83808   2.84916   2.86005   2.86788
 Alpha virt. eigenvalues --    2.87443   2.88608   2.89080   2.89706   2.91113
 Alpha virt. eigenvalues --    2.91911   2.92154   2.92317   2.92660   2.93297
 Alpha virt. eigenvalues --    2.94257   2.94991   2.97508   2.98341   2.99186
 Alpha virt. eigenvalues --    3.00330   3.23038   3.24755   3.27420   3.29797
 Alpha virt. eigenvalues --    3.30422   3.30797   3.31376   3.31860   3.32557
 Alpha virt. eigenvalues --    3.33492   3.33737   3.34648   3.36120   3.37280
 Alpha virt. eigenvalues --    3.38890   3.40778   3.42948   3.46617   3.49381
 Alpha virt. eigenvalues --    3.51167   3.52494   3.54636   3.55613   3.57290
 Alpha virt. eigenvalues --    3.57701   3.58953   3.60174   3.60680   3.97578
 Alpha virt. eigenvalues --    3.97690   4.25518   4.31287   4.37834   4.45228
 Alpha virt. eigenvalues --    4.52779   4.55826   4.61348   4.63122   4.66325
 Alpha virt. eigenvalues --    4.69917   4.73600   4.78847
          Condensed to atoms (all electrons):
               1          2          3          4          5          6
     1  N    6.760371   0.329045  -0.074329  -0.007861   0.000228  -0.000006
     2  C    0.329045   4.794614   0.368333  -0.038149   0.003944   0.000129
     3  C   -0.074329   0.368333   4.999276   0.379292  -0.041520  -0.004528
     4  C   -0.007861  -0.038149   0.379292   4.924328   0.371617  -0.044470
     5  C    0.000228   0.003944  -0.041520   0.371617   4.920697   0.371265
     6  C   -0.000006   0.000129  -0.004528  -0.044470   0.371265   4.912163
     7  C   -0.000001  -0.000009  -0.001959  -0.004567  -0.042331   0.383346
     8  C   -0.000000   0.000000  -0.000002   0.000148   0.004079  -0.039543
     9  C    0.000000  -0.000000  -0.000000  -0.000000   0.000143  -0.005993
    10  C    0.000000   0.000000   0.000000   0.000000  -0.000000   0.000158
    11  C    0.000000  -0.000000   0.000000  -0.000000   0.000000  -0.000001
    12  C    0.000000   0.000000   0.000000   0.000000  -0.000000   0.000000
    13  C    0.000000  -0.000000   0.000000  -0.000000   0.000000   0.000000
    14  N    0.000000  -0.000000  -0.000000   0.000000   0.000000  -0.000000
    15  H    0.350592  -0.044403  -0.003620   0.003422  -0.000163   0.000001
    16  H    0.347357  -0.045629  -0.003485  -0.000951  -0.000004   0.000000
    17  H   -0.041357   0.383824  -0.044814   0.004778  -0.000158  -0.000002
    18  H   -0.037743   0.387360  -0.044761  -0.007529   0.000103  -0.000022
    19  H    0.006088  -0.029280   0.353837  -0.036673  -0.005682   0.002214
    20  H   -0.004927  -0.036680   0.380046  -0.043590  -0.002531  -0.001150
    21  H    0.008205  -0.006047  -0.044074   0.369111  -0.031310   0.005008
    22  H   -0.000319  -0.002942  -0.042804   0.382973  -0.037097  -0.007715
    23  H    0.000002   0.000063  -0.007265  -0.039333   0.375391  -0.035200
    24  H    0.000003  -0.000161   0.005036  -0.036129   0.376224  -0.039390
    25  H    0.000001  -0.000115   0.003616  -0.007848  -0.037248   0.382127
    26  H    0.000000  -0.000001   0.000084   0.005141  -0.032652   0.380275
    27  H    0.000003  -0.000059   0.000225   0.002850  -0.006286  -0.039977
    28  H    0.000000   0.000000   0.000114  -0.001124  -0.002594  -0.041975
    29  H    0.000000  -0.000000   0.000000  -0.000002  -0.000173   0.004750
    30  H    0.000000   0.000000   0.000001  -0.000020   0.000113  -0.008143
    31  H   -0.000000   0.000000  -0.000000  -0.000001  -0.000172   0.001745
    32  H   -0.000000   0.000000  -0.000000   0.000001  -0.000021  -0.000578
    33  H   -0.000000  -0.000000  -0.000000   0.000000  -0.000000  -0.000003
    34  H   -0.000000   0.000000  -0.000000   0.000000  -0.000000  -0.000021
    35  H   -0.000000  -0.000000  -0.000000   0.000000  -0.000000  -0.000001
    36  H    0.000000   0.000000  -0.000000   0.000000  -0.000000   0.000000
    37  H    0.000000  -0.000000  -0.000000  -0.000000   0.000000   0.000000
    38  H    0.000000   0.000000  -0.000000   0.000000   0.000000  -0.000000
    39  H   -0.000000  -0.000000  -0.000000  -0.000000   0.000000   0.000000
    40  H    0.000000   0.000000  -0.000000   0.000000  -0.000000   0.000000
    41  H    0.000000   0.000000   0.000000   0.000000   0.000000  -0.000000
    42  H    0.000000   0.000000  -0.000000  -0.000000  -0.000000  -0.000000
               7          8          9         10         11         12
     1  N   -0.000001  -0.000000   0.000000   0.000000   0.000000   0.000000
     2  C   -0.000009   0.000000  -0.000000   0.000000  -0.000000   0.000000
     3  C   -0.001959  -0.000002  -0.000000   0.000000   0.000000   0.000000
     4  C   -0.004567   0.000148  -0.000000   0.000000  -0.000000   0.000000
     5  C   -0.042331   0.004079   0.000143  -0.000000   0.000000  -0.000000
     6  C    0.383346  -0.039543  -0.005993   0.000158  -0.000001   0.000000
     7  C    4.911475   0.366723  -0.040282   0.004015   0.000141  -0.000002
     8  C    0.366723   4.913424   0.383928  -0.040619  -0.005762   0.000228
     9  C   -0.040282   0.383928   4.913680   0.367716  -0.040327   0.004135
    10  C    0.004015  -0.040619   0.367716   4.915956   0.377206  -0.043156
    11  C    0.000141  -0.005762  -0.040327   0.377206   4.924096   0.372297
    12  C   -0.000002   0.000228   0.004135  -0.043156   0.372297   4.935138
    13  C    0.000000  -0.000029   0.000177  -0.003910  -0.041519   0.377326
    14  N    0.000000  -0.000002   0.000000  -0.001784  -0.004761  -0.056188
    15  H   -0.000000   0.000000  -0.000000  -0.000000   0.000000  -0.000000
    16  H   -0.000000  -0.000000  -0.000000  -0.000000   0.000000  -0.000000
    17  H   -0.000000  -0.000000  -0.000000  -0.000000   0.000000   0.000000
    18  H   -0.000000  -0.000000   0.000000  -0.000000   0.000000  -0.000000
    19  H    0.000257  -0.000077   0.000002  -0.000000   0.000000  -0.000000
    20  H    0.000115   0.000000  -0.000000  -0.000000   0.000000   0.000000
    21  H    0.000066  -0.000002   0.000000  -0.000000   0.000000  -0.000000
    22  H    0.003627  -0.000130  -0.000001  -0.000000   0.000000   0.000000
    23  H    0.005029  -0.000167  -0.000003  -0.000000   0.000000   0.000000
    24  H   -0.007112   0.000062  -0.000019  -0.000000   0.000000  -0.000000
    25  H   -0.041535  -0.003704  -0.000620  -0.000020   0.000000  -0.000000
    26  H   -0.041058  -0.004694   0.001833  -0.000155  -0.000001  -0.000000
    27  H    0.378214  -0.033174   0.004808  -0.000168  -0.000003  -0.000000
    28  H    0.381661  -0.038373  -0.008113   0.000104  -0.000021  -0.000000
    29  H   -0.033356   0.378551  -0.041627  -0.005358   0.003187  -0.000119
    30  H   -0.037517   0.380804  -0.041574  -0.003432  -0.000846  -0.000025
    31  H   -0.004746  -0.040654   0.378392  -0.033217   0.004874  -0.000169
    32  H   -0.003874  -0.041099   0.381050  -0.037927  -0.008196   0.000008
    33  H   -0.000168   0.004828  -0.033666   0.377800  -0.043528  -0.003647
    34  H    0.000105  -0.007809  -0.037611   0.381703  -0.038071  -0.004989
    35  H   -0.000098   0.001920  -0.003418  -0.040162   0.379439  -0.036266
    36  H   -0.000034  -0.000985  -0.004512  -0.042198   0.383027  -0.032646
    37  H   -0.000000   0.000001  -0.000152   0.005171  -0.037589   0.366726
    38  H    0.000000   0.000001   0.000017  -0.006907  -0.038884   0.372271
    39  H   -0.000000  -0.000001  -0.000070   0.005852  -0.011272  -0.045926
    40  H    0.000000   0.000000  -0.000003  -0.000016   0.005187  -0.028767
    41  H    0.000000  -0.000000   0.000001  -0.000009   0.000118   0.005987
    42  H   -0.000000   0.000071  -0.000102   0.000164   0.005908  -0.007674
              13         14         15         16         17         18
     1  N    0.000000   0.000000   0.350592   0.347357  -0.041357  -0.037743
     2  C   -0.000000  -0.000000  -0.044403  -0.045629   0.383824   0.387360
     3  C    0.000000  -0.000000  -0.003620  -0.003485  -0.044814  -0.044761
     4  C   -0.000000   0.000000   0.003422  -0.000951   0.004778  -0.007529
     5  C    0.000000   0.000000  -0.000163  -0.000004  -0.000158   0.000103
     6  C    0.000000  -0.000000   0.000001   0.000000  -0.000002  -0.000022
     7  C    0.000000   0.000000  -0.000000  -0.000000  -0.000000  -0.000000
     8  C   -0.000029  -0.000002   0.000000  -0.000000  -0.000000  -0.000000
     9  C    0.000177   0.000000  -0.000000  -0.000000  -0.000000   0.000000
    10  C   -0.003910  -0.001784  -0.000000  -0.000000  -0.000000  -0.000000
    11  C   -0.041519  -0.004761   0.000000   0.000000   0.000000   0.000000
    12  C    0.377326  -0.056188  -0.000000  -0.000000   0.000000  -0.000000
    13  C    4.797092   0.299130   0.000000   0.000000   0.000000  -0.000000
    14  N    0.299130   6.816030  -0.000000   0.000000  -0.000000   0.000000
    15  H    0.000000  -0.000000   0.472746  -0.035008   0.006566  -0.006406
    16  H    0.000000   0.000000  -0.035008   0.480250  -0.004398   0.006580
    17  H    0.000000  -0.000000   0.006566  -0.004398   0.640354  -0.036766
    18  H   -0.000000   0.000000  -0.006406   0.006580  -0.036766   0.627166
    19  H   -0.000000   0.000000   0.000010   0.000077  -0.001231  -0.001249
    20  H   -0.000000  -0.000000  -0.000181   0.005993  -0.003496   0.005749
    21  H    0.000000   0.000000   0.005015   0.001036   0.000128   0.000094
    22  H   -0.000000  -0.000000   0.000250   0.000077   0.000023   0.005342
    23  H   -0.000000  -0.000000   0.000009  -0.000001   0.000002   0.000009
    24  H   -0.000000   0.000000   0.000009   0.000001   0.000003   0.000000
    25  H    0.000000  -0.000000  -0.000000   0.000000   0.000013   0.000009
    26  H   -0.000000  -0.000000  -0.000000  -0.000000  -0.000000   0.000000
    27  H   -0.000000   0.000000  -0.000001   0.000000  -0.000001   0.000051
    28  H   -0.000000  -0.000000   0.000000  -0.000000   0.000000  -0.000001
    29  H    0.000017  -0.000009  -0.000000  -0.000000   0.000000  -0.000000
    30  H   -0.000003  -0.000007   0.000000  -0.000000  -0.000000  -0.000000
    31  H    0.000006  -0.000000  -0.000000   0.000000  -0.000000  -0.000000
    32  H    0.000006  -0.000001   0.000000  -0.000000  -0.000000  -0.000000
    33  H   -0.001501   0.000101  -0.000000  -0.000000  -0.000000   0.000000
    34  H    0.002854   0.000818   0.000000  -0.000000  -0.000000  -0.000000
    35  H   -0.008989   0.004843  -0.000000  -0.000000   0.000000  -0.000000
    36  H    0.005154   0.000010   0.000000  -0.000000  -0.000000   0.000000
    37  H   -0.037242   0.002956   0.000000   0.000000  -0.000000   0.000000
    38  H   -0.034970   0.004339   0.000000   0.000000  -0.000000   0.000000
    39  H    0.384662  -0.055848  -0.000000  -0.000000  -0.000000   0.000000
    40  H    0.385345  -0.042770   0.000000   0.000000  -0.000000  -0.000000
    41  H   -0.033269   0.339928  -0.000000   0.000000  -0.000000   0.000000
    42  H   -0.038644   0.339018  -0.000000  -0.000000  -0.000000  -0.000000
              19         20         21         22         23         24
     1  N    0.006088  -0.004927   0.008205  -0.000319   0.000002   0.000003
     2  C   -0.029280  -0.036680  -0.006047  -0.002942   0.000063  -0.000161
     3  C    0.353837   0.380046  -0.044074  -0.042804  -0.007265   0.005036
     4  C   -0.036673  -0.043590   0.369111   0.382973  -0.039333  -0.036129
     5  C   -0.005682  -0.002531  -0.031310  -0.037097   0.375391   0.376224
     6  C    0.002214  -0.001150   0.005008  -0.007715  -0.035200  -0.039390
     7  C    0.000257   0.000115   0.000066   0.003627   0.005029  -0.007112
     8  C   -0.000077   0.000000  -0.000002  -0.000130  -0.000167   0.000062
     9  C    0.000002  -0.000000   0.000000  -0.000001  -0.000003  -0.000019
    10  C   -0.000000  -0.000000  -0.000000  -0.000000  -0.000000  -0.000000
    11  C    0.000000   0.000000   0.000000   0.000000   0.000000   0.000000
    12  C   -0.000000   0.000000  -0.000000   0.000000   0.000000  -0.000000
    13  C   -0.000000  -0.000000   0.000000  -0.000000  -0.000000  -0.000000
    14  N    0.000000  -0.000000   0.000000  -0.000000  -0.000000   0.000000
    15  H    0.000010  -0.000181   0.005015   0.000250   0.000009   0.000009
    16  H    0.000077   0.005993   0.001036   0.000077  -0.000001   0.000001
    17  H   -0.001231  -0.003496   0.000128   0.000023   0.000002   0.000003
    18  H   -0.001249   0.005749   0.000094   0.005342   0.000009   0.000000
    19  H    0.653289  -0.036490   0.006954  -0.005983  -0.000257   0.000020
    20  H   -0.036490   0.640976  -0.005326   0.006194   0.005313   0.000008
    21  H    0.006954  -0.005326   0.657064  -0.039646  -0.004922  -0.003387
    22  H   -0.005983   0.006194  -0.039646   0.639709   0.006162  -0.003927
    23  H   -0.000257   0.005313  -0.004922   0.006162   0.654770  -0.037218
    24  H    0.000020   0.000008  -0.003387  -0.003927  -0.037218   0.654142
    25  H    0.001779   0.000544  -0.000001   0.000068  -0.003851   0.006172
    26  H   -0.000024  -0.000035  -0.000147  -0.000008  -0.003744  -0.004843
    27  H    0.001407  -0.000022  -0.000025   0.001663  -0.000012  -0.000279
    28  H   -0.000020  -0.000002  -0.000036   0.000526   0.000012   0.005263
    29  H   -0.000003   0.000000  -0.000000   0.000011   0.000003   0.000002
    30  H    0.000049  -0.000001  -0.000000   0.000007  -0.000000   0.000009
    31  H   -0.000001   0.000000  -0.000000  -0.000000   0.000012   0.000015
    32  H    0.000000  -0.000000  -0.000000   0.000000  -0.000000  -0.000001
    33  H    0.000000   0.000000   0.000000   0.000000   0.000000   0.000000
    34  H    0.000000   0.000000  -0.000000  -0.000000  -0.000000  -0.000000
    35  H    0.000000   0.000000  -0.000000   0.000000   0.000000  -0.000000
    36  H    0.000000   0.000000   0.000000  -0.000000   0.000000  -0.000000
    37  H    0.000000   0.000000   0.000000   0.000000   0.000000   0.000000
    38  H    0.000000  -0.000000   0.000000  -0.000000  -0.000000  -0.000000
    39  H    0.000000   0.000000   0.000000  -0.000000   0.000000   0.000000
    40  H    0.000000   0.000000  -0.000000   0.000000   0.000000  -0.000000
    41  H   -0.000000  -0.000000   0.000000   0.000000  -0.000000  -0.000000
    42  H    0.000000   0.000000  -0.000000   0.000000   0.000000  -0.000000
              25         26         27         28         29         30
     1  N    0.000001   0.000000   0.000003   0.000000   0.000000   0.000000
     2  C   -0.000115  -0.000001  -0.000059   0.000000  -0.000000   0.000000
     3  C    0.003616   0.000084   0.000225   0.000114   0.000000   0.000001
     4  C   -0.007848   0.005141   0.002850  -0.001124  -0.000002  -0.000020
     5  C   -0.037248  -0.032652  -0.006286  -0.002594  -0.000173   0.000113
     6  C    0.382127   0.380275  -0.039977  -0.041975   0.004750  -0.008143
     7  C   -0.041535  -0.041058   0.378214   0.381661  -0.033356  -0.037517
     8  C   -0.003704  -0.004694  -0.033174  -0.038373   0.378551   0.380804
     9  C   -0.000620   0.001833   0.004808  -0.008113  -0.041627  -0.041574
    10  C   -0.000020  -0.000155  -0.000168   0.000104  -0.005358  -0.003432
    11  C    0.000000  -0.000001  -0.000003  -0.000021   0.003187  -0.000846
    12  C   -0.000000  -0.000000  -0.000000  -0.000000  -0.000119  -0.000025
    13  C    0.000000  -0.000000  -0.000000  -0.000000   0.000017  -0.000003
    14  N   -0.000000  -0.000000   0.000000  -0.000000  -0.000009  -0.000007
    15  H   -0.000000  -0.000000  -0.000001   0.000000  -0.000000   0.000000
    16  H    0.000000  -0.000000   0.000000  -0.000000  -0.000000  -0.000000
    17  H    0.000013  -0.000000  -0.000001   0.000000   0.000000  -0.000000
    18  H    0.000009   0.000000   0.000051  -0.000001  -0.000000  -0.000000
    19  H    0.001779  -0.000024   0.001407  -0.000020  -0.000003   0.000049
    20  H    0.000544  -0.000035  -0.000022  -0.000002   0.000000  -0.000001
    21  H   -0.000001  -0.000147  -0.000025  -0.000036  -0.000000  -0.000000
    22  H    0.000068  -0.000008   0.001663   0.000526   0.000011   0.000007
    23  H   -0.003851  -0.003744  -0.000012   0.000012   0.000003  -0.000000
    24  H    0.006172  -0.004843  -0.000279   0.005263   0.000002   0.000009
    25  H    0.641926  -0.039186  -0.006218   0.006217   0.000062   0.005701
    26  H   -0.039186   0.643877   0.006232  -0.005675   0.000001  -0.000175
    27  H   -0.006218   0.006232   0.647092  -0.039381  -0.005169  -0.002695
    28  H    0.006217  -0.005675  -0.039381   0.646757  -0.002539   0.006040
    29  H    0.000062   0.000001  -0.005169  -0.002539   0.647537  -0.038956
    30  H    0.005701  -0.000175  -0.002695   0.006040  -0.038956   0.646026
    31  H    0.000451   0.003221   0.000000  -0.000157   0.006244  -0.005705
    32  H    0.000056   0.000431   0.000052   0.005724  -0.005639   0.006154
    33  H   -0.000000   0.000011   0.000003   0.000001  -0.000010   0.000049
    34  H   -0.000001   0.000015   0.000001   0.000010  -0.000122   0.005663
    35  H    0.000000  -0.000000   0.000007   0.000011   0.001820   0.000409
    36  H   -0.000000   0.000000   0.000000   0.000001   0.000747   0.000087
    37  H    0.000000   0.000000   0.000000   0.000000   0.000008  -0.000000
    38  H   -0.000000  -0.000000   0.000000   0.000000  -0.000003   0.000000
    39  H   -0.000000   0.000000   0.000000  -0.000000  -0.000001  -0.000006
    40  H   -0.000000  -0.000000  -0.000000  -0.000000  -0.000000   0.000000
    41  H    0.000000   0.000000   0.000000   0.000000   0.000000   0.000000
    42  H    0.000000   0.000000  -0.000000   0.000000   0.000018   0.000119
              31         32         33         34         35         36
     1  N   -0.000000  -0.000000  -0.000000  -0.000000  -0.000000   0.000000
     2  C    0.000000   0.000000  -0.000000   0.000000  -0.000000   0.000000
     3  C   -0.000000  -0.000000  -0.000000  -0.000000  -0.000000  -0.000000
     4  C   -0.000001   0.000001   0.000000   0.000000   0.000000   0.000000
     5  C   -0.000172  -0.000021  -0.000000  -0.000000  -0.000000  -0.000000
     6  C    0.001745  -0.000578  -0.000003  -0.000021  -0.000001   0.000000
     7  C   -0.004746  -0.003874  -0.000168   0.000105  -0.000098  -0.000034
     8  C   -0.040654  -0.041099   0.004828  -0.007809   0.001920  -0.000985
     9  C    0.378392   0.381050  -0.033666  -0.037611  -0.003418  -0.004512
    10  C   -0.033217  -0.037927   0.377800   0.381703  -0.040162  -0.042198
    11  C    0.004874  -0.008196  -0.043528  -0.038071   0.379439   0.383027
    12  C   -0.000169   0.000008  -0.003647  -0.004989  -0.036266  -0.032646
    13  C    0.000006   0.000006  -0.001501   0.002854  -0.008989   0.005154
    14  N   -0.000000  -0.000001   0.000101   0.000818   0.004843   0.000010
    15  H   -0.000000   0.000000  -0.000000   0.000000  -0.000000   0.000000
    16  H    0.000000  -0.000000  -0.000000  -0.000000  -0.000000  -0.000000
    17  H   -0.000000  -0.000000  -0.000000  -0.000000   0.000000  -0.000000
    18  H   -0.000000  -0.000000   0.000000  -0.000000  -0.000000   0.000000
    19  H   -0.000001   0.000000   0.000000   0.000000   0.000000   0.000000
    20  H    0.000000  -0.000000   0.000000   0.000000   0.000000   0.000000
    21  H   -0.000000  -0.000000   0.000000  -0.000000  -0.000000   0.000000
    22  H   -0.000000   0.000000   0.000000  -0.000000   0.000000  -0.000000
    23  H    0.000012  -0.000000   0.000000  -0.000000   0.000000   0.000000
    24  H    0.000015  -0.000001   0.000000  -0.000000  -0.000000  -0.000000
    25  H    0.000451   0.000056  -0.000000  -0.000001   0.000000  -0.000000
    26  H    0.003221   0.000431   0.000011   0.000015  -0.000000   0.000000
    27  H    0.000000   0.000052   0.000003   0.000001   0.000007   0.000000
    28  H   -0.000157   0.005724   0.000001   0.000010   0.000011   0.000001
    29  H    0.006244  -0.005639  -0.000010  -0.000122   0.001820   0.000747
    30  H   -0.005705   0.006154   0.000049   0.005663   0.000409   0.000087
    31  H    0.646608  -0.039138  -0.004858  -0.003148  -0.000068   0.000104
    32  H   -0.039138   0.645392  -0.002900   0.006007  -0.000231   0.006341
    33  H   -0.004858  -0.002900   0.651450  -0.038543   0.006183  -0.004413
    34  H   -0.003148   0.006007  -0.038543   0.640219  -0.007491   0.006105
    35  H   -0.000068  -0.000231   0.006183  -0.007491   0.638685  -0.038924
    36  H    0.000104   0.006341  -0.004413   0.006105  -0.038924   0.640242
    37  H    0.000003  -0.000010   0.000077  -0.000126  -0.002859  -0.004005
    38  H   -0.000010   0.000003   0.005785  -0.000388   0.006285  -0.005333
    39  H    0.000011  -0.000001   0.000768  -0.000864   0.000680  -0.000040
    40  H   -0.000000   0.000000  -0.000047   0.000022  -0.000063  -0.000145
    41  H   -0.000000   0.000000  -0.000000   0.000018  -0.000209   0.000002
    42  H   -0.000000   0.000004  -0.000035   0.001356   0.000668  -0.000119
[...]
   105    C    7  dz2    Ryd( 3d)     0.00033

   106    C    8  S      Cor( 1S)     1.99933
   107    C    8  S      Val( 2S)     1.03245
   108    C    8  S      Ryd( 3S)     0.00090
   109    C    8  S      Ryd( 4S)     0.00002
   110    C    8  px     Val( 2p)     1.05454
   111    C    8  px     Ryd( 3p)     0.00355
   112    C    8  py     Val( 2p)     1.14370
   113    C    8  py     Ryd( 3p)     0.00147
   114    C    8  pz     Val( 2p)     1.21892
   115    C    8  pz     Ryd( 3p)     0.00375
   116    C    8  dxy    Ryd( 3d)     0.00060
   117    C    8  dxz    Ryd( 3d)     0.00054
   118    C    8  dyz    Ryd( 3d)     0.00100
   119    C    8  dx2y2  Ryd( 3d)     0.00061
   120    C    8  dz2    Ryd( 3d)     0.00042

   121    C    9  S      Cor( 1S)     1.99934
   122    C    9  S      Val( 2S)     1.02964
   123    C    9  S      Ryd( 3S)     0.00079
   124    C    9  S      Ryd( 4S)     0.00002
   125    C    9  px     Val( 2p)     1.06023
   126    C    9  px     Ryd( 3p)     0.00241
   127    C    9  py     Val( 2p)     1.14208
   128    C    9  py     Ryd( 3p)     0.00137
   129    C    9  pz     Val( 2p)     1.21704
   130    C    9  pz     Ryd( 3p)     0.00358
   131    C    9  dxy    Ryd( 3d)     0.00061
   132    C    9  dxz    Ryd( 3d)     0.00055
   133    C    9  dyz    Ryd( 3d)     0.00101
   134    C    9  dx2y2  Ryd( 3d)     0.00060
   135    C    9  dz2    Ryd( 3d)     0.00042

   136    C   10  S      Cor( 1S)     1.99933
   137    C   10  S      Val( 2S)     1.04120
   138    C   10  S      Ryd( 3S)     0.00104
   139    C   10  S      Ryd( 4S)     0.00003
   140    C   10  px     Val( 2p)     1.06547
   141    C   10  px     Ryd( 3p)     0.00249
   142    C   10  py     Val( 2p)     1.21186
   143    C   10  py     Ryd( 3p)     0.00359
   144    C   10  pz     Val( 2p)     1.13829
   145    C   10  pz     Ryd( 3p)     0.00311
   146    C   10  dxy    Ryd( 3d)     0.00057
   147    C   10  dxz    Ryd( 3d)     0.00061
   148    C   10  dyz    Ryd( 3d)     0.00101
   149    C   10  dx2y2  Ryd( 3d)     0.00056
   150    C   10  dz2    Ryd( 3d)     0.00036

   151    C   11  S      Cor( 1S)     1.99932
   152    C   11  S      Val( 2S)     1.04318
   153    C   11  S      Ryd( 3S)     0.00087
   154    C   11  S      Ryd( 4S)     0.00004
   155    C   11  px     Val( 2p)     1.04730
   156    C   11  px     Ryd( 3p)     0.00213
   157    C   11  py     Val( 2p)     1.22592
   158    C   11  py     Ryd( 3p)     0.00349
   159    C   11  pz     Val( 2p)     1.14977
   160    C   11  pz     Ryd( 3p)     0.00488
   161    C   11  dxy    Ryd( 3d)     0.00047
   162    C   11  dxz    Ryd( 3d)     0.00057
   163    C   11  dyz    Ryd( 3d)     0.00103
   164    C   11  dx2y2  Ryd( 3d)     0.00068
   165    C   11  dz2    Ryd( 3d)     0.00037

   166    C   12  S      Cor( 1S)     1.99932
   167    C   12  S      Val( 2S)     1.04118
   168    C   12  S      Ryd( 3S)     0.00094
   169    C   12  S      Ryd( 4S)     0.00002
   170    C   12  px     Val( 2p)     1.12092
   171    C   12  px     Ryd( 3p)     0.00154
   172    C   12  py     Val( 2p)     1.12460
   173    C   12  py     Ryd( 3p)     0.00256
   174    C   12  pz     Val( 2p)     1.17438
   175    C   12  pz     Ryd( 3p)     0.00335
   176    C   12  dxy    Ryd( 3d)     0.00059
   177    C   12  dxz    Ryd( 3d)     0.00078
   178    C   12  dyz    Ryd( 3d)     0.00069
   179    C   12  dx2y2  Ryd( 3d)     0.00061
   180    C   12  dz2    Ryd( 3d)     0.00047

   181    C   13  S      Cor( 1S)     1.99928
   182    C   13  S      Val( 2S)     1.05776
   183    C   13  S      Ryd( 3S)     0.00173
   184    C   13  S      Ryd( 4S)     0.00003
   185    C   13  px     Val( 2p)     1.22085
   186    C   13  px     Ryd( 3p)     0.00388
   187    C   13  py     Val( 2p)     0.92396
   188    C   13  py     Ryd( 3p)     0.00662
   189    C   13  pz     Val( 2p)     1.14121
   190    C   13  pz     Ryd( 3p)     0.00134
   191    C   13  dxy    Ryd( 3d)     0.00086
   192    C   13  dxz    Ryd( 3d)     0.00060
   193    C   13  dyz    Ryd( 3d)     0.00090
   194    C   13  dx2y2  Ryd( 3d)     0.00125
   195    C   13  dz2    Ryd( 3d)     0.00083

   196    N   14  S      Cor( 1S)     1.99933
   197    N   14  S      Val( 2S)     1.50874
   198    N   14  S      Ryd( 3S)     0.01553
   199    N   14  S      Ryd( 4S)     0.00002
   200    N   14  px     Val( 2p)     1.38671
   201    N   14  px     Ryd( 3p)     0.00294
   202    N   14  py     Val( 2p)     1.33429
   203    N   14  py     Ryd( 3p)     0.00143
   204    N   14  pz     Val( 2p)     1.11770
   205    N   14  pz     Ryd( 3p)     0.00000
   206    N   14  dxy    Ryd( 3d)     0.00018
   207    N   14  dxz    Ryd( 3d)     0.00000
   208    N   14  dyz    Ryd( 3d)     0.00103
   209    N   14  dx2y2  Ryd( 3d)     0.00077
   210    N   14  dz2    Ryd( 3d)     0.00010

   211    H   15  S      Val( 1S)     0.61335
   212    H   15  S      Ryd( 2S)     0.00121
   213    H   15  px     Ryd( 2p)     0.00035
   214    H   15  py     Ryd( 2p)     0.00064
   215    H   15  pz     Ryd( 2p)     0.00044

   216    H   16  S      Val( 1S)     0.61429
   217    H   16  S      Ryd( 2S)     0.00156
   218    H   16  px     Ryd( 2p)     0.00039
   219    H   16  py     Ryd( 2p)     0.00051
   220    H   16  pz     Ryd( 2p)     0.00052

   221    H   17  S      Val( 1S)     0.76961
   222    H   17  S      Ryd( 2S)     0.00137
   223    H   17  px     Ryd( 2p)     0.00006
   224    H   17  py     Ryd( 2p)     0.00029
   225    H   17  pz     Ryd( 2p)     0.00020

   226    H   18  S      Val( 1S)     0.77473
   227    H   18  S      Ryd( 2S)     0.00160
   228    H   18  px     Ryd( 2p)     0.00011
   229    H   18  py     Ryd( 2p)     0.00014
   230    H   18  pz     Ryd( 2p)     0.00031

   231    H   19  S      Val( 1S)     0.76317
   232    H   19  S      Ryd( 2S)     0.00163
   233    H   19  px     Ryd( 2p)     0.00029
   234    H   19  py     Ryd( 2p)     0.00016
   235    H   19  pz     Ryd( 2p)     0.00011

   236    H   20  S      Val( 1S)     0.77096
   237    H   20  S      Ryd( 2S)     0.00193
   238    H   20  px     Ryd( 2p)     0.00012
   239    H   20  py     Ryd( 2p)     0.00012
   240    H   20  pz     Ryd( 2p)     0.00030

   241    H   21  S      Val( 1S)     0.76705
   242    H   21  S      Ryd( 2S)     0.00226
   243    H   21  px     Ryd( 2p)     0.00028
   244    H   21  py     Ryd( 2p)     0.00017
   245    H   21  pz     Ryd( 2p)     0.00011

   246    H   22  S      Val( 1S)     0.76926
   247    H   22  S      Ryd( 2S)     0.00153
   248    H   22  px     Ryd( 2p)     0.00014
   249    H   22  py     Ryd( 2p)     0.00012
   250    H   22  pz     Ryd( 2p)     0.00030

   251    H   23  S      Val( 1S)     0.76435
   252    H   23  S      Ryd( 2S)     0.00154
   253    H   23  px     Ryd( 2p)     0.00014
   254    H   23  py     Ryd( 2p)     0.00014
   255    H   23  pz     Ryd( 2p)     0.00028

   256    H   24  S      Val( 1S)     0.76424
   257    H   24  S      Ryd( 2S)     0.00157
   258    H   24  px     Ryd( 2p)     0.00009
   259    H   24  py     Ryd( 2p)     0.00027
   260    H   24  pz     Ryd( 2p)     0.00020

   261    H   25  S      Val( 1S)     0.77128
   262    H   25  S      Ryd( 2S)     0.00156
   263    H   25  px     Ryd( 2p)     0.00010
   264    H   25  py     Ryd( 2p)     0.00024
   265    H   25  pz     Ryd( 2p)     0.00022

   266    H   26  S      Val( 1S)     0.76394
   267    H   26  S      Ryd( 2S)     0.00126
   268    H   26  px     Ryd( 2p)     0.00016
   269    H   26  py     Ryd( 2p)     0.00024
   270    H   26  pz     Ryd( 2p)     0.00016

   271    H   27  S      Val( 1S)     0.76612
   272    H   27  S      Ryd( 2S)     0.00134
   273    H   27  px     Ryd( 2p)     0.00016
   274    H   27  py     Ryd( 2p)     0.00024
   275    H   27  pz     Ryd( 2p)     0.00016

   276    H   28  S      Val( 1S)     0.77234
   277    H   28  S      Ryd( 2S)     0.00184
   278    H   28  px     Ryd( 2p)     0.00010
   279    H   28  py     Ryd( 2p)     0.00024
   280    H   28  pz     Ryd( 2p)     0.00022

   281    H   29  S      Val( 1S)     0.76920
   282    H   29  S      Ryd( 2S)     0.00482
   283    H   29  px     Ryd( 2p)     0.00015
   284    H   29  py     Ryd( 2p)     0.00014
   285    H   29  pz     Ryd( 2p)     0.00027

   286    H   30  S      Val( 1S)     0.77548
   287    H   30  S      Ryd( 2S)     0.00648
   288    H   30  px     Ryd( 2p)     0.00010
   289    H   30  py     Ryd( 2p)     0.00025
   290    H   30  pz     Ryd( 2p)     0.00021

   291    H   31  S      Val( 1S)     0.76788
   292    H   31  S      Ryd( 2S)     0.00160
   293    H   31  px     Ryd( 2p)     0.00015
   294    H   31  py     Ryd( 2p)     0.00014
   295    H   31  pz     Ryd( 2p)     0.00028

   296    H   32  S      Val( 1S)     0.77339
   297    H   32  S      Ryd( 2S)     0.00228
   298    H   32  px     Ryd( 2p)     0.00011
   299    H   32  py     Ryd( 2p)     0.00025
   300    H   32  pz     Ryd( 2p)     0.00021

   301    H   33  S      Val( 1S)     0.77462
   302    H   33  S      Ryd( 2S)     0.00663
   303    H   33  px     Ryd( 2p)     0.00015
   304    H   33  py     Ryd( 2p)     0.00024
   305    H   33  pz     Ryd( 2p)     0.00016

   306    H   34  S      Val( 1S)     0.80991
   307    H   34  S      Ryd( 2S)     0.03254
   308    H   34  px     Ryd( 2p)     0.00010
   309    H   34  py     Ryd( 2p)     0.00025
   310    H   34  pz     Ryd( 2p)     0.00021

   311    H   35  S      Val( 1S)     0.80092
   312    H   35  S      Ryd( 2S)     0.02564
   313    H   35  px     Ryd( 2p)     0.00015
   314    H   35  py     Ryd( 2p)     0.00028
   315    H   35  pz     Ryd( 2p)     0.00016

   316    H   36  S      Val( 1S)     0.77623
   317    H   36  S      Ryd( 2S)     0.00849
   318    H   36  px     Ryd( 2p)     0.00010
   319    H   36  py     Ryd( 2p)     0.00023
   320    H   36  pz     Ryd( 2p)     0.00022

   321    H   37  S      Val( 1S)     0.74771
   322    H   37  S      Ryd( 2S)     0.00428
   323    H   37  px     Ryd( 2p)     0.00015
   324    H   37  py     Ryd( 2p)     0.00010
   325    H   37  pz     Ryd( 2p)     0.00030

   326    H   38  S      Val( 1S)     0.75953
   327    H   38  S      Ryd( 2S)     0.00672
   328    H   38  px     Ryd( 2p)     0.00015
   329    H   38  py     Ryd( 2p)     0.00028
   330    H   38  pz     Ryd( 2p)     0.00013

   331    H   39  S      Val( 1S)     0.70480
   332    H   39  S      Ryd( 2S)     0.02230
   333    H   39  px     Ryd( 2p)     0.00015
   334    H   39  py     Ryd( 2p)     0.00009
   335    H   39  pz     Ryd( 2p)     0.00033

   336    H   40  S      Val( 1S)     0.75212
   337    H   40  S      Ryd( 2S)     0.01684
   338    H   40  px     Ryd( 2p)     0.00038
   339    H   40  py     Ryd( 2p)     0.00007
   340    H   40  pz     Ryd( 2p)     0.00007

   341    H   41  S      Val( 1S)     0.68303
   342    H   41  S      Ryd( 2S)     0.06328
   343    H   41  px     Ryd( 2p)     0.00025
   344    H   41  py     Ryd( 2p)     0.00053
   345    H   41  pz     Ryd( 2p)     0.00043

   346    H   42  S      Val( 1S)     0.73189
   347    H   42  S      Ryd( 2S)     0.08430
   348    H   42  px     Ryd( 2p)     0.00079
   349    H   42  py     Ryd( 2p)     0.00026
   350    H   42  pz     Ryd( 2p)     0.00015


 Summary of Natural Population Analysis:                  
                                                          
                                       Natural Population 
                Natural  -----------------------------------------------
    Atom  No    Charge         Core      Valence    Rydberg      Total
 -----------------------------------------------------------------------
      N    1   -0.92656      1.99970     5.91176    0.01510     7.92656
      C    2   -0.26549      1.99936     4.25013    0.01600     6.26549
      C    3   -0.48514      1.99932     4.47577    0.01005     6.48514
      C    4   -0.46887      1.99933     4.45838    0.01116     6.46887
      C    5   -0.45740      1.99934     4.44664    0.01141     6.45740
      C    6   -0.46469      1.99933     4.45449    0.01087     6.46469
      C    7   -0.46250      1.99934     4.45188    0.01128     6.46250
      C    8   -0.46180      1.99933     4.44961    0.01286     6.46180
      C    9   -0.45968      1.99934     4.44899    0.01135     6.45968
      C   10   -0.46952      1.99933     4.45682    0.01337     6.46952
      C   11   -0.48001      1.99932     4.46616    0.01452     6.48001
      C   12   -0.47195      1.99932     4.46108    0.01156     6.47195
      C   13   -0.36110      1.99928     4.34378    0.01805     6.36110
      N   14   -0.36877      1.99933     5.34744    0.02200     7.36877
      H   15    0.38401      0.00000     0.61335    0.00263     0.61599
      H   16    0.38273      0.00000     0.61429    0.00297     0.61727
      H   17    0.22847      0.00000     0.76961    0.00192     0.77153
      H   18    0.22311      0.00000     0.77473    0.00215     0.77689
      H   19    0.23464      0.00000     0.76317    0.00219     0.76536
      H   20    0.22655      0.00000     0.77096    0.00248     0.77345
      H   21    0.23013      0.00000     0.76705    0.00283     0.76987
      H   22    0.22865      0.00000     0.76926    0.00209     0.77135
      H   23    0.23355      0.00000     0.76435    0.00210     0.76645
      H   24    0.23363      0.00000     0.76424    0.00213     0.76637
      H   25    0.22660      0.00000     0.77128    0.00211     0.77340
      H   26    0.23424      0.00000     0.76394    0.00182     0.76576
      H   27    0.23198      0.00000     0.76612    0.00190     0.76802
      H   28    0.22526      0.00000     0.77234    0.00240     0.77474
      H   29    0.22542      0.00000     0.76920    0.00538     0.77458
      H   30    0.21749      0.00000     0.77548    0.00703     0.78251
      H   31    0.22995      0.00000     0.76788    0.00216     0.77005
      H   32    0.22376      0.00000     0.77339    0.00285     0.77624
      H   33    0.21820      0.00000     0.77462    0.00718     0.78180
      H   34    0.15699      0.00000     0.80991    0.03311     0.84301
      H   35    0.17286      0.00000     0.80092    0.02623     0.82714
      H   36    0.21473      0.00000     0.77623    0.00904     0.78527
      H   37    0.24746      0.00000     0.74771    0.00483     0.75254
      H   38    0.23319      0.00000     0.75953    0.00727     0.76681
      H   39    0.27232      0.00000     0.70480    0.02288     0.72768
      H   40    0.23051      0.00000     0.75212    0.01737     0.76949
      H   41    0.25248      0.00000     0.68303    0.06449     0.74752
      H   42    0.18261      0.00000     0.73189    0.08550     0.81739
 =======================================================================
   * Total *   -0.00191     27.99097    85.49431    0.51663   114.00191

                                 Natural Population      
 --------------------------------------------------------
   Core                      27.99097 ( 99.9678% of  28)
   Valence                   85.49431 ( 99.4120% of  86)
   Natural Minimal Basis    113.48529 ( 99.5485% of 114)
   Natural Rydberg Basis      0.51663 (  0.4532% of 114)
 --------------------------------------------------------

    Atom  No          Natural Electron Configuration
 ----------------------------------------------------------------------------
      N    1      [core]2S( 1.44)2p( 4.47)3p( 0.01)
      C    2      [core]2S( 1.02)2p( 3.23)3p( 0.01)
      C    3      [core]2S( 1.04)2p( 3.43)3p( 0.01)
      C    4      [core]2S( 1.03)2p( 3.43)3p( 0.01)
      C    5      [core]2S( 1.03)2p( 3.42)3p( 0.01)
      C    6      [core]2S( 1.03)2p( 3.42)3p( 0.01)
      C    7      [core]2S( 1.03)2p( 3.42)3p( 0.01)
      C    8      [core]2S( 1.03)2p( 3.42)3p( 0.01)
      C    9      [core]2S( 1.03)2p( 3.42)3p( 0.01)
      C   10      [core]2S( 1.04)2p( 3.42)3p( 0.01)
      C   11      [core]2S( 1.04)2p( 3.42)3p( 0.01)
      C   12      [core]2S( 1.04)2p( 3.42)3p( 0.01)
      C   13      [core]2S( 1.06)2p( 3.29)3p( 0.01)
      N   14      [core]2S( 1.51)2p( 3.84)3S( 0.02)
      H   15            1S( 0.61)
      H   16            1S( 0.61)
      H   17            1S( 0.77)
      H   18            1S( 0.77)
      H   19            1S( 0.76)
      H   20            1S( 0.77)
      H   21            1S( 0.77)
      H   22            1S( 0.77)
      H   23            1S( 0.76)
      H   24            1S( 0.76)
      H   25            1S( 0.77)
      H   26            1S( 0.76)
      H   27            1S( 0.77)
      H   28            1S( 0.77)
      H   29            1S( 0.77)
      H   30            1S( 0.78)2S( 0.01)
      H   31            1S( 0.77)
      H   32            1S( 0.77)
      H   33            1S( 0.77)2S( 0.01)
      H   34            1S( 0.81)2S( 0.03)
      H   35            1S( 0.80)2S( 0.03)
      H   36            1S( 0.78)2S( 0.01)
      H   37            1S( 0.75)
      H   38            1S( 0.76)2S( 0.01)
      H   39            1S( 0.70)2S( 0.02)
      H   40            1S( 0.75)2S( 0.02)
      H   41            1S( 0.68)2S( 0.06)
      H   42            1S( 0.73)2S( 0.08)


 NBO analysis skipped by request.
 1\1\GINC-CN34\SP\RB3LYP TD-FC\6-31G(d,p)\C12H28N2\QDUEZ\09-Jul-2024\0\
 \# TD(NStates=10, Root=1) B3LYP/6-31G** SCRF=(Solvent=water) volume po
 p=NPA density=current Geom=AllCheck Guess=Read\\QFTYSVGGYOXFRQ-UHFFFAO
 YSA-N_conf_4\\0,1\N,0,6.6404043065,-0.581343685,-1.0024235358\C,0,5.27
 41238682,-1.0144939585,-1.3324417547\C,0,4.227110068,-0.9332251581,-0.
 2067515663\C,0,3.9422262454,0.4930221931,0.2814406276\C,0,2.9607019928
 ,0.5802984958,1.4639781494\C,0,1.5282467648,0.0824928276,1.1981143558\
 C,0,0.7576742168,0.8980089568,0.1493613127\C,0,-0.6790874312,0.4128200
 008,-0.1131632081\C,0,-1.6443683896,0.5961841743,1.0678343679\C,0,-3.0
 799821408,0.1125602406,0.7985605491\C,0,-3.8467371818,0.9393756598,-0.
 2449112991\C,0,-5.3231541485,0.5402310486,-0.4144747973\C,0,-5.5649588
 853,-0.8775643291,-0.9475340519\N,0,-5.0051744401,-1.0519123264,-2.299
 3975662\H,0,6.6276186496,0.3967755911,-0.7199933665\H,0,6.9608983142,-
 1.0933631465,-0.1811665474\H,0,5.3324010256,-2.0512488924,-1.686341459
 7\H,0,4.9338370504,-0.4158798562,-2.1877699939\H,0,3.3003125631,-1.396
 2522993,-0.5702235295\H,0,4.5663394068,-1.5488616479,0.6397565051\H,0,
 4.8858524178,0.9595316694,0.5937147837\H,0,3.5739702089,1.0953467923,-
 0.5600919173\H,0,3.378605764,0.0106426559,2.3053335616\H,0,2.911002428
 1,1.6246484165,1.8017030071\H,0,1.5490456734,-0.9716271579,0.889596663
 2\H,0,0.9838172362,0.1038845056,2.1501202603\H,0,1.3061793068,0.876562
 3494,-0.8006313811\H,0,0.7321676102,1.9529727381,0.4598124437\H,0,-1.0
 694260679,0.9495376035,-0.9865858551\H,0,-0.6553569512,-0.6499125155,-
 0.3962118722\H,0,-1.2575999514,0.0571238079,1.9412466655\H,0,-1.668090
 8805,1.6585623137,1.3519074912\H,0,-3.6422294019,0.1357525294,1.742258
 9815\H,0,-3.0471230504,-0.9423715925,0.4933412926\H,0,-3.343489699,0.8
 83800238,-1.2184461152\H,0,-3.8065945851,1.9973629948,0.0481797231\H,0
 ,-5.8058687773,1.2500131183,-1.0979960054\H,0,-5.8347391628,0.63506319
 14,0.5530598573\H,0,-5.1867201756,-1.6158604904,-0.2209319843\H,0,-6.6
 468211332,-1.042170332,-1.0151613168\H,0,-5.275829627,-1.9689581627,-2
 .6499146529\H,0,-3.989183037,-1.0875285625,-2.2372849311\\Version=EM64
 L-G16RevA.03\State=1-A\HF=-583.6938169\RMSD=1.064e-09\Dipole=-1.579890
 9,-0.2532769,0.1843615\Quadrupole=5.5648432,-1.8798837,-3.6849595,5.77
 84776,12.6990449,-0.3872902\PG=C01 [X(C12H28N2)]\\@


 UNLESS WE CHANGE DIRECTIONS, WE WILL WIND UP WHERE WE ARE HEADED.
     -- CONFUCIUS
 Job cpu time:       0 days  2 hours 54 minutes 11.5 seconds.
 Elapsed time:       0 days  0 hours 29 minutes 18.9 seconds.
 File lengths (MBytes):  RWF=    994 Int=      0 D2E=      0 Chk=     64 Scr=      1
 Normal termination of Gaussian 16 at Tue Jul  9 21:13:49 2024.
