 Entering Gaussian System, Link 0=g16
 Initial command:
 /opt/sw/arch/manual/gaussian/G16_A03/g16/l1.exe "/scratch/1030826.jesse.materianova.be/Gau-76118.inp" -scrdir="/scratch/1030826.jesse.materianova.be/"
 Entering Link 1 = /opt/sw/arch/manual/gaussian/G16_A03/g16/l1.exe PID=     76119.
  
 Copyright (c) 1988,1990,1992,1993,1995,1998,2003,2009,2016,
            Gaussian, Inc.  All Rights Reserved.
  
 This is part of the Gaussian(R) 16 program.  It is based on
 the Gaussian(R) 09 system (copyright 2009, Gaussian, Inc.),
 the Gaussian(R) 03 system (copyright 2003, Gaussian, Inc.),
 the Gaussian(R) 98 system (copyright 1998, Gaussian, Inc.),
 the Gaussian(R) 94 system (copyright 1995, Gaussian, Inc.),
 the Gaussian 92(TM) system (copyright 1992, Gaussian, Inc.),
 the Gaussian 90(TM) system (copyright 1990, Gaussian, Inc.),
 the Gaussian 88(TM) system (copyright 1988, Gaussian, Inc.),
 the Gaussian 86(TM) system (copyright 1986, Carnegie Mellon
 University), and the Gaussian 82(TM) system (copyright 1983,
 Carnegie Mellon University). Gaussian is a federally registered
 trademark of Gaussian, Inc.
  
 This software contains proprietary and confidential information,
 including trade secrets, belonging to Gaussian, Inc.
  
 This software is provided under written license and may be
 used, copied, transmitted, or stored only in accord with that
 written license.
  
 The following legend is applicable only to US Government
 contracts under FAR:
  
                    RESTRICTED RIGHTS LEGEND
  
 Use, reproduction and disclosure by the US Government is
 subject to restrictions as set forth in subparagraphs (a)
 and (c) of the Commercial Computer Software - Restricted
 Rights clause in FAR 52.227-19.
  
 Gaussian, Inc.
 340 Quinnipiac St., Bldg. 40, Wallingford CT 06492
  
  
 ---------------------------------------------------------------
 Warning -- This program may not be used in any manner that
 competes with the business of Gaussian, Inc. or will provide
 assistance to any competitor of Gaussian, Inc.  The licensee
 of this program is prohibited from giving any competitor of
 Gaussian, Inc. access to this program.  By using this program,
 the user acknowledges that Gaussian, Inc. is engaged in the
 business of creating and licensing software in the field of
 computational chemistry and represents and warrants to the
 licensee that it is not a competitor of Gaussian, Inc. and that
 it will not use this program in any manner prohibited above.
 ---------------------------------------------------------------
  

 Cite this work as:
 Gaussian 16, Revision A.03,
 M. J. Frisch, G. W. Trucks, H. B. Schlegel, G. E. Scuseria, 
 M. A. Robb, J. R. Cheeseman, G. Scalmani, V. Barone, 
 G. A. Petersson, H. Nakatsuji, X. Li, M. Caricato, A. V. Marenich, 
 J. Bloino, B. G. Janesko, R. Gomperts, B. Mennucci, H. P. Hratchian, 
 J. V. Ortiz, A. F. Izmaylov, J. L. Sonnenberg, D. Williams-Young, 
 F. Ding, F. Lipparini, F. Egidi, J. Goings, B. Peng, A. Petrone, 
 T. Henderson, D. Ranasinghe, V. G. Zakrzewski, J. Gao, N. Rega, 
 G. Zheng, W. Liang, M. Hada, M. Ehara, K. Toyota, R. Fukuda, 
 J. Hasegawa, M. Ishida, T. Nakajima, Y. Honda, O. Kitao, H. Nakai, 
 T. Vreven, K. Throssell, J. A. Montgomery, Jr., J. E. Peralta, 
 F. Ogliaro, M. J. Bearpark, J. J. Heyd, E. N. Brothers, K. N. Kudin, 
 V. N. Staroverov, T. A. Keith, R. Kobayashi, J. Normand, 
 K. Raghavachari, A. P. Rendell, J. C. Burant, S. S. Iyengar, 
 J. Tomasi, M. Cossi, J. M. Millam, M. Klene, C. Adamo, R. Cammi, 
 J. W. Ochterski, R. L. Martin, K. Morokuma, O. Farkas, 
 J. B. Foresman, and D. J. Fox, Gaussian, Inc., Wallingford CT, 2016.
 
 ******************************************
 Gaussian 16:  EM64L-G16RevA.03 25-Dec-2016
                 9-Jul-2024 
 ******************************************
 %nprocshared=7
 Will use up to    7 processors via shared memory.
 %mem=14GB
 %Chk=QFTYSVGGYOXFRQ-UHFFFAOYSA-N_conf_2_0.chk
 -------------------------------------------------------
 # opt=CalcFc B3LYP/6-31G** SCRF=(Solvent=water) scf=xqc
 -------------------------------------------------------
 1/10=4,18=20,19=15,26=3,38=1/1,3;
 2/9=110,12=2,17=6,18=5,40=1/2;
 3/5=1,6=6,7=101,11=2,25=1,30=1,70=2201,71=2,72=1,74=-5,140=1/1,2,3;
 4//1;
 5/5=2,8=3,13=1,38=5,53=1/2,8;
 8/6=4,10=90,11=11/1;
 11/6=1,8=1,9=11,15=111,16=1/1,2,10;
 10/6=1,13=1/2;
 6/7=2,8=2,9=2,10=2,28=1/1;
 7/10=1,18=20,25=1/1,2,3,16;
 1/10=4,18=20,19=15,26=3/3(2);
 2/9=110/2;
 99//99;
 2/9=110/2;
 3/5=1,6=6,7=101,11=2,25=1,30=1,70=2205,71=1,72=1,74=-5/1,2,3;
 4/5=5,16=3,69=1/1;
 5/5=2,8=3,13=1,38=5,53=1/2,8;
 7//1,2,3,16;
 1/18=20,19=15,26=3/3(-5);
 2/9=110/2;
 6/7=2,8=2,9=2,10=2,19=2,28=1/1;
 99/9=1/99;
 ----------------------------------
 QFTYSVGGYOXFRQ-UHFFFAOYSA-N_conf_2
 ----------------------------------
 Symbolic Z-matrix:
 Charge =  0 Multiplicity = 1
 N                    -3.96656   2.24736  -2.92761 
 C                    -3.1208    1.30789  -2.19887 
 C                    -3.95743   0.51226  -1.19708 
 C                    -3.12094  -0.43779  -0.33292 
 C                    -2.47868  -1.57477  -1.13161 
 C                    -1.81255  -2.63509  -0.24786 
 C                    -0.69362  -2.13055   0.66871 
 C                     0.47159  -1.49003  -0.08823 
 C                     1.60417  -1.09951   0.8652 
 C                     2.76457  -0.45003   0.10857 
 C                     3.97019  -0.13003   0.99755 
 C                     3.70533   0.82735   2.16441 
 C                     3.18531   2.19459   1.72028 
 N                     3.04326   3.0948    2.86059 
 H                    -3.38738   2.80906  -3.55055 
 H                    -4.39634   2.90042  -2.27343 
 H                    -2.32976   1.85937  -1.67918 
 H                    -2.64456   0.63859  -2.92147 
 H                    -4.47944   1.20777  -0.52698 
 H                    -4.73257  -0.05818  -1.72429 
 H                    -2.35069   0.14036   0.19008 
 H                    -3.77511  -0.86608   0.43646 
 H                    -1.74535  -1.17587  -1.84019 
 H                    -3.25051  -2.07128  -1.73302 
 H                    -1.41102  -3.4236   -0.89654 
 H                    -2.58076  -3.11134   0.37414 
 H                    -1.09806  -1.42067   1.39937 
 H                    -0.31866  -2.98474   1.24666 
 H                     0.12851  -0.59466  -0.61868 
 H                     0.84995  -2.19124  -0.84167 
 H                     1.96336  -1.99007   1.39467 
 H                     1.21251  -0.40727   1.61894 
 H                     3.10016  -1.13061  -0.68423 
 H                     2.4178    0.45915  -0.39571 
 H                     4.36936  -1.06783   1.40405 
 H                     4.76205   0.29258   0.36639 
 H                     4.64819   0.9583    2.71151 
 H                     3.00317   0.36937   2.87136 
 H                     3.87107   2.64522   0.99497 
 H                     2.20913   2.09947   1.23507 
 H                     3.94544   3.20454   3.32271 
 H                     2.42568   2.67283   3.55333 
 

 GradGradGradGradGradGradGradGradGradGradGradGradGradGradGradGradGradGrad
 Berny optimization.
 Initialization pass.
                           ----------------------------
                           !    Initial Parameters    !
                           ! (Angstroms and Degrees)  !
 --------------------------                            --------------------------
 ! Name  Definition              Value          Derivative Info.                !
 --------------------------------------------------------------------------------
 ! R1    R(1,2)                  1.4591         calculate D2E/DX2 analytically  !
 ! R2    R(1,15)                 1.0193         calculate D2E/DX2 analytically  !
 ! R3    R(1,16)                 1.0194         calculate D2E/DX2 analytically  !
 ! R4    R(2,3)                  1.5286         calculate D2E/DX2 analytically  !
 ! R5    R(2,17)                 1.0954         calculate D2E/DX2 analytically  !
 ! R6    R(2,18)                 1.094          calculate D2E/DX2 analytically  !
 ! R7    R(3,4)                  1.5327         calculate D2E/DX2 analytically  !
 ! R8    R(3,19)                 1.0979         calculate D2E/DX2 analytically  !
 ! R9    R(3,20)                 1.0974         calculate D2E/DX2 analytically  !
 ! R10   R(4,5)                  1.5307         calculate D2E/DX2 analytically  !
 ! R11   R(4,21)                 1.0959         calculate D2E/DX2 analytically  !
 ! R12   R(4,22)                 1.097          calculate D2E/DX2 analytically  !
 ! R13   R(5,6)                  1.5327         calculate D2E/DX2 analytically  !
 ! R14   R(5,23)                 1.095          calculate D2E/DX2 analytically  !
 ! R15   R(5,24)                 1.0972         calculate D2E/DX2 analytically  !
 ! R16   R(6,7)                  1.5319         calculate D2E/DX2 analytically  !
 ! R17   R(6,25)                 1.0972         calculate D2E/DX2 analytically  !
 ! R18   R(6,26)                 1.0972         calculate D2E/DX2 analytically  !
 ! R19   R(7,8)                  1.53           calculate D2E/DX2 analytically  !
 ! R20   R(7,27)                 1.0961         calculate D2E/DX2 analytically  !
 ! R21   R(7,28)                 1.0974         calculate D2E/DX2 analytically  !
 ! R22   R(8,9)                  1.5311         calculate D2E/DX2 analytically  !
 ! R23   R(8,29)                 1.0958         calculate D2E/DX2 analytically  !
 ! R24   R(8,30)                 1.0966         calculate D2E/DX2 analytically  !
 ! R25   R(9,10)                 1.53           calculate D2E/DX2 analytically  !
 ! R26   R(9,31)                 1.0966         calculate D2E/DX2 analytically  !
 ! R27   R(9,32)                 1.0958         calculate D2E/DX2 analytically  !
 ! R28   R(10,11)                1.5317         calculate D2E/DX2 analytically  !
 ! R29   R(10,33)                1.0974         calculate D2E/DX2 analytically  !
 ! R30   R(10,34)                1.096          calculate D2E/DX2 analytically  !
 ! R31   R(11,12)                1.5324         calculate D2E/DX2 analytically  !
 ! R32   R(11,35)                1.0973         calculate D2E/DX2 analytically  !
 ! R33   R(11,36)                1.0973         calculate D2E/DX2 analytically  !
 ! R34   R(12,13)                1.5287         calculate D2E/DX2 analytically  !
 ! R35   R(12,37)                1.0979         calculate D2E/DX2 analytically  !
 ! R36   R(12,38)                1.0966         calculate D2E/DX2 analytically  !
 ! R37   R(13,14)                1.4597         calculate D2E/DX2 analytically  !
 ! R38   R(13,39)                1.0952         calculate D2E/DX2 analytically  !
 ! R39   R(13,40)                1.0943         calculate D2E/DX2 analytically  !
 ! R40   R(14,41)                1.0196         calculate D2E/DX2 analytically  !
 ! R41   R(14,42)                1.0195         calculate D2E/DX2 analytically  !
 ! A1    A(2,1,15)             109.3104         calculate D2E/DX2 analytically  !
 ! A2    A(2,1,16)             109.6554         calculate D2E/DX2 analytically  !
 ! A3    A(15,1,16)            106.184          calculate D2E/DX2 analytically  !
 ! A4    A(1,2,3)              110.1944         calculate D2E/DX2 analytically  !
 ! A5    A(1,2,17)             109.3521         calculate D2E/DX2 analytically  !
 ! A6    A(1,2,18)             108.4422         calculate D2E/DX2 analytically  !
 ! A7    A(3,2,17)             110.2649         calculate D2E/DX2 analytically  !
 ! A8    A(3,2,18)             110.6518         calculate D2E/DX2 analytically  !
 ! A9    A(17,2,18)            107.8781         calculate D2E/DX2 analytically  !
 ! A10   A(2,3,4)              113.1691         calculate D2E/DX2 analytically  !
 ! A11   A(2,3,19)             109.3002         calculate D2E/DX2 analytically  !
 ! A12   A(2,3,20)             110.0184         calculate D2E/DX2 analytically  !
 ! A13   A(4,3,19)             107.9419         calculate D2E/DX2 analytically  !
 ! A14   A(4,3,20)             109.5224         calculate D2E/DX2 analytically  !
 ! A15   A(19,3,20)            106.661          calculate D2E/DX2 analytically  !
 ! A16   A(3,4,5)              113.2794         calculate D2E/DX2 analytically  !
 ! A17   A(3,4,21)             109.0051         calculate D2E/DX2 analytically  !
 ! A18   A(3,4,22)             108.1799         calculate D2E/DX2 analytically  !
 ! A19   A(5,4,21)             110.2396         calculate D2E/DX2 analytically  !
 ! A20   A(5,4,22)             109.0364         calculate D2E/DX2 analytically  !
 ! A21   A(21,4,22)            106.8818         calculate D2E/DX2 analytically  !
 ! A22   A(4,5,6)              113.2886         calculate D2E/DX2 analytically  !
 ! A23   A(4,5,23)             110.369          calculate D2E/DX2 analytically  !
 ! A24   A(4,5,24)             109.0843         calculate D2E/DX2 analytically  !
 ! A25   A(6,5,23)             109.5171         calculate D2E/DX2 analytically  !
 ! A26   A(6,5,24)             107.9817         calculate D2E/DX2 analytically  !
 ! A27   A(23,5,24)            106.3351         calculate D2E/DX2 analytically  !
 ! A28   A(5,6,7)              115.7603         calculate D2E/DX2 analytically  !
 ! A29   A(5,6,25)             108.382          calculate D2E/DX2 analytically  !
 ! A30   A(5,6,26)             108.8368         calculate D2E/DX2 analytically  !
 ! A31   A(7,6,25)             108.8528         calculate D2E/DX2 analytically  !
 ! A32   A(7,6,26)             108.3714         calculate D2E/DX2 analytically  !
 ! A33   A(25,6,26)            106.2281         calculate D2E/DX2 analytically  !
 ! A34   A(6,7,8)              113.4617         calculate D2E/DX2 analytically  !
 ! A35   A(6,7,27)             110.0386         calculate D2E/DX2 analytically  !
 ! A36   A(6,7,28)             107.9584         calculate D2E/DX2 analytically  !
 ! A37   A(8,7,27)             109.8571         calculate D2E/DX2 analytically  !
 ! A38   A(8,7,28)             109.038          calculate D2E/DX2 analytically  !
 ! A39   A(27,7,28)            106.2081         calculate D2E/DX2 analytically  !
 ! A40   A(7,8,9)              111.2258         calculate D2E/DX2 analytically  !
 ! A41   A(7,8,29)             110.0673         calculate D2E/DX2 analytically  !
 ! A42   A(7,8,30)             109.5716         calculate D2E/DX2 analytically  !
 ! A43   A(9,8,29)             108.943          calculate D2E/DX2 analytically  !
 ! A44   A(9,8,30)             109.616          calculate D2E/DX2 analytically  !
 ! A45   A(29,8,30)            107.3324         calculate D2E/DX2 analytically  !
 ! A46   A(8,9,10)             111.1828         calculate D2E/DX2 analytically  !
 ! A47   A(8,9,31)             109.6231         calculate D2E/DX2 analytically  !
 ! A48   A(8,9,32)             108.9697         calculate D2E/DX2 analytically  !
 ! A49   A(10,9,31)            109.579          calculate D2E/DX2 analytically  !
 ! A50   A(10,9,32)            110.065          calculate D2E/DX2 analytically  !
 ! A51   A(31,9,32)            107.3383         calculate D2E/DX2 analytically  !
 ! A52   A(9,10,11)            113.4923         calculate D2E/DX2 analytically  !
 ! A53   A(9,10,33)            109.0221         calculate D2E/DX2 analytically  !
 ! A54   A(9,10,34)            109.8603         calculate D2E/DX2 analytically  !
 ! A55   A(11,10,33)           107.9477         calculate D2E/DX2 analytically  !
 ! A56   A(11,10,34)           110.046          calculate D2E/DX2 analytically  !
 ! A57   A(33,10,34)           106.1896         calculate D2E/DX2 analytically  !
 ! A58   A(10,11,12)           115.8751         calculate D2E/DX2 analytically  !
 ! A59   A(10,11,35)           108.8315         calculate D2E/DX2 analytically  !
 ! A60   A(10,11,36)           108.3393         calculate D2E/DX2 analytically  !
 ! A61   A(12,11,35)           108.3448         calculate D2E/DX2 analytically  !
 ! A62   A(12,11,36)           108.7903         calculate D2E/DX2 analytically  !
 ! A63   A(35,11,36)           106.2436         calculate D2E/DX2 analytically  !
 ! A64   A(11,12,13)           113.3488         calculate D2E/DX2 analytically  !
 ! A65   A(11,12,37)           107.7893         calculate D2E/DX2 analytically  !
 ! A66   A(11,12,38)           109.9155         calculate D2E/DX2 analytically  !
 ! A67   A(13,12,37)           109.2822         calculate D2E/DX2 analytically  !
 ! A68   A(13,12,38)           110.0599         calculate D2E/DX2 analytically  !
 ! A69   A(37,12,38)           106.167          calculate D2E/DX2 analytically  !
 ! A70   A(12,13,14)           110.9588         calculate D2E/DX2 analytically  !
 ! A71   A(12,13,39)           110.3291         calculate D2E/DX2 analytically  !
 ! A72   A(12,13,40)           110.7654         calculate D2E/DX2 analytically  !
 ! A73   A(14,13,39)           108.9371         calculate D2E/DX2 analytically  !
 ! A74   A(14,13,40)           108.2509         calculate D2E/DX2 analytically  !
 ! A75   A(39,13,40)           107.4994         calculate D2E/DX2 analytically  !
 ! A76   A(13,14,41)           109.5327         calculate D2E/DX2 analytically  !
 ! A77   A(13,14,42)           109.5419         calculate D2E/DX2 analytically  !
 ! A78   A(41,14,42)           105.8183         calculate D2E/DX2 analytically  !
 ! D1    D(15,1,2,3)           176.6168         calculate D2E/DX2 analytically  !
 ! D2    D(15,1,2,17)           55.2623         calculate D2E/DX2 analytically  !
 ! D3    D(15,1,2,18)          -62.1321         calculate D2E/DX2 analytically  !
 ! D4    D(16,1,2,3)            60.5917         calculate D2E/DX2 analytically  !
 ! D5    D(16,1,2,17)          -60.7627         calculate D2E/DX2 analytically  !
 ! D6    D(16,1,2,18)         -178.1571         calculate D2E/DX2 analytically  !
 ! D7    D(1,2,3,4)           -176.524          calculate D2E/DX2 analytically  !
 ! D8    D(1,2,3,19)           -56.1993         calculate D2E/DX2 analytically  !
 ! D9    D(1,2,3,20)            60.6025         calculate D2E/DX2 analytically  !
 ! D10   D(17,2,3,4)           -55.7151         calculate D2E/DX2 analytically  !
 ! D11   D(17,2,3,19)           64.6097         calculate D2E/DX2 analytically  !
 ! D12   D(17,2,3,20)         -178.5885         calculate D2E/DX2 analytically  !
 ! D13   D(18,2,3,4)            63.5521         calculate D2E/DX2 analytically  !
 ! D14   D(18,2,3,19)         -176.1231         calculate D2E/DX2 analytically  !
 ! D15   D(18,2,3,20)          -59.3214         calculate D2E/DX2 analytically  !
 ! D16   D(2,3,4,5)            -66.2231         calculate D2E/DX2 analytically  !
 ! D17   D(2,3,4,21)            56.9045         calculate D2E/DX2 analytically  !
 ! D18   D(2,3,4,22)           172.778          calculate D2E/DX2 analytically  !
 ! D19   D(19,3,4,5)           172.6816         calculate D2E/DX2 analytically  !
 ! D20   D(19,3,4,21)          -64.1908         calculate D2E/DX2 analytically  !
 ! D21   D(19,3,4,22)           51.6827         calculate D2E/DX2 analytically  !
 ! D22   D(20,3,4,5)            56.9248         calculate D2E/DX2 analytically  !
 ! D23   D(20,3,4,21)         -179.9475         calculate D2E/DX2 analytically  !
 ! D24   D(20,3,4,22)          -64.0741         calculate D2E/DX2 analytically  !
 ! D25   D(3,4,5,6)           -171.6952         calculate D2E/DX2 analytically  !
 ! D26   D(3,4,5,23)            65.089          calculate D2E/DX2 analytically  !
 ! D27   D(3,4,5,24)           -51.3929         calculate D2E/DX2 analytically  !
 ! D28   D(21,4,5,6)            65.8604         calculate D2E/DX2 analytically  !
 ! D29   D(21,4,5,23)          -57.3553         calculate D2E/DX2 analytically  !
 ! D30   D(21,4,5,24)         -173.8373         calculate D2E/DX2 analytically  !
 ! D31   D(22,4,5,6)           -51.181          calculate D2E/DX2 analytically  !
 ! D32   D(22,4,5,23)         -174.3967         calculate D2E/DX2 analytically  !
 ! D33   D(22,4,5,24)           69.1213         calculate D2E/DX2 analytically  !
 ! D34   D(4,5,6,7)            -59.3123         calculate D2E/DX2 analytically  !
 ! D35   D(4,5,6,25)           178.1098         calculate D2E/DX2 analytically  !
 ! D36   D(4,5,6,26)            62.9897         calculate D2E/DX2 analytically  !
 ! D37   D(23,5,6,7)            64.3713         calculate D2E/DX2 analytically  !
 ! D38   D(23,5,6,25)          -58.2066         calculate D2E/DX2 analytically  !
 ! D39   D(23,5,6,26)         -173.3267         calculate D2E/DX2 analytically  !
 ! D40   D(24,5,6,7)           179.7607         calculate D2E/DX2 analytically  !
 ! D41   D(24,5,6,25)           57.1828         calculate D2E/DX2 analytically  !
 ! D42   D(24,5,6,26)          -57.9373         calculate D2E/DX2 analytically  !
 ! D43   D(5,6,7,8)            -59.6914         calculate D2E/DX2 analytically  !
 ! D44   D(5,6,7,27)            63.8439         calculate D2E/DX2 analytically  !
 ! D45   D(5,6,7,28)           179.3461         calculate D2E/DX2 analytically  !
 ! D46   D(25,6,7,8)            62.637          calculate D2E/DX2 analytically  !
 ! D47   D(25,6,7,27)         -173.8276         calculate D2E/DX2 analytically  !
 ! D48   D(25,6,7,28)          -58.3254         calculate D2E/DX2 analytically  !
 ! D49   D(26,6,7,8)           177.7599         calculate D2E/DX2 analytically  !
 ! D50   D(26,6,7,27)          -58.7047         calculate D2E/DX2 analytically  !
 ! D51   D(26,6,7,28)           56.7975         calculate D2E/DX2 analytically  !
 ! D52   D(6,7,8,9)           -175.7607         calculate D2E/DX2 analytically  !
 ! D53   D(6,7,8,29)            63.3994         calculate D2E/DX2 analytically  !
 ! D54   D(6,7,8,30)           -54.4074         calculate D2E/DX2 analytically  !
 ! D55   D(27,7,8,9)            60.6048         calculate D2E/DX2 analytically  !
 ! D56   D(27,7,8,29)          -60.2351         calculate D2E/DX2 analytically  !
 ! D57   D(27,7,8,30)         -178.042          calculate D2E/DX2 analytically  !
 ! D58   D(28,7,8,9)           -55.4076         calculate D2E/DX2 analytically  !
 ! D59   D(28,7,8,29)         -176.2475         calculate D2E/DX2 analytically  !
 ! D60   D(28,7,8,30)           65.9457         calculate D2E/DX2 analytically  !
 ! D61   D(7,8,9,10)          -179.5939         calculate D2E/DX2 analytically  !
 ! D62   D(7,8,9,31)            59.0928         calculate D2E/DX2 analytically  !
 ! D63   D(7,8,9,32)           -58.1082         calculate D2E/DX2 analytically  !
 ! D64   D(29,8,9,10)          -58.0956         calculate D2E/DX2 analytically  !
 ! D65   D(29,8,9,31)         -179.4089         calculate D2E/DX2 analytically  !
 ! D66   D(29,8,9,32)           63.3901         calculate D2E/DX2 analytically  !
 ! D67   D(30,8,9,10)           59.0788         calculate D2E/DX2 analytically  !
 ! D68   D(30,8,9,31)          -62.2345         calculate D2E/DX2 analytically  !
 ! D69   D(30,8,9,32)         -179.4355         calculate D2E/DX2 analytically  !
 ! D70   D(8,9,10,11)         -175.8238         calculate D2E/DX2 analytically  !
 ! D71   D(8,9,10,33)          -55.4754         calculate D2E/DX2 analytically  !
 ! D72   D(8,9,10,34)           60.5075         calculate D2E/DX2 analytically  !
 ! D73   D(31,9,10,11)         -54.4847         calculate D2E/DX2 analytically  !
 ! D74   D(31,9,10,33)          65.8638         calculate D2E/DX2 analytically  !
 ! D75   D(31,9,10,34)        -178.1534         calculate D2E/DX2 analytically  !
 ! D76   D(32,9,10,11)          63.3324         calculate D2E/DX2 analytically  !
 ! D77   D(32,9,10,33)        -176.3192         calculate D2E/DX2 analytically  !
 ! D78   D(32,9,10,34)         -60.3363         calculate D2E/DX2 analytically  !
 ! D79   D(9,10,11,12)         -59.6927         calculate D2E/DX2 analytically  !
 ! D80   D(9,10,11,35)          62.6515         calculate D2E/DX2 analytically  !
 ! D81   D(9,10,11,36)         177.7644         calculate D2E/DX2 analytically  !
 ! D82   D(33,10,11,12)        179.3527         calculate D2E/DX2 analytically  !
 ! D83   D(33,10,11,35)        -58.3031         calculate D2E/DX2 analytically  !
 ! D84   D(33,10,11,36)         56.8098         calculate D2E/DX2 analytically  !
 ! D85   D(34,10,11,12)         63.8745         calculate D2E/DX2 analytically  !
 ! D86   D(34,10,11,35)       -173.7812         calculate D2E/DX2 analytically  !
 ! D87   D(34,10,11,36)        -58.6683         calculate D2E/DX2 analytically  !
 ! D88   D(10,11,12,13)        -59.241          calculate D2E/DX2 analytically  !
 ! D89   D(10,11,12,37)        179.6784         calculate D2E/DX2 analytically  !
 ! D90   D(10,11,12,38)         64.3841         calculate D2E/DX2 analytically  !
 ! D91   D(35,11,12,13)        178.1576         calculate D2E/DX2 analytically  !
 ! D92   D(35,11,12,37)         57.077          calculate D2E/DX2 analytically  !
 ! D93   D(35,11,12,38)        -58.2172         calculate D2E/DX2 analytically  !
 ! D94   D(36,11,12,13)         63.0634         calculate D2E/DX2 analytically  !
 ! D95   D(36,11,12,37)        -58.0172         calculate D2E/DX2 analytically  !
 ! D96   D(36,11,12,38)       -173.3115         calculate D2E/DX2 analytically  !
 ! D97   D(11,12,13,14)       -175.8857         calculate D2E/DX2 analytically  !
 ! D98   D(11,12,13,39)        -55.0539         calculate D2E/DX2 analytically  !
 ! D99   D(11,12,13,40)         63.8555         calculate D2E/DX2 analytically  !
 ! D100  D(37,12,13,14)        -55.6496         calculate D2E/DX2 analytically  !
 ! D101  D(37,12,13,39)         65.1822         calculate D2E/DX2 analytically  !
 ! D102  D(37,12,13,40)       -175.9083         calculate D2E/DX2 analytically  !
 ! D103  D(38,12,13,14)         60.5682         calculate D2E/DX2 analytically  !
 ! D104  D(38,12,13,39)       -178.6            calculate D2E/DX2 analytically  !
 ! D105  D(38,12,13,40)        -59.6905         calculate D2E/DX2 analytically  !
 ! D106  D(12,13,14,41)         58.7925         calculate D2E/DX2 analytically  !
 ! D107  D(12,13,14,42)        -56.8549         calculate D2E/DX2 analytically  !
 ! D108  D(39,13,14,41)        -62.8579         calculate D2E/DX2 analytically  !
 ! D109  D(39,13,14,42)       -178.5053         calculate D2E/DX2 analytically  !
 ! D110  D(40,13,14,41)       -179.466          calculate D2E/DX2 analytically  !
 ! D111  D(40,13,14,42)         64.8866         calculate D2E/DX2 analytically  !
 --------------------------------------------------------------------------------
 Trust Radius=3.00D-01 FncErr=1.00D-07 GrdErr=1.00D-06 EigMax=2.50D+02 EigMin=1.00D-04
 Number of steps in this run=    240 maximum allowed number of steps=    252.
 GradGradGradGradGradGradGradGradGradGradGradGradGradGradGradGradGradGrad

                          Input orientation:                          
 ---------------------------------------------------------------------
 Center     Atomic      Atomic             Coordinates (Angstroms)
 Number     Number       Type             X           Y           Z
 ---------------------------------------------------------------------
      1          7           0       -3.966558    2.247361   -2.927607
      2          6           0       -3.120801    1.307887   -2.198870
      3          6           0       -3.957428    0.512256   -1.197083
      4          6           0       -3.120941   -0.437789   -0.332917
      5          6           0       -2.478681   -1.574767   -1.131611
      6          6           0       -1.812554   -2.635092   -0.247864
      7          6           0       -0.693624   -2.130550    0.668714
      8          6           0        0.471585   -1.490030   -0.088233
      9          6           0        1.604171   -1.099513    0.865204
     10          6           0        2.764570   -0.450031    0.108566
     11          6           0        3.970189   -0.130030    0.997551
     12          6           0        3.705329    0.827351    2.164412
     13          6           0        3.185308    2.194586    1.720277
     14          7           0        3.043264    3.094802    2.860585
     15          1           0       -3.387382    2.809061   -3.550554
     16          1           0       -4.396337    2.900416   -2.273433
     17          1           0       -2.329762    1.859367   -1.679181
     18          1           0       -2.644561    0.638585   -2.921469
     19          1           0       -4.479439    1.207773   -0.526976
     20          1           0       -4.732565   -0.058185   -1.724294
     21          1           0       -2.350688    0.140356    0.190080
     22          1           0       -3.775112   -0.866082    0.436457
     23          1           0       -1.745354   -1.175875   -1.840191
     24          1           0       -3.250510   -2.071283   -1.733020
     25          1           0       -1.411017   -3.423597   -0.896541
     26          1           0       -2.580756   -3.111341    0.374135
     27          1           0       -1.098062   -1.420673    1.399374
     28          1           0       -0.318659   -2.984738    1.246661
     29          1           0        0.128512   -0.594658   -0.618685
     30          1           0        0.849946   -2.191244   -0.841673
     31          1           0        1.963360   -1.990075    1.394673
     32          1           0        1.212508   -0.407266    1.618942
     33          1           0        3.100155   -1.130607   -0.684234
     34          1           0        2.417801    0.459150   -0.395713
     35          1           0        4.369362   -1.067829    1.404049
     36          1           0        4.762054    0.292576    0.366391
     37          1           0        4.648190    0.958300    2.711509
     38          1           0        3.003175    0.369370    2.871358
     39          1           0        3.871066    2.645217    0.994965
     40          1           0        2.209132    2.099471    1.235067
     41          1           0        3.945440    3.204542    3.322715
     42          1           0        2.425675    2.672828    3.553333
 ---------------------------------------------------------------------
                    Distance matrix (angstroms):
                    1          2          3          4          5
     1  N    0.000000
     2  C    1.459101   0.000000
     3  C    2.450589   1.528578   0.000000
     4  C    3.828514   2.555223   1.532671   0.000000
     5  C    4.477504   3.140231   2.558641   1.530728   0.000000
     6  C    5.971524   4.589664   3.925214   2.558760   1.532653
     7  C    6.543067   5.092845   4.595437   3.124191   2.595476
     8  C    6.459664   5.018801   4.985465   3.751443   3.130478
     9  C    7.524626   6.124498   6.146723   4.919355   4.569772
    10  C    7.861447   6.561412   6.914910   5.902059   5.504067
    11  C    9.167922   7.909920   8.250821   7.221425   6.943235
    12  C    9.316809   8.115737   8.373576   7.378020   7.407828
    13  C    8.529642   7.477496   7.896828   7.135389   7.377131
    14  N    9.130111   8.172322   8.493757   7.789421   8.260411
    15  H    1.019321   2.037558   3.337528   4.578888   5.088710
    16  H    1.019379   2.041740   2.656027   4.066430   5.000842
    17  H    2.094805   1.095422   2.167122   2.777645   3.480701
    18  H    2.082276   1.094038   2.170964   2.843611   2.851322
    19  H    2.665862   2.156652   1.097853   2.142673   3.480106
    20  H    2.711139   2.165446   1.097357   2.162721   2.780519
    21  H    4.095177   2.768263   2.155027   1.095932   2.169078
    22  H    4.587713   3.478392   2.145113   1.096956   2.154485
    23  H    4.223123   2.861743   2.855984   2.169997   1.094975
    24  H    4.537670   3.413595   2.731599   2.155314   1.097242
    25  H    6.543377   5.196764   4.697390   3.486626   2.147868
    26  H    6.444970   5.142137   4.182632   2.817730   2.153776
    27  H    6.356533   4.948118   4.319002   2.838826   2.887168
    28  H    7.622765   6.176594   5.607272   4.103023   3.508546
    29  H    5.493432   4.083466   4.272553   3.265764   2.832167
    30  H    6.873939   5.463765   5.526850   4.370512   3.397627
    31  H    8.473600   7.045480   6.930699   5.589658   5.127019
    32  H    7.385179   6.024533   5.958503   4.752837   4.749051
    33  H    8.147504   6.851326   7.264399   6.269406   5.614342
    34  H    7.097057   5.886241   6.425617   5.611248   5.352934
    35  H    9.961992   8.644512   8.865551   7.714832   7.319990
    36  H    9.532065   8.351696   8.861268   7.947583   7.626220
    37  H   10.376666   9.197351   9.462173   8.460319   8.484003
    38  H    9.259159   8.005692   8.063661   6.958712   7.060749
    39  H    8.773437   7.802258   8.404756   7.756053   7.915168
    40  H    7.449085   6.389578   6.816235   6.107858   6.409117
    41  H   10.128298   9.166076   9.493803   8.750083   9.162540
    42  H    9.112862   8.106436   8.244910   7.452773   8.002717
                    6          7          8          9         10
     6  C    0.000000
     7  C    1.531889   0.000000
     8  C    2.560067   1.530015   0.000000
     9  C    3.907804   2.526164   1.531109   0.000000
    10  C    5.084446   3.885488   2.525491   1.529985   0.000000
    11  C    6.423901   5.085407   3.907525   2.560362   1.531735
    12  C    6.946554   5.507910   4.571844   3.132987   2.596774
    13  C    7.223433   5.904125   4.920507   3.752630   3.125481
    14  N    8.128537   6.787705   6.027416   4.862593   4.496346
    15  H    6.559470   7.032660   6.735093   7.726026   7.864945
    16  H    6.435893   6.904848   6.909977   7.864895   8.256998
    17  H    4.745137   4.910090   4.647270   5.541181   5.872102
    18  H    4.307826   4.935958   4.718962   5.950765   6.294831
    19  H    4.685914   5.187144   5.655376   6.653723   7.458411
    20  H    4.164944   5.131688   5.640041   6.924167   7.727869
    21  H    2.860856   2.851660   3.271215   4.199283   5.149861
    22  H    2.729346   3.338921   4.324240   5.401388   6.561102
    23  H    2.160865   2.883079   2.843039   4.306311   4.966278
    24  H    2.142729   3.508490   4.110618   5.591336   6.496236
    25  H    1.097157   2.153287   2.817133   4.194815   5.223778
    26  H    1.097192   2.147090   3.487007   4.669284   5.977090
    27  H    2.167650   1.096065   2.163695   2.773182   4.186676
    28  H    2.141864   1.097388   2.154201   2.719717   4.150458
    29  H    2.840531   2.166164   1.095797   2.152759   2.738359
    30  H    2.763786   2.160454   1.096599   2.161981   2.756911
    31  H    4.167914   2.757955   2.162047   1.096565   2.160496
    32  H    4.195137   2.739704   2.153088   1.095776   2.166094
    33  H    5.156414   4.150074   2.719151   2.153995   1.097421
    34  H    5.243290   4.185751   2.771570   2.163640   1.095974
    35  H    6.587960   5.225315   4.194976   2.817382   2.152977
    36  H    7.223159   5.977237   4.668243   3.486969   2.146598
    37  H    7.963139   6.499922   5.592576   4.112115   3.508096
    38  H    6.476695   4.976702   4.315726   2.852978   2.891604
    39  H    7.856833   6.614437   5.461690   4.379344   3.404497
    40  H    6.386636   5.161377   4.201750   3.276625   2.842091
    41  H    8.944543   7.551677   6.763226   5.481403   5.008105
    42  H    7.783682   6.412760   5.865906   4.704409   4.661923
                   11         12         13         14         15
    11  C    0.000000
    12  C    1.532414   0.000000
    13  C    2.557774   1.528728   0.000000
    14  N    3.837920   2.462584   1.459750   0.000000
    15  H    9.135500   9.321725   8.447455   9.085019   0.000000
    16  H    9.480596   9.467262   8.598212   9.041217   1.630146
    17  H    7.128252   7.229148   6.487271   7.141792   2.350004
    18  H    7.726862   8.137747   7.612773   8.474463   2.378759
    19  H    8.689655   8.624309   8.048123   8.463304   3.591482
    20  H    9.118745   9.332966   8.923718   9.561693   3.655933
    21  H    6.377978   6.406660   6.099886   6.704855   4.710527
    22  H    7.800403   7.861968   7.711247   8.249561   5.436292
    23  H    6.466374   7.054056   6.953299   7.954046   4.636951
    24  H    7.960086   8.483852   8.458289   9.348863   5.209599
    25  H    6.587301   7.322362   7.716081   8.743349   7.056616
    26  H    7.224385   7.631071   7.950625   8.736604   7.148776
    27  H    5.245415   5.358307   5.614297   6.298828   6.901697
    28  H    5.158065   5.618431   6.271164   7.132187   8.123943
    29  H    4.193635   4.749879   4.753380   5.849206   5.704619
    30  H    4.167404   5.128515   5.590438   6.816131   7.091970
    31  H    2.764929   3.400712   4.371562   5.401024   8.724530
    32  H    2.840385   2.834779   3.266778   4.142201   7.630691
    33  H    2.141615   3.509219   4.104368   5.515711   8.113255
    34  H    2.167539   2.889211   2.842221   4.235722   7.012506
    35  H    1.097291   2.147277   3.485016   4.605164   9.987264
    36  H    1.097274   2.153029   2.817229   4.126465   9.385545
    37  H    2.140515   1.097930   2.156610   2.676313  10.354186
    38  H    2.166950   1.096604   2.165542   2.725748   9.382551
    39  H    2.777018   2.167882   1.095176   2.089957   8.565842
    40  H    2.851036   2.172689   1.094255   2.080570   7.397747
    41  H    4.065264   2.655250   2.040985   1.019572  10.058255
    42  H    4.095553   2.640530   2.041042   1.019499   9.180164
                   16         17         18         19         20
    16  H    0.000000
    17  H    2.389069   0.000000
    18  H    2.933351   1.769940   0.000000
    19  H    2.433528   2.524531   3.069910   0.000000
    20  H    3.027858   3.074492   2.505689   1.760764   0.000000
    21  H    4.227470   2.539600   3.164859   2.486991   3.062284
    22  H    4.681446   3.740726   3.849395   2.392729   2.497651
    23  H    4.881758   3.095181   2.295648   3.857658   3.191566
    24  H    5.130571   4.037410   3.020426   3.703648   2.499825
    25  H    7.127490   5.419070   4.703540   5.567888   4.800402
    26  H    6.815217   5.383961   4.992697   4.803305   4.284326
    27  H    6.560483   4.664037   5.030098   4.696090   4.982297
    28  H    7.978318   6.005867   5.992629   6.167254   6.072385
    29  H    5.952142   3.631804   3.809678   4.948776   5.014005
    30  H    7.449726   5.217222   4.954298   6.328877   6.040976
    31  H    8.821432   6.534346   6.838997   7.445040   7.635153
    32  H    7.586204   5.344429   6.048647   6.293772   6.829566
    33  H    8.658643   6.278046   6.413816   7.933662   7.973915
    34  H    7.477840   5.113438   5.660314   6.938990   7.291124
    35  H   10.300890   7.934296   8.415289   9.338549   9.677344
    36  H    9.881580   7.545400   8.110962   9.329570   9.728401
    37  H   10.508327   8.293486   9.220461   9.688325  10.426321
    38  H    9.360975   7.167127   8.094829   8.260817   9.008024
    39  H    8.893678   6.798448   7.862470   8.608919   9.419406
    40  H    7.522188   5.399264   6.555099   6.974016   7.848595
    41  H   10.049607   8.136745   9.434091   9.475536  10.555825
    42  H    8.974567   7.117240   8.471630   8.153276   9.303342
                   21         22         23         24         25
    21  H    0.000000
    22  H    1.761421   0.000000
    23  H    2.494172   3.065782   0.000000
    24  H    3.065834   2.536601   1.754633   0.000000
    25  H    3.842589   3.729170   2.460592   2.431499   0.000000
    26  H    3.265018   2.543926   3.057314   2.443439   1.755110
    27  H    2.338435   2.898513   3.312657   3.855933   3.062820
    28  H    3.874497   4.134272   3.851766   4.278861   2.445232
    29  H    2.709388   4.052812   2.311118   3.852267   3.232685
    30  H    4.092057   4.978035   2.960337   4.197932   2.575589
    31  H    4.959919   5.925505   4.988169   6.080584   4.323317
    32  H    3.877874   5.146371   4.615768   5.824357   4.723218
    33  H    5.664933   6.971027   4.981691   6.505057   5.064933
    34  H    4.814901   6.387560   4.700179   6.349900   5.475984
    35  H    6.934877   8.204231   6.922898   8.301240   6.652454
    36  H    7.116556   8.615719   7.026501   8.613742   7.315172
    37  H    7.484046   8.913824   8.133271   9.556238   8.302593
    38  H    5.992124   7.307548   6.865494   8.140372   6.933163
    39  H    6.755175   8.432389   7.360912   8.966835   8.264908
    40  H    5.071695   6.726325   5.985237   7.484144   6.939273
    41  H    7.670975   9.192790   8.844704  10.255558   9.509257
    42  H    6.366988   7.790286   7.829438   9.092370   8.466875
                   26         27         28         29         30
    26  H    0.000000
    27  H    2.471407   0.000000
    28  H    2.427841   1.754163   0.000000
    29  H    3.828775   2.501869   3.064631   0.000000
    30  H    3.754262   3.067703   2.521192   1.766148   0.000000
    31  H    4.790378   3.113928   2.493768   3.060631   2.506273
    32  H    4.821868   2.532575   3.020998   2.493419   3.060826
    33  H    6.108699   4.695805   4.342171   3.020298   2.492625
    34  H    6.190851   4.372341   4.695314   2.530033   3.111533
    35  H    7.317158   5.478800   5.067234   4.722304   4.323380
    36  H    8.093427   6.192191   6.109772   4.819467   4.788880
    37  H    8.618756   6.356149   6.508681   5.824891   6.080411
    38  H    7.037879   4.710746   4.992420   4.623141   4.997973
    39  H    8.668875   6.433291   7.022360   5.206473   5.990973
    40  H    7.129992   4.832798   5.677943   3.876042   4.956860
    41  H    9.548598   7.108358   7.797418   6.673641   7.485901
    42  H    8.284217   5.814896   6.697773   5.775738   6.742269
                   31         32         33         34         35
    31  H    0.000000
    32  H    1.766171   0.000000
    33  H    2.520484   3.064483   0.000000
    34  H    3.067687   2.502448   1.753905   0.000000
    35  H    2.576717   3.232375   2.444536   3.062581   0.000000
    36  H    3.755069   3.828569   2.427174   2.470642   1.755461
    37  H    4.199439   3.855177   4.276801   3.857281   2.427426
    38  H    2.971328   2.319094   3.860256   3.320313   2.466780
    39  H    5.028423   4.095721   4.203673   2.970666   3.768602
    40  H    4.100031   2.724765   3.861482   2.322421   3.837570
    41  H    5.884728   4.839102   5.963528   4.868014   4.702568
    42  H    5.159090   3.834139   5.733936   4.527184   4.731792
                   36         37         38         39         40
    36  H    0.000000
    37  H    2.440437   0.000000
    38  H    3.061767   1.754556   0.000000
    39  H    2.593045   2.529058   3.074665   0.000000
    40  H    3.246056   3.071019   2.510219   1.765648   0.000000
    41  H    4.229214   2.431672   3.021554   2.395160   2.931590
    42  H    4.613119   2.930503   2.470732   2.938565   2.397913
                   41         42
    41  H    0.000000
    42  H    1.626527   0.000000
 Stoichiometry    C12H28N2
 Framework group  C1[X(C12H28N2)]
 Deg. of freedom   120
 Full point group                 C1      NOp   1
 Largest Abelian subgroup         C1      NOp   1
 Largest concise Abelian subgroup C1      NOp   1
                         Standard orientation:                         
 ---------------------------------------------------------------------
 Center     Atomic      Atomic             Coordinates (Angstroms)
 Number     Number       Type             X           Y           Z
 ---------------------------------------------------------------------
      1          7           0        4.603322    2.745176    0.860479
      2          6           0        3.631639    1.683204    0.621686
      3          6           0        4.022386    0.879536   -0.618469
      4          6           0        3.000396   -0.203246   -0.982061
      5          6           0        2.905252   -1.319896    0.060613
      6          6           0        2.038478   -2.499870   -0.392585
      7          6           0        0.582196   -2.165239   -0.730147
      8          6           0       -0.192201   -1.562555    0.443746
      9          6           0       -1.664392   -1.345315    0.083530
     10          6           0       -2.435624   -0.733360    1.254669
     11          6           0       -3.936711   -0.586873    0.987292
     12          6           0       -4.320404    0.290396   -0.209150
     13          6           0       -3.811319    1.727327   -0.094819
     14          7           0       -4.286432    2.539930   -1.210531
     15          1           0        4.300502    3.306599    1.655538
     16          1           0        4.626019    3.375568    0.059713
     17          1           0        2.637314    2.123740    0.490562
     18          1           0        3.599514    1.038463    1.504973
     19          1           0        4.115556    1.558353   -1.476262
     20          1           0        5.007944    0.419478   -0.472819
     21          1           0        2.020203    0.265209   -1.126411
     22          1           0        3.290809   -0.637985   -1.946413
     23          1           0        2.520744   -0.925810    1.007090
     24          1           0        3.912474   -1.700732    0.271345
     25          1           0        2.053375   -3.262940    0.395613
     26          1           0        2.500721   -2.960862   -1.274429
     27          1           0        0.542355   -1.486734   -1.590031
     28          1           0        0.087025   -3.091629   -1.047745
     29          1           0        0.249097   -0.601751    0.731639
     30          1           0       -0.120036   -2.228459    1.312017
     31          1           0       -2.120141   -2.302579   -0.196455
     32          1           0       -1.723856   -0.687252   -0.790624
     33          1           0       -2.310262   -1.372046    2.138240
     34          1           0       -2.004090    0.239324    1.517009
     35          1           0       -4.368664   -1.584282    0.836821
     36          1           0       -4.410108   -0.180353    1.889869
     37          1           0       -5.415919    0.298556   -0.281472
     38          1           0       -3.956461   -0.164801   -1.138064
     39          1           0       -4.151751    2.178067    0.843450
     40          1           0       -2.717352    1.752430   -0.094018
     41          1           0       -5.305908    2.537298   -1.224319
     42          1           0       -3.995507    2.114734   -2.090275
 ---------------------------------------------------------------------
 Rotational constants (GHZ):           0.6956015           0.2183209           0.1823821
 Standard basis: 6-31G(d,p) (6D, 7F)
 There are   350 symmetry adapted cartesian basis functions of A   symmetry.
 There are   350 symmetry adapted basis functions of A   symmetry.
   350 basis functions,   588 primitive gaussians,   350 cartesian basis functions
    57 alpha electrons       57 beta electrons
       nuclear repulsion energy       913.8051711585 Hartrees.
 NAtoms=   42 NActive=   42 NUniq=   42 SFac= 1.00D+00 NAtFMM=   60 NAOKFM=F Big=F
 Integral buffers will be    131072 words long.
 Raffenetti 2 integral format.
 Two-electron integral symmetry is turned on.
 Force inversion solution in PCM.
 ------------------------------------------------------------------------------
 Polarizable Continuum Model (PCM)
 =================================
 Model                : PCM.
 Atomic radii         : UFF (Universal Force Field).
 Polarization charges : Total charges.
 Charge compensation  : None.
 Solution method      : Matrix inversion.
 Cavity type          : Scaled VdW (van der Waals Surface) (Alpha=1.100).
 Cavity algorithm     : GePol (No added spheres)
                        Default sphere list used, NSphG=   42.
                        Lebedev-Laikov grids with approx.  5.0 points / Ang**2.
                        Smoothing algorithm: York/Karplus (Gamma=1.0000).
                        Polarization charges: spherical gaussians, with
                                              point-specific exponents (IZeta= 3).
                        Self-potential: point-specific (ISelfS= 7).
                        Self-field    : sphere-specific E.n sum rule (ISelfD= 2).
 1st derivatives      : Analytical E(r).r(x)/FMM algorithm (CHGder, D1EAlg=3).
                        Cavity 1st derivative terms included.
 2nd derivatives      : Analytical E(r).r(xy)/FMM algorithm (CHGder, D2EAlg=3).
                        Cavity 2nd derivative terms included.
 Solvent              : Water, Eps=  78.355300 Eps(inf)=   1.777849
 ------------------------------------------------------------------------------
 One-electron integrals computed using PRISM.
 NBasis=   350 RedAO= T EigKep=  2.65D-03  NBF=   350
 NBsUse=   350 1.00D-06 EigRej= -1.00D+00 NBFU=   350
 ExpMin= 1.61D-01 ExpMax= 4.17D+03 ExpMxC= 6.27D+02 IAcc=3 IRadAn=         5 AccDes= 0.00D+00
 Harris functional with IExCor=  402 and IRadAn=       5 diagonalized for initial guess.
 HarFok:  IExCor=  402 AccDes= 0.00D+00 IRadAn=         5 IDoV= 1 UseB2=F ITyADJ=14
 ICtDFT=  3500011 ScaDFX=  1.000000  1.000000  1.000000  1.000000
 FoFCou: FMM=F IPFlag=           0 FMFlag=      100000 FMFlg1=           0
         NFxFlg=           0 DoJE=T BraDBF=F KetDBF=T FulRan=T
         wScrn=  0.000000 ICntrl=       500 IOpCl=  0 I1Cent=   200000004 NGrid=           0
         NMat0=    1 NMatS0=      1 NMatT0=    0 NMatD0=    1 NMtDS0=    0 NMtDT0=    0
 Petite list used in FoFCou.
 Requested convergence on RMS density matrix=1.00D-08 within  32 cycles.
 Requested convergence on MAX density matrix=1.00D-06.
 Requested convergence on             energy=1.00D-06.
 No special actions if energy rises.
 Inv3:  Mode=1 IEnd=    21870000.
 Iteration    1 A*A^-1 deviation from unit magnitude is 7.44D-15 for    164.
 Iteration    1 A*A^-1 deviation from orthogonality  is 4.11D-15 for   2268    175.
 Iteration    1 A^-1*A deviation from unit magnitude is 7.22D-15 for    164.
 Iteration    1 A^-1*A deviation from orthogonality  is 5.55D-15 for   2176    585.
 Error on total polarization charges =  0.01200
 SCF Done:  E(RB3LYP) =  -583.691469054     A.U. after   11 cycles
            NFock= 11  Conv=0.20D-08     -V/T= 2.0096
 QCSCF skips out because SCF is already converged.
 DoSCS=F DFT=T ScalE2(SS,OS)=  1.000000  1.000000
 Range of M.O.s used for correlation:     1   350
 NBasis=   350 NAE=    57 NBE=    57 NFC=     0 NFV=     0
 NROrb=    350 NOA=    57 NOB=    57 NVA=   293 NVB=   293
 Symmetrizing basis deriv contribution to polar:
 IMax=3 JMax=2 DiffMx= 0.00D+00
 G2DrvN: will do    43 centers at a time, making    1 passes.
 Calling FoFCou, ICntrl=  3107 FMM=F I1Cent=   0 AccDes= 0.00D+00.
 NEqPCM:  Using equilibrium solvation (IEInf=0, Eps=  78.3553, EpsInf=   1.7778)
 G2PCM: DoFxE=T DoFxN=T DoGrad=T DoDP/DQ/DG/TGxP=FFFF NFrqRd=   0 IEInf=0 SqF1=F DoCFld=F IF1Alg=4.
 End of G2Drv F.D. properties file   721 does not exist.
 End of G2Drv F.D. properties file   722 does not exist.
 End of G2Drv F.D. properties file   788 does not exist.
          IDoAtm=111111111111111111111111111111111111111111
 NEqPCM:  Using equilibrium solvation (IEInf=0, Eps=  78.3553, EpsInf=   1.7778)
          Differentiating once with respect to nuclear coordinates.
 CalDSu exits because no D1Ps are significant.
          There are   129 degrees of freedom in the 1st order CPHF.  IDoFFX=6 NUNeed=     0.
    123 vectors produced by pass  0 Test12= 1.67D-14 1.00D-09 XBig12= 7.30D-02 9.12D-02.
 AX will form   123 AO Fock derivatives at one time.
    123 vectors produced by pass  1 Test12= 1.67D-14 1.00D-09 XBig12= 3.55D-03 1.50D-02.
    123 vectors produced by pass  2 Test12= 1.67D-14 1.00D-09 XBig12= 3.61D-05 1.13D-03.
    123 vectors produced by pass  3 Test12= 1.67D-14 1.00D-09 XBig12= 1.15D-07 3.86D-05.
    123 vectors produced by pass  4 Test12= 1.67D-14 1.00D-09 XBig12= 1.20D-10 1.08D-06.
     44 vectors produced by pass  5 Test12= 1.67D-14 1.00D-09 XBig12= 6.42D-14 2.57D-08.
      1 vectors produced by pass  6 Test12= 1.67D-14 1.00D-09 XBig12= 5.93D-17 1.07D-09.
 InvSVY:  IOpt=1 It=  1 EMax= 9.16D-16
 Solved reduced A of dimension   660 with   129 vectors.
 End of Minotr F.D. properties file   721 does not exist.
 End of Minotr F.D. properties file   722 does not exist.
 End of Minotr F.D. properties file   788 does not exist.

 **********************************************************************

            Population analysis using the SCF density.

 **********************************************************************

 Orbital symmetries:
       Occupied  (A) (A) (A) (A) (A) (A) (A) (A) (A) (A) (A) (A)
                 (A) (A) (A) (A) (A) (A) (A) (A) (A) (A) (A) (A)
                 (A) (A) (A) (A) (A) (A) (A) (A) (A) (A) (A) (A)
                 (A) (A) (A) (A) (A) (A) (A) (A) (A) (A) (A) (A)
                 (A) (A) (A) (A) (A) (A) (A) (A) (A)
       Virtual   (A) (A) (A) (A) (A) (A) (A) (A) (A) (A) (A) (A)
                 (A) (A) (A) (A) (A) (A) (A) (A) (A) (A) (A) (A)
                 (A) (A) (A) (A) (A) (A) (A) (A) (A) (A) (A) (A)
                 (A) (A) (A) (A) (A) (A) (A) (A) (A) (A) (A) (A)
                 (A) (A) (A) (A) (A) (A) (A) (A) (A) (A) (A) (A)
                 (A) (A) (A) (A) (A) (A) (A) (A) (A) (A) (A) (A)
                 (A) (A) (A) (A) (A) (A) (A) (A) (A) (A) (A) (A)
                 (A) (A) (A) (A) (A) (A) (A) (A) (A) (A) (A) (A)
                 (A) (A) (A) (A) (A) (A) (A) (A) (A) (A) (A) (A)
                 (A) (A) (A) (A) (A) (A) (A) (A) (A) (A) (A) (A)
                 (A) (A) (A) (A) (A) (A) (A) (A) (A) (A) (A) (A)
                 (A) (A) (A) (A) (A) (A) (A) (A) (A) (A) (A) (A)
                 (A) (A) (A) (A) (A) (A) (A) (A) (A) (A) (A) (A)
                 (A) (A) (A) (A) (A) (A) (A) (A) (A) (A) (A) (A)
                 (A) (A) (A) (A) (A) (A) (A) (A) (A) (A) (A) (A)
                 (A) (A) (A) (A) (A) (A) (A) (A) (A) (A) (A) (A)
                 (A) (A) (A) (A) (A) (A) (A) (A) (A) (A) (A) (A)
                 (A) (A) (A) (A) (A) (A) (A) (A) (A) (A) (A) (A)
                 (A) (A) (A) (A) (A) (A) (A) (A) (A) (A) (A) (A)
                 (A) (A) (A) (A) (A) (A) (A) (A) (A) (A) (A) (A)
                 (A) (A) (A) (A) (A) (A) (A) (A) (A) (A) (A) (A)
                 (A) (A) (A) (A) (A) (A) (A) (A) (A) (A) (A) (A)
                 (A) (A) (A) (A) (A) (A) (A) (A) (A) (A) (A) (A)
                 (A) (A) (A) (A) (A) (A) (A) (A) (A) (A) (A) (A)
                 (A) (A) (A) (A) (A)
 The electronic state is 1-A.
 Alpha  occ. eigenvalues --  -14.30476 -14.30422 -10.19801 -10.19728 -10.17304
 Alpha  occ. eigenvalues --  -10.17228 -10.17097 -10.17074 -10.17053 -10.17050
 Alpha  occ. eigenvalues --  -10.17019 -10.16996 -10.16976 -10.16943  -0.87521
 Alpha  occ. eigenvalues --   -0.87390  -0.80968  -0.79330  -0.76754  -0.73665
 Alpha  occ. eigenvalues --   -0.69932  -0.66595  -0.63717  -0.61683  -0.59409
 Alpha  occ. eigenvalues --   -0.57500  -0.55144  -0.54144  -0.49294  -0.48264
 Alpha  occ. eigenvalues --   -0.47220  -0.46259  -0.45082  -0.44086  -0.43284
 Alpha  occ. eigenvalues --   -0.43075  -0.41763  -0.40634  -0.39688  -0.39051
 Alpha  occ. eigenvalues --   -0.38315  -0.37281  -0.36998  -0.35362  -0.35315
 Alpha  occ. eigenvalues --   -0.34814  -0.33432  -0.33027  -0.32846  -0.31799
 Alpha  occ. eigenvalues --   -0.31439  -0.31136  -0.30383  -0.30128  -0.28869
 Alpha  occ. eigenvalues --   -0.22954  -0.22671
 Alpha virt. eigenvalues --    0.07775   0.08785   0.09166   0.09977   0.10932
 Alpha virt. eigenvalues --    0.11305   0.11792   0.12798   0.12978   0.13563
 Alpha virt. eigenvalues --    0.15067   0.15837   0.16502   0.17172   0.17334
 Alpha virt. eigenvalues --    0.17953   0.18248   0.18471   0.18633   0.19048
 Alpha virt. eigenvalues --    0.19601   0.20080   0.20389   0.20698   0.21291
 Alpha virt. eigenvalues --    0.22206   0.22580   0.22985   0.23672   0.24604
 Alpha virt. eigenvalues --    0.25459   0.25749   0.26389   0.26548   0.27556
 Alpha virt. eigenvalues --    0.27800   0.28601   0.29102   0.30079   0.30228
 Alpha virt. eigenvalues --    0.32791   0.49845   0.50511   0.51054   0.51785
 Alpha virt. eigenvalues --    0.52796   0.54041   0.54322   0.55284   0.56087
 Alpha virt. eigenvalues --    0.56409   0.56971   0.58557   0.58821   0.61840
 Alpha virt. eigenvalues --    0.62620   0.63804   0.64675   0.65081   0.67143
 Alpha virt. eigenvalues --    0.67939   0.68116   0.68169   0.70014   0.70407
 Alpha virt. eigenvalues --    0.71386   0.71713   0.72882   0.73465   0.74213
 Alpha virt. eigenvalues --    0.75655   0.77790   0.78853   0.79457   0.81159
 Alpha virt. eigenvalues --    0.81344   0.82937   0.83208   0.83752   0.84421
 Alpha virt. eigenvalues --    0.85516   0.86898   0.87265   0.87841   0.88286
 Alpha virt. eigenvalues --    0.89132   0.89403   0.89893   0.90081   0.91154
 Alpha virt. eigenvalues --    0.91695   0.92417   0.93239   0.93835   0.93961
 Alpha virt. eigenvalues --    0.94397   0.95204   0.95880   0.95928   0.97071
 Alpha virt. eigenvalues --    0.97533   0.97886   0.99787   1.00053   1.00988
 Alpha virt. eigenvalues --    1.01721   1.04931   1.06081   1.06233   1.08759
 Alpha virt. eigenvalues --    1.12139   1.13015   1.18857   1.22241   1.27424
 Alpha virt. eigenvalues --    1.28336   1.29083   1.31287   1.36701   1.36860
 Alpha virt. eigenvalues --    1.38514   1.40506   1.41432   1.42114   1.43394
 Alpha virt. eigenvalues --    1.47093   1.50147   1.50448   1.55054   1.58557
 Alpha virt. eigenvalues --    1.60388   1.62672   1.63737   1.64464   1.66851
 Alpha virt. eigenvalues --    1.67186   1.69469   1.70015   1.71349   1.71824
 Alpha virt. eigenvalues --    1.73962   1.74513   1.77513   1.78870   1.79568
 Alpha virt. eigenvalues --    1.80894   1.81941   1.83377   1.84580   1.85723
 Alpha virt. eigenvalues --    1.86081   1.88624   1.89231   1.89883   1.91058
 Alpha virt. eigenvalues --    1.91880   1.94097   1.95795   1.96737   1.97699
 Alpha virt. eigenvalues --    1.98825   1.99786   2.00752   2.03183   2.06811
 Alpha virt. eigenvalues --    2.08859   2.09953   2.10102   2.10378   2.12464
 Alpha virt. eigenvalues --    2.12910   2.14096   2.14559   2.15547   2.16448
 Alpha virt. eigenvalues --    2.17350   2.19068   2.20427   2.21300   2.22724
 Alpha virt. eigenvalues --    2.23550   2.23967   2.24524   2.25249   2.26026
 Alpha virt. eigenvalues --    2.26509   2.26593   2.27669   2.28785   2.29404
 Alpha virt. eigenvalues --    2.30435   2.31397   2.31909   2.31974   2.32692
 Alpha virt. eigenvalues --    2.34373   2.35142   2.37265   2.38234   2.39951
 Alpha virt. eigenvalues --    2.40737   2.41239   2.43364   2.45909   2.47321
 Alpha virt. eigenvalues --    2.50360   2.52771   2.54194   2.55156   2.55898
 Alpha virt. eigenvalues --    2.57509   2.58205   2.58994   2.60799   2.62235
 Alpha virt. eigenvalues --    2.63459   2.64493   2.64956   2.67099   2.69503
 Alpha virt. eigenvalues --    2.71415   2.71965   2.72586   2.73934   2.74469
 Alpha virt. eigenvalues --    2.74888   2.76832   2.78765   2.80053   2.81753
 Alpha virt. eigenvalues --    2.83121   2.85210   2.85669   2.86049   2.87305
 Alpha virt. eigenvalues --    2.87997   2.89195   2.90308   2.90951   2.91888
 Alpha virt. eigenvalues --    2.92037   2.92441   2.92622   2.93034   2.93815
 Alpha virt. eigenvalues --    2.94297   2.95658   2.95964   2.97736   2.99155
 Alpha virt. eigenvalues --    3.00075   3.23056   3.24538   3.26252   3.28589
 Alpha virt. eigenvalues --    3.29457   3.30263   3.30606   3.31523   3.32162
 Alpha virt. eigenvalues --    3.32597   3.33317   3.35423   3.35631   3.37126
 Alpha virt. eigenvalues --    3.38523   3.41410   3.43288   3.43807   3.47463
 Alpha virt. eigenvalues --    3.50162   3.53124   3.55630   3.56263   3.57367
 Alpha virt. eigenvalues --    3.58655   3.59066   3.59689   3.60281   4.00184
 Alpha virt. eigenvalues --    4.00337   4.25617   4.31206   4.36733   4.42428
 Alpha virt. eigenvalues --    4.48301   4.55933   4.60802   4.63295   4.65714
 Alpha virt. eigenvalues --    4.70106   4.74755   4.79347
          Condensed to atoms (all electrons):
               1          2          3          4          5          6
     1  N    6.825780   0.290568  -0.051563   0.003472   0.000051  -0.000001
     2  C    0.290568   4.791648   0.380120  -0.038572  -0.005680   0.000204
     3  C   -0.051563   0.380120   4.947750   0.350117  -0.039373   0.004208
     4  C    0.003472  -0.038572   0.350117   4.918056   0.381052  -0.041978
     5  C    0.000051  -0.005680  -0.039373   0.381052   4.911013   0.371212
     6  C   -0.000001   0.000204   0.004208  -0.041978   0.371212   4.932625
     7  C    0.000000  -0.000029   0.000188  -0.004351  -0.044150   0.364925
     8  C    0.000000  -0.000012   0.000028  -0.002298  -0.004447  -0.041786
     9  C   -0.000000  -0.000000   0.000000   0.000006   0.000181   0.004047
    10  C    0.000000   0.000000   0.000000  -0.000000   0.000003  -0.000151
    11  C   -0.000000  -0.000000   0.000000   0.000000   0.000000   0.000001
    12  C   -0.000000   0.000000  -0.000000   0.000000   0.000000   0.000000
    13  C    0.000000  -0.000000   0.000000  -0.000000   0.000000  -0.000000
    14  N   -0.000000   0.000000  -0.000000   0.000000  -0.000000   0.000000
    15  H    0.336921  -0.032679   0.005793  -0.000255   0.000006  -0.000000
    16  H    0.340223  -0.038627  -0.006076  -0.000188   0.000013   0.000000
    17  H   -0.053163   0.387401  -0.051426   0.001645  -0.001158  -0.000031
    18  H   -0.041760   0.387030  -0.031557  -0.005485   0.003790  -0.000098
    19  H   -0.004228  -0.040446   0.378166  -0.032257   0.004948  -0.000172
    20  H    0.004858  -0.038584   0.372299  -0.033420  -0.008197   0.000002
    21  H    0.000018  -0.008050  -0.037956   0.383097  -0.038754  -0.005084
    22  H   -0.000105   0.004884  -0.032857   0.379393  -0.042875  -0.003401
    23  H   -0.000040   0.002050  -0.003931  -0.040278   0.384223  -0.036838
    24  H   -0.000023  -0.001050  -0.004041  -0.043004   0.379472  -0.033033
    25  H   -0.000000   0.000001  -0.000162   0.005112  -0.035436   0.375488
    26  H    0.000000   0.000004  -0.000022  -0.007398  -0.038855   0.373634
    27  H   -0.000000   0.000002  -0.000087   0.004545  -0.008197  -0.037395
    28  H    0.000000   0.000000  -0.000003   0.000032   0.005273  -0.033461
    29  H   -0.000001   0.000117  -0.000164   0.000210   0.003036  -0.005385
    30  H   -0.000000  -0.000001   0.000001   0.000143  -0.001387  -0.002352
    31  H    0.000000   0.000000  -0.000000  -0.000001   0.000003   0.000003
    32  H   -0.000000  -0.000000   0.000000   0.000005  -0.000023   0.000121
    33  H    0.000000  -0.000000   0.000000  -0.000000   0.000000   0.000002
    34  H    0.000000  -0.000000  -0.000000  -0.000000  -0.000003   0.000003
    35  H    0.000000  -0.000000   0.000000   0.000000  -0.000000   0.000000
    36  H    0.000000   0.000000  -0.000000  -0.000000   0.000000  -0.000000
    37  H   -0.000000  -0.000000   0.000000   0.000000  -0.000000   0.000000
    38  H    0.000000  -0.000000   0.000000  -0.000000   0.000000  -0.000000
    39  H   -0.000000   0.000000  -0.000000   0.000000   0.000000  -0.000000
    40  H   -0.000000  -0.000000  -0.000000  -0.000000   0.000000  -0.000000
    41  H    0.000000  -0.000000   0.000000  -0.000000   0.000000  -0.000000
    42  H   -0.000000   0.000000  -0.000000   0.000000  -0.000000   0.000000
               7          8          9         10         11         12
     1  N    0.000000   0.000000  -0.000000   0.000000  -0.000000  -0.000000
     2  C   -0.000029  -0.000012  -0.000000   0.000000  -0.000000   0.000000
     3  C    0.000188   0.000028   0.000000   0.000000   0.000000  -0.000000
     4  C   -0.004351  -0.002298   0.000006  -0.000000   0.000000   0.000000
     5  C   -0.044150  -0.004447   0.000181   0.000003   0.000000   0.000000
     6  C    0.364925  -0.041786   0.004047  -0.000151   0.000001   0.000000
     7  C    4.921432   0.374385  -0.037858   0.003797  -0.000151   0.000002
     8  C    0.374385   4.904291   0.375399  -0.037764   0.004030   0.000186
     9  C   -0.037858   0.375399   4.904632   0.373976  -0.041972  -0.004735
    10  C    0.003797  -0.037764   0.373976   4.922023   0.364826  -0.043955
    11  C   -0.000151   0.004030  -0.041972   0.364826   4.963655   0.327111
    12  C    0.000002   0.000186  -0.004735  -0.043955   0.327111   5.002751
    13  C    0.000000   0.000005  -0.002097  -0.004115  -0.040453   0.387297
    14  N    0.000000  -0.000000   0.000010   0.000038   0.006282  -0.070433
    15  H   -0.000000   0.000000  -0.000000   0.000000  -0.000000   0.000000
    16  H    0.000000  -0.000000  -0.000000  -0.000000  -0.000000  -0.000000
    17  H   -0.000001  -0.000042   0.000000  -0.000000   0.000000  -0.000000
    18  H    0.000016  -0.000014  -0.000000  -0.000000  -0.000000  -0.000000
    19  H    0.000007  -0.000001  -0.000000  -0.000000  -0.000000  -0.000000
    20  H    0.000006  -0.000002   0.000000  -0.000000  -0.000000   0.000000
    21  H    0.002866   0.000095  -0.000063  -0.000003  -0.000000  -0.000000
    22  H   -0.001490   0.000165   0.000000   0.000000  -0.000000   0.000000
    23  H   -0.007868   0.004344  -0.000111   0.000009  -0.000000   0.000000
    24  H    0.005178   0.000059  -0.000003  -0.000000   0.000000  -0.000000
    25  H   -0.038461  -0.007446   0.000037  -0.000001   0.000000  -0.000000
    26  H   -0.034194   0.004996  -0.000150   0.000002  -0.000000   0.000000
    27  H    0.382144  -0.039690  -0.004145   0.000046   0.000003  -0.000003
    28  H    0.379194  -0.041084  -0.004990   0.000106   0.000002   0.000000
    29  H   -0.037666   0.383038  -0.038328  -0.003776   0.000120  -0.000022
    30  H   -0.041353   0.383445  -0.039483  -0.004189   0.000007   0.000003
    31  H   -0.004159  -0.039285   0.383457  -0.041213  -0.002497  -0.001233
    32  H   -0.003713  -0.038383   0.383642  -0.037943  -0.005157   0.002708
    33  H    0.000104  -0.004945  -0.040938   0.379406  -0.033311   0.005176
    34  H    0.000047  -0.004068  -0.040197   0.383105  -0.037937  -0.007444
    35  H   -0.000001   0.000045  -0.007396  -0.038571   0.370220  -0.029284
    36  H    0.000002  -0.000153   0.004998  -0.034282   0.376039  -0.040569
    37  H   -0.000000  -0.000003   0.000070   0.005137  -0.028598   0.375277
    38  H    0.000009  -0.000111   0.004185  -0.007721  -0.033108   0.378144
    39  H    0.000000   0.000000   0.000139  -0.001123  -0.000112  -0.047428
    40  H   -0.000002  -0.000067   0.000341   0.003078  -0.002908  -0.044463
    41  H   -0.000000  -0.000000  -0.000002   0.000013   0.000036  -0.002689
    42  H    0.000000  -0.000000   0.000012  -0.000026   0.000136  -0.002694
              13         14         15         16         17         18
     1  N    0.000000  -0.000000   0.336921   0.340223  -0.053163  -0.041760
     2  C   -0.000000   0.000000  -0.032679  -0.038627   0.387401   0.387030
     3  C    0.000000  -0.000000   0.005793  -0.006076  -0.051426  -0.031557
     4  C   -0.000000   0.000000  -0.000255  -0.000188   0.001645  -0.005485
     5  C    0.000000  -0.000000   0.000006   0.000013  -0.001158   0.003790
     6  C   -0.000000   0.000000  -0.000000   0.000000  -0.000031  -0.000098
     7  C    0.000000   0.000000  -0.000000   0.000000  -0.000001   0.000016
     8  C    0.000005  -0.000000   0.000000  -0.000000  -0.000042  -0.000014
     9  C   -0.002097   0.000010  -0.000000  -0.000000   0.000000  -0.000000
    10  C   -0.004115   0.000038   0.000000  -0.000000  -0.000000  -0.000000
    11  C   -0.040453   0.006282  -0.000000  -0.000000   0.000000  -0.000000
    12  C    0.387297  -0.070433   0.000000  -0.000000  -0.000000  -0.000000
    13  C    4.792527   0.316646   0.000000   0.000000  -0.000000   0.000000
    14  N    0.316646   6.770462  -0.000000   0.000000  -0.000000  -0.000000
    15  H    0.000000  -0.000000   0.482198  -0.032313  -0.004110  -0.003211
    16  H    0.000000   0.000000  -0.032313   0.483036  -0.005180   0.006660
    17  H   -0.000000  -0.000000  -0.004110  -0.005180   0.686612  -0.049279
    18  H    0.000000  -0.000000  -0.003211   0.006660  -0.049279   0.629944
    19  H    0.000000   0.000000   0.000044   0.006318  -0.006910   0.005927
    20  H   -0.000000   0.000000  -0.000110  -0.000694   0.006899  -0.007469
    21  H   -0.000000  -0.000000  -0.000004  -0.000002   0.006091  -0.000207
    22  H    0.000000  -0.000000   0.000004  -0.000011   0.000043  -0.000095
    23  H   -0.000000   0.000000   0.000009  -0.000003   0.000379   0.001370
    24  H   -0.000000   0.000000   0.000000   0.000001   0.000079   0.000656
    25  H    0.000000  -0.000000   0.000000   0.000000  -0.000000   0.000007
    26  H   -0.000000  -0.000000   0.000000  -0.000000   0.000001  -0.000001
    27  H    0.000000  -0.000000   0.000000   0.000000  -0.000006   0.000000
    28  H   -0.000000   0.000000  -0.000000   0.000000   0.000000  -0.000000
    29  H    0.000005   0.000000  -0.000000   0.000000   0.000318  -0.000015
    30  H   -0.000001  -0.000000  -0.000000   0.000000  -0.000000  -0.000001
    31  H    0.000126   0.000000  -0.000000   0.000000   0.000000  -0.000000
    32  H    0.000333  -0.000049  -0.000000  -0.000000  -0.000000  -0.000000
    33  H    0.000067  -0.000001  -0.000000  -0.000000  -0.000000  -0.000000
    34  H    0.003512  -0.000058  -0.000000  -0.000000   0.000001   0.000000
    35  H    0.004700  -0.000184  -0.000000   0.000000   0.000000   0.000000
    36  H   -0.007314   0.000057  -0.000000  -0.000000  -0.000000  -0.000000
    37  H   -0.040861  -0.001433  -0.000000  -0.000000   0.000000  -0.000000
    38  H   -0.040190  -0.000554  -0.000000  -0.000000  -0.000000  -0.000000
    39  H    0.387046  -0.036501   0.000000   0.000000  -0.000000  -0.000000
    40  H    0.387713  -0.036995  -0.000000  -0.000000   0.000000  -0.000000
    41  H   -0.046342   0.347240   0.000000   0.000000   0.000000   0.000000
    42  H   -0.045910   0.347656  -0.000000   0.000000  -0.000000   0.000000
              19         20         21         22         23         24
     1  N   -0.004228   0.004858   0.000018  -0.000105  -0.000040  -0.000023
     2  C   -0.040446  -0.038584  -0.008050   0.004884   0.002050  -0.001050
     3  C    0.378166   0.372299  -0.037956  -0.032857  -0.003931  -0.004041
     4  C   -0.032257  -0.033420   0.383097   0.379393  -0.040278  -0.043004
     5  C    0.004948  -0.008197  -0.038754  -0.042875   0.384223   0.379472
     6  C   -0.000172   0.000002  -0.005084  -0.003401  -0.036838  -0.033033
     7  C    0.000007   0.000006   0.002866  -0.001490  -0.007868   0.005178
     8  C   -0.000001  -0.000002   0.000095   0.000165   0.004344   0.000059
     9  C   -0.000000   0.000000  -0.000063   0.000000  -0.000111  -0.000003
    10  C   -0.000000  -0.000000  -0.000003   0.000000   0.000009  -0.000000
    11  C   -0.000000  -0.000000  -0.000000  -0.000000  -0.000000   0.000000
    12  C   -0.000000   0.000000  -0.000000   0.000000   0.000000  -0.000000
    13  C    0.000000  -0.000000  -0.000000   0.000000  -0.000000  -0.000000
    14  N    0.000000   0.000000  -0.000000  -0.000000   0.000000   0.000000
    15  H    0.000044  -0.000110  -0.000004   0.000004   0.000009   0.000000
    16  H    0.006318  -0.000694  -0.000002  -0.000011  -0.000003   0.000001
    17  H   -0.006910   0.006899   0.006091   0.000043   0.000379   0.000079
    18  H    0.005927  -0.007469  -0.000207  -0.000095   0.001370   0.000656
    19  H    0.648742  -0.039749  -0.003071  -0.005334  -0.000084   0.000096
    20  H   -0.039749   0.642556   0.006030  -0.003108  -0.000227   0.006101
    21  H   -0.003071   0.006030   0.635705  -0.038672  -0.006927   0.006126
    22  H   -0.005334  -0.003108  -0.038672   0.647307   0.006154  -0.004748
    23  H   -0.000084  -0.000227  -0.006927   0.006154   0.634645  -0.039130
    24  H    0.000096   0.006101   0.006126  -0.004748  -0.039130   0.649105
    25  H    0.000003  -0.000010  -0.000070   0.000058  -0.004025  -0.003687
    26  H   -0.000008   0.000003  -0.000250   0.005842   0.006146  -0.004918
    27  H    0.000010  -0.000001   0.000869   0.000768   0.000116  -0.000018
    28  H   -0.000000   0.000000  -0.000024  -0.000051  -0.000015  -0.000158
    29  H   -0.000000   0.000005   0.001588  -0.000051   0.000976  -0.000022
    30  H    0.000000  -0.000000  -0.000029  -0.000002   0.000692  -0.000040
    31  H   -0.000000  -0.000000   0.000002  -0.000000  -0.000001   0.000000
    32  H   -0.000000   0.000000   0.000035  -0.000001   0.000009  -0.000000
    33  H   -0.000000  -0.000000   0.000000   0.000000   0.000002  -0.000000
    34  H    0.000000  -0.000000  -0.000001  -0.000000  -0.000004   0.000000
    35  H    0.000000   0.000000  -0.000000  -0.000000  -0.000000   0.000000
    36  H   -0.000000  -0.000000   0.000000   0.000000   0.000000  -0.000000
    37  H   -0.000000   0.000000  -0.000000  -0.000000  -0.000000  -0.000000
    38  H   -0.000000  -0.000000  -0.000000   0.000000   0.000000  -0.000000
    39  H    0.000000  -0.000000  -0.000000   0.000000   0.000000  -0.000000
    40  H   -0.000000   0.000000   0.000001  -0.000000  -0.000000  -0.000000
    41  H   -0.000000  -0.000000   0.000000  -0.000000  -0.000000  -0.000000
    42  H    0.000000   0.000000  -0.000000  -0.000000  -0.000000  -0.000000
              25         26         27         28         29         30
     1  N   -0.000000   0.000000  -0.000000   0.000000  -0.000001  -0.000000
     2  C    0.000001   0.000004   0.000002   0.000000   0.000117  -0.000001
     3  C   -0.000162  -0.000022  -0.000087  -0.000003  -0.000164   0.000001
     4  C    0.005112  -0.007398   0.004545   0.000032   0.000210   0.000143
     5  C   -0.035436  -0.038855  -0.008197   0.005273   0.003036  -0.001387
     6  C    0.375488   0.373634  -0.037395  -0.033461  -0.005385  -0.002352
     7  C   -0.038461  -0.034194   0.382144   0.379194  -0.037666  -0.041353
     8  C   -0.007446   0.004996  -0.039690  -0.041084   0.383038   0.383445
     9  C    0.000037  -0.000150  -0.004145  -0.004990  -0.038328  -0.039483
    10  C   -0.000001   0.000002   0.000046   0.000106  -0.003776  -0.004189
    11  C    0.000000  -0.000000   0.000003   0.000002   0.000120   0.000007
    12  C   -0.000000   0.000000  -0.000003   0.000000  -0.000022   0.000003
    13  C    0.000000  -0.000000   0.000000  -0.000000   0.000005  -0.000001
    14  N   -0.000000  -0.000000  -0.000000   0.000000   0.000000  -0.000000
    15  H    0.000000   0.000000   0.000000  -0.000000  -0.000000  -0.000000
    16  H    0.000000  -0.000000   0.000000   0.000000   0.000000   0.000000
    17  H   -0.000000   0.000001  -0.000006   0.000000   0.000318  -0.000000
    18  H    0.000007  -0.000001   0.000000  -0.000000  -0.000015  -0.000001
    19  H    0.000003  -0.000008   0.000010  -0.000000  -0.000000   0.000000
    20  H   -0.000010   0.000003  -0.000001   0.000000   0.000005  -0.000000
    21  H   -0.000070  -0.000250   0.000869  -0.000024   0.001588  -0.000029
    22  H    0.000058   0.005842   0.000768  -0.000051  -0.000051  -0.000002
    23  H   -0.004025   0.006146   0.000116  -0.000015   0.000976   0.000692
    24  H   -0.003687  -0.004918  -0.000018  -0.000158  -0.000022  -0.000040
    25  H    0.655528  -0.037634   0.006179  -0.004934  -0.000260   0.005363
    26  H   -0.037634   0.656489  -0.003926  -0.003751  -0.000047   0.000025
    27  H    0.006179  -0.003926   0.641551  -0.039162  -0.006611   0.006145
    28  H   -0.004934  -0.003751  -0.039162   0.651546   0.006119  -0.005409
    29  H   -0.000260  -0.000047  -0.006611   0.006119   0.637656  -0.040553
    30  H    0.005363   0.000025   0.006145  -0.005409  -0.040553   0.645217
    31  H    0.000004  -0.000006  -0.000517   0.005498   0.005996  -0.006017
    32  H    0.000007   0.000003   0.005095  -0.000600  -0.006192   0.006015
    33  H   -0.000002   0.000000   0.000005   0.000006  -0.000604   0.005507
    34  H    0.000001  -0.000000   0.000008   0.000005   0.005106  -0.000517
    35  H    0.000000   0.000000   0.000001  -0.000002   0.000007   0.000004
    36  H    0.000000   0.000000  -0.000000   0.000000   0.000004  -0.000006
    37  H    0.000000  -0.000000   0.000000  -0.000000  -0.000000   0.000000
    38  H   -0.000000   0.000000  -0.000004   0.000002   0.000008  -0.000001
    39  H   -0.000000   0.000000  -0.000000   0.000000  -0.000001  -0.000000
    40  H   -0.000000   0.000000  -0.000001   0.000000   0.000034   0.000002
    41  H    0.000000  -0.000000  -0.000000  -0.000000   0.000000  -0.000000
    42  H    0.000000  -0.000000   0.000000  -0.000000  -0.000000   0.000000
              31         32         33         34         35         36
     1  N    0.000000  -0.000000   0.000000   0.000000   0.000000   0.000000
     2  C    0.000000  -0.000000  -0.000000  -0.000000  -0.000000   0.000000
     3  C   -0.000000   0.000000   0.000000  -0.000000   0.000000  -0.000000
     4  C   -0.000001   0.000005  -0.000000  -0.000000   0.000000  -0.000000
     5  C    0.000003  -0.000023   0.000000  -0.000003  -0.000000   0.000000
     6  C    0.000003   0.000121   0.000002   0.000003   0.000000  -0.000000
     7  C   -0.004159  -0.003713   0.000104   0.000047  -0.000001   0.000002
     8  C   -0.039285  -0.038383  -0.004945  -0.004068   0.000045  -0.000153
     9  C    0.383457   0.383642  -0.040938  -0.040197  -0.007396   0.004998
    10  C   -0.041213  -0.037943   0.379406   0.383105  -0.038571  -0.034282
    11  C   -0.002497  -0.005157  -0.033311  -0.037937   0.370220   0.376039
    12  C   -0.001233   0.002708   0.005176  -0.007444  -0.029284  -0.040569
    13  C    0.000126   0.000333   0.000067   0.003512   0.004700  -0.007314
    14  N    0.000000  -0.000049  -0.000001  -0.000058  -0.000184   0.000057
    15  H   -0.000000  -0.000000  -0.000000  -0.000000  -0.000000  -0.000000
    16  H    0.000000  -0.000000  -0.000000  -0.000000   0.000000  -0.000000
    17  H    0.000000  -0.000000  -0.000000   0.000001   0.000000  -0.000000
    18  H   -0.000000  -0.000000  -0.000000   0.000000   0.000000  -0.000000
    19  H   -0.000000  -0.000000  -0.000000   0.000000   0.000000  -0.000000
    20  H   -0.000000   0.000000  -0.000000  -0.000000   0.000000  -0.000000
    21  H    0.000002   0.000035   0.000000  -0.000001  -0.000000   0.000000
    22  H   -0.000000  -0.000001   0.000000  -0.000000  -0.000000   0.000000
    23  H   -0.000001   0.000009   0.000002  -0.000004  -0.000000   0.000000
    24  H    0.000000  -0.000000  -0.000000   0.000000   0.000000  -0.000000
    25  H    0.000004   0.000007  -0.000002   0.000001   0.000000   0.000000
    26  H   -0.000006   0.000003   0.000000  -0.000000   0.000000   0.000000
    27  H   -0.000517   0.005095   0.000005   0.000008   0.000001  -0.000000
    28  H    0.005498  -0.000600   0.000006   0.000005  -0.000002   0.000000
    29  H    0.005996  -0.006192  -0.000604   0.005106   0.000007   0.000004
    30  H   -0.006017   0.006015   0.005507  -0.000517   0.000004  -0.000006
    31  H    0.644578  -0.040537  -0.005435   0.006152   0.005365   0.000027
    32  H   -0.040537   0.637984   0.006111  -0.006569  -0.000283  -0.000045
    33  H   -0.005435   0.006111   0.649979  -0.038844  -0.005066  -0.003721
    34  H    0.006152  -0.006569  -0.038844   0.641695   0.006136  -0.003970
    35  H    0.005365  -0.000283  -0.005066   0.006136   0.655989  -0.037712
    36  H    0.000027  -0.000045  -0.003721  -0.003970  -0.037712   0.655169
    37  H   -0.000040  -0.000030  -0.000158  -0.000036  -0.004340  -0.004927
    38  H    0.000596   0.001185  -0.000013   0.000047  -0.004651   0.006176
    39  H   -0.000002  -0.000026  -0.000036   0.000360  -0.000097   0.005348
    40  H   -0.000030   0.001271  -0.000038   0.000646  -0.000140  -0.000225
    41  H   -0.000000   0.000001   0.000000  -0.000002  -0.000010   0.000005
    42  H   -0.000001   0.000013  -0.000000   0.000006  -0.000000   0.000017
[...]
   105    C    7  dz2    Ryd( 3d)     0.00048

   106    C    8  S      Cor( 1S)     1.99934
   107    C    8  S      Val( 2S)     1.02948
   108    C    8  S      Ryd( 3S)     0.00092
   109    C    8  S      Ryd( 4S)     0.00002
   110    C    8  px     Val( 2p)     1.05831
   111    C    8  px     Ryd( 3p)     0.00257
   112    C    8  py     Val( 2p)     1.21720
   113    C    8  py     Ryd( 3p)     0.00271
   114    C    8  pz     Val( 2p)     1.14595
   115    C    8  pz     Ryd( 3p)     0.00178
   116    C    8  dxy    Ryd( 3d)     0.00055
   117    C    8  dxz    Ryd( 3d)     0.00054
   118    C    8  dyz    Ryd( 3d)     0.00091
   119    C    8  dx2y2  Ryd( 3d)     0.00066
   120    C    8  dz2    Ryd( 3d)     0.00051

   121    C    9  S      Cor( 1S)     1.99933
   122    C    9  S      Val( 2S)     1.03678
   123    C    9  S      Ryd( 3S)     0.00112
   124    C    9  S      Ryd( 4S)     0.00003
   125    C    9  px     Val( 2p)     1.05491
   126    C    9  px     Ryd( 3p)     0.00248
   127    C    9  py     Val( 2p)     1.21232
   128    C    9  py     Ryd( 3p)     0.00280
   129    C    9  pz     Val( 2p)     1.14840
   130    C    9  pz     Ryd( 3p)     0.00192
   131    C    9  dxy    Ryd( 3d)     0.00056
   132    C    9  dxz    Ryd( 3d)     0.00053
   133    C    9  dyz    Ryd( 3d)     0.00087
   134    C    9  dx2y2  Ryd( 3d)     0.00065
   135    C    9  dz2    Ryd( 3d)     0.00053

   136    C   10  S      Cor( 1S)     1.99933
   137    C   10  S      Val( 2S)     1.03211
   138    C   10  S      Ryd( 3S)     0.00082
   139    C   10  S      Ryd( 4S)     0.00002
   140    C   10  px     Val( 2p)     1.04980
   141    C   10  px     Ryd( 3p)     0.00183
   142    C   10  py     Val( 2p)     1.21874
   143    C   10  py     Ryd( 3p)     0.00304
   144    C   10  pz     Val( 2p)     1.15264
   145    C   10  pz     Ryd( 3p)     0.00284
   146    C   10  dxy    Ryd( 3d)     0.00052
   147    C   10  dxz    Ryd( 3d)     0.00055
   148    C   10  dyz    Ryd( 3d)     0.00085
   149    C   10  dx2y2  Ryd( 3d)     0.00071
   150    C   10  dz2    Ryd( 3d)     0.00056

   151    C   11  S      Cor( 1S)     1.99931
   152    C   11  S      Val( 2S)     1.03495
   153    C   11  S      Ryd( 3S)     0.00066
   154    C   11  S      Ryd( 4S)     0.00002
   155    C   11  px     Val( 2p)     1.09594
   156    C   11  px     Ryd( 3p)     0.00179
   157    C   11  py     Val( 2p)     1.16657
   158    C   11  py     Ryd( 3p)     0.00287
   159    C   11  pz     Val( 2p)     1.14880
   160    C   11  pz     Ryd( 3p)     0.00327
   161    C   11  dxy    Ryd( 3d)     0.00057
   162    C   11  dxz    Ryd( 3d)     0.00075
   163    C   11  dyz    Ryd( 3d)     0.00056
   164    C   11  dx2y2  Ryd( 3d)     0.00068
   165    C   11  dz2    Ryd( 3d)     0.00059

   166    C   12  S      Cor( 1S)     1.99926
   167    C   12  S      Val( 2S)     1.05713
   168    C   12  S      Ryd( 3S)     0.00101
   169    C   12  S      Ryd( 4S)     0.00004
   170    C   12  px     Val( 2p)     1.24242
   171    C   12  px     Ryd( 3p)     0.00398
   172    C   12  py     Val( 2p)     0.97981
   173    C   12  py     Ryd( 3p)     0.00738
   174    C   12  pz     Val( 2p)     1.18205
   175    C   12  pz     Ryd( 3p)     0.00145
   176    C   12  dxy    Ryd( 3d)     0.00033
   177    C   12  dxz    Ryd( 3d)     0.00054
   178    C   12  dyz    Ryd( 3d)     0.00049
   179    C   12  dx2y2  Ryd( 3d)     0.00097
   180    C   12  dz2    Ryd( 3d)     0.00078

   181    C   13  S      Cor( 1S)     1.99935
   182    C   13  S      Val( 2S)     1.06016
   183    C   13  S      Ryd( 3S)     0.00215
   184    C   13  S      Ryd( 4S)     0.00004
   185    C   13  px     Val( 2p)     1.24071
   186    C   13  px     Ryd( 3p)     0.00363
   187    C   13  py     Val( 2p)     0.95503
   188    C   13  py     Ryd( 3p)     0.00298
   189    C   13  pz     Val( 2p)     1.08549
   190    C   13  pz     Ryd( 3p)     0.00880
   191    C   13  dxy    Ryd( 3d)     0.00064
   192    C   13  dxz    Ryd( 3d)     0.00074
   193    C   13  dyz    Ryd( 3d)     0.00132
   194    C   13  dx2y2  Ryd( 3d)     0.00097
   195    C   13  dz2    Ryd( 3d)     0.00080

   196    N   14  S      Cor( 1S)     1.99937
   197    N   14  S      Val( 2S)     1.48741
   198    N   14  S      Ryd( 3S)     0.01577
   199    N   14  S      Ryd( 4S)     0.00000
   200    N   14  px     Val( 2p)     1.40649
   201    N   14  px     Ryd( 3p)     0.00179
   202    N   14  py     Val( 2p)     1.09463
   203    N   14  py     Ryd( 3p)     0.00000
   204    N   14  pz     Val( 2p)     1.36460
   205    N   14  pz     Ryd( 3p)     0.00622
   206    N   14  dxy    Ryd( 3d)     0.00029
   207    N   14  dxz    Ryd( 3d)     0.00035
   208    N   14  dyz    Ryd( 3d)     0.00056
   209    N   14  dx2y2  Ryd( 3d)     0.00035
   210    N   14  dz2    Ryd( 3d)     0.00052

   211    H   15  S      Val( 1S)     0.60807
   212    H   15  S      Ryd( 2S)     0.00125
   213    H   15  px     Ryd( 2p)     0.00051
   214    H   15  py     Ryd( 2p)     0.00044
   215    H   15  pz     Ryd( 2p)     0.00047

   216    H   16  S      Val( 1S)     0.61483
   217    H   16  S      Ryd( 2S)     0.00154
   218    H   16  px     Ryd( 2p)     0.00048
   219    H   16  py     Ryd( 2p)     0.00047
   220    H   16  pz     Ryd( 2p)     0.00046

   221    H   17  S      Val( 1S)     0.79678
   222    H   17  S      Ryd( 2S)     0.00229
   223    H   17  px     Ryd( 2p)     0.00032
   224    H   17  py     Ryd( 2p)     0.00014
   225    H   17  pz     Ryd( 2p)     0.00011

   226    H   18  S      Val( 1S)     0.77475
   227    H   18  S      Ryd( 2S)     0.00134
   228    H   18  px     Ryd( 2p)     0.00008
   229    H   18  py     Ryd( 2p)     0.00017
   230    H   18  pz     Ryd( 2p)     0.00030

   231    H   19  S      Val( 1S)     0.76488
   232    H   19  S      Ryd( 2S)     0.00151
   233    H   19  px     Ryd( 2p)     0.00010
   234    H   19  py     Ryd( 2p)     0.00018
   235    H   19  pz     Ryd( 2p)     0.00028

   236    H   20  S      Val( 1S)     0.76621
   237    H   20  S      Ryd( 2S)     0.00227
   238    H   20  px     Ryd( 2p)     0.00031
   239    H   20  py     Ryd( 2p)     0.00012
   240    H   20  pz     Ryd( 2p)     0.00011

   241    H   21  S      Val( 1S)     0.76907
   242    H   21  S      Ryd( 2S)     0.00213
   243    H   21  px     Ryd( 2p)     0.00030
   244    H   21  py     Ryd( 2p)     0.00015
   245    H   21  pz     Ryd( 2p)     0.00011

   246    H   22  S      Val( 1S)     0.76272
   247    H   22  S      Ryd( 2S)     0.00154
   248    H   22  px     Ryd( 2p)     0.00012
   249    H   22  py     Ryd( 2p)     0.00014
   250    H   22  pz     Ryd( 2p)     0.00029

   251    H   23  S      Val( 1S)     0.76971
   252    H   23  S      Ryd( 2S)     0.00129
   253    H   23  px     Ryd( 2p)     0.00014
   254    H   23  py     Ryd( 2p)     0.00014
   255    H   23  pz     Ryd( 2p)     0.00028

   256    H   24  S      Val( 1S)     0.76372
   257    H   24  S      Ryd( 2S)     0.00151
   258    H   24  px     Ryd( 2p)     0.00030
   259    H   24  py     Ryd( 2p)     0.00013
   260    H   24  pz     Ryd( 2p)     0.00012

   261    H   25  S      Val( 1S)     0.76447
   262    H   25  S      Ryd( 2S)     0.00151
   263    H   25  px     Ryd( 2p)     0.00009
   264    H   25  py     Ryd( 2p)     0.00023
   265    H   25  pz     Ryd( 2p)     0.00023

   266    H   26  S      Val( 1S)     0.76486
   267    H   26  S      Ryd( 2S)     0.00152
   268    H   26  px     Ryd( 2p)     0.00015
   269    H   26  py     Ryd( 2p)     0.00015
   270    H   26  pz     Ryd( 2p)     0.00025

   271    H   27  S      Val( 1S)     0.77046
   272    H   27  S      Ryd( 2S)     0.00200
   273    H   27  px     Ryd( 2p)     0.00010
   274    H   27  py     Ryd( 2p)     0.00020
   275    H   27  pz     Ryd( 2p)     0.00026

   276    H   28  S      Val( 1S)     0.76420
   277    H   28  S      Ryd( 2S)     0.00165
   278    H   28  px     Ryd( 2p)     0.00015
   279    H   28  py     Ryd( 2p)     0.00028
   280    H   28  pz     Ryd( 2p)     0.00013

   281    H   29  S      Val( 1S)     0.77285
   282    H   29  S      Ryd( 2S)     0.00328
   283    H   29  px     Ryd( 2p)     0.00015
   284    H   29  py     Ryd( 2p)     0.00029
   285    H   29  pz     Ryd( 2p)     0.00012

   286    H   30  S      Val( 1S)     0.77160
   287    H   30  S      Ryd( 2S)     0.00204
   288    H   30  px     Ryd( 2p)     0.00010
   289    H   30  py     Ryd( 2p)     0.00020
   290    H   30  pz     Ryd( 2p)     0.00026

   291    H   31  S      Val( 1S)     0.77446
   292    H   31  S      Ryd( 2S)     0.00388
   293    H   31  px     Ryd( 2p)     0.00014
   294    H   31  py     Ryd( 2p)     0.00029
   295    H   31  pz     Ryd( 2p)     0.00012

   296    H   32  S      Val( 1S)     0.78875
   297    H   32  S      Ryd( 2S)     0.01834
   298    H   32  px     Ryd( 2p)     0.00011
   299    H   32  py     Ryd( 2p)     0.00019
   300    H   32  pz     Ryd( 2p)     0.00026

   301    H   33  S      Val( 1S)     0.76235
   302    H   33  S      Ryd( 2S)     0.00268
   303    H   33  px     Ryd( 2p)     0.00010
   304    H   33  py     Ryd( 2p)     0.00018
   305    H   33  pz     Ryd( 2p)     0.00027

   306    H   34  S      Val( 1S)     0.77104
   307    H   34  S      Ryd( 2S)     0.00307
   308    H   34  px     Ryd( 2p)     0.00014
   309    H   34  py     Ryd( 2p)     0.00030
   310    H   34  pz     Ryd( 2p)     0.00013

   311    H   35  S      Val( 1S)     0.74453
   312    H   35  S      Ryd( 2S)     0.00193
   313    H   35  px     Ryd( 2p)     0.00013
   314    H   35  py     Ryd( 2p)     0.00032
   315    H   35  pz     Ryd( 2p)     0.00011

   316    H   36  S      Val( 1S)     0.75617
   317    H   36  S      Ryd( 2S)     0.00233
   318    H   36  px     Ryd( 2p)     0.00016
   319    H   36  py     Ryd( 2p)     0.00011
   320    H   36  pz     Ryd( 2p)     0.00029

   321    H   37  S      Val( 1S)     0.76689
   322    H   37  S      Ryd( 2S)     0.02502
   323    H   37  px     Ryd( 2p)     0.00034
   324    H   37  py     Ryd( 2p)     0.00012
   325    H   37  pz     Ryd( 2p)     0.00009

   326    H   38  S      Val( 1S)     0.77408
   327    H   38  S      Ryd( 2S)     0.02981
   328    H   38  px     Ryd( 2p)     0.00015
   329    H   38  py     Ryd( 2p)     0.00012
   330    H   38  pz     Ryd( 2p)     0.00028

   331    H   39  S      Val( 1S)     0.75030
   332    H   39  S      Ryd( 2S)     0.02010
   333    H   39  px     Ryd( 2p)     0.00013
   334    H   39  py     Ryd( 2p)     0.00009
   335    H   39  pz     Ryd( 2p)     0.00031

   336    H   40  S      Val( 1S)     0.76289
   337    H   40  S      Ryd( 2S)     0.03001
   338    H   40  px     Ryd( 2p)     0.00036
   339    H   40  py     Ryd( 2p)     0.00007
   340    H   40  pz     Ryd( 2p)     0.00009

   341    H   41  S      Val( 1S)     0.70384
   342    H   41  S      Ryd( 2S)     0.07725
   343    H   41  px     Ryd( 2p)     0.00075
   344    H   41  py     Ryd( 2p)     0.00020
   345    H   41  pz     Ryd( 2p)     0.00026

   346    H   42  S      Val( 1S)     0.72318
   347    H   42  S      Ryd( 2S)     0.08430
   348    H   42  px     Ryd( 2p)     0.00033
   349    H   42  py     Ryd( 2p)     0.00024
   350    H   42  pz     Ryd( 2p)     0.00061


 Summary of Natural Population Analysis:                  
                                                          
                                       Natural Population 
                Natural  -----------------------------------------------
    Atom  No    Charge         Core      Valence    Rydberg      Total
 -----------------------------------------------------------------------
      N    1   -0.92857      1.99968     5.91407    0.01481     7.92857
      C    2   -0.26124      1.99936     4.24880    0.01308     6.26124
      C    3   -0.47143      1.99933     4.45998    0.01212     6.47143
      C    4   -0.46570      1.99933     4.45529    0.01108     6.46570
      C    5   -0.46606      1.99934     4.45581    0.01091     6.46606
      C    6   -0.45759      1.99934     4.44687    0.01138     6.45759
      C    7   -0.46169      1.99934     4.45136    0.01099     6.46169
      C    8   -0.46145      1.99934     4.45094    0.01118     6.46145
      C    9   -0.46320      1.99933     4.45240    0.01147     6.46320
      C   10   -0.46436      1.99933     4.45328    0.01174     6.46436
      C   11   -0.45734      1.99931     4.44627    0.01177     6.45734
      C   12   -0.47764      1.99926     4.46140    0.01698     6.47764
      C   13   -0.36280      1.99935     4.34139    0.02206     6.36280
      N   14   -0.37836      1.99937     5.35314    0.02585     7.37836
      H   15    0.38927      0.00000     0.60807    0.00266     0.61073
      H   16    0.38221      0.00000     0.61483    0.00296     0.61779
      H   17    0.20036      0.00000     0.79678    0.00286     0.79964
      H   18    0.22335      0.00000     0.77475    0.00190     0.77665
      H   19    0.23306      0.00000     0.76488    0.00207     0.76694
      H   20    0.23098      0.00000     0.76621    0.00281     0.76902
      H   21    0.22824      0.00000     0.76907    0.00269     0.77176
      H   22    0.23518      0.00000     0.76272    0.00210     0.76482
      H   23    0.22844      0.00000     0.76971    0.00185     0.77156
      H   24    0.23422      0.00000     0.76372    0.00206     0.76578
      H   25    0.23347      0.00000     0.76447    0.00207     0.76653
      H   26    0.23307      0.00000     0.76486    0.00207     0.76693
      H   27    0.22698      0.00000     0.77046    0.00256     0.77302
      H   28    0.23360      0.00000     0.76420    0.00220     0.76640
      H   29    0.22331      0.00000     0.77285    0.00384     0.77669
      H   30    0.22580      0.00000     0.77160    0.00260     0.77420
      H   31    0.22111      0.00000     0.77446    0.00444     0.77889
      H   32    0.19235      0.00000     0.78875    0.01890     0.80765
      H   33    0.23442      0.00000     0.76235    0.00324     0.76558
      H   34    0.22533      0.00000     0.77104    0.00364     0.77467
      H   35    0.25298      0.00000     0.74453    0.00249     0.74702
      H   36    0.24094      0.00000     0.75617    0.00289     0.75906
      H   37    0.20753      0.00000     0.76689    0.02558     0.79247
      H   38    0.19556      0.00000     0.77408    0.03036     0.80444
      H   39    0.22907      0.00000     0.75030    0.02063     0.77093
      H   40    0.20658      0.00000     0.76289    0.03053     0.79342
      H   41    0.21770      0.00000     0.70384    0.07846     0.78230
      H   42    0.19134      0.00000     0.72318    0.08548     0.80866
 =======================================================================
   * Total *   -0.00097     27.99100    85.46862    0.54135   114.00097

                                 Natural Population      
 --------------------------------------------------------
   Core                      27.99100 ( 99.9679% of  28)
   Valence                   85.46862 ( 99.3821% of  86)
   Natural Minimal Basis    113.45962 ( 99.5260% of 114)
   Natural Rydberg Basis      0.54135 (  0.4749% of 114)
 --------------------------------------------------------

    Atom  No          Natural Electron Configuration
 ----------------------------------------------------------------------------
      N    1      [core]2S( 1.45)2p( 4.47)3p( 0.01)
      C    2      [core]2S( 1.02)2p( 3.23)3p( 0.01)
      C    3      [core]2S( 1.04)2p( 3.42)3p( 0.01)
      C    4      [core]2S( 1.03)2p( 3.42)3p( 0.01)
      C    5      [core]2S( 1.03)2p( 3.42)3p( 0.01)
      C    6      [core]2S( 1.03)2p( 3.42)3p( 0.01)
      C    7      [core]2S( 1.03)2p( 3.42)3p( 0.01)
      C    8      [core]2S( 1.03)2p( 3.42)3p( 0.01)
      C    9      [core]2S( 1.04)2p( 3.42)3p( 0.01)
      C   10      [core]2S( 1.03)2p( 3.42)3p( 0.01)
      C   11      [core]2S( 1.03)2p( 3.41)3p( 0.01)
      C   12      [core]2S( 1.06)2p( 3.40)3p( 0.01)
      C   13      [core]2S( 1.06)2p( 3.28)3p( 0.02)
      N   14      [core]2S( 1.49)2p( 3.87)3S( 0.02)3p( 0.01)
      H   15            1S( 0.61)
      H   16            1S( 0.61)
      H   17            1S( 0.80)
      H   18            1S( 0.77)
      H   19            1S( 0.76)
      H   20            1S( 0.77)
      H   21            1S( 0.77)
      H   22            1S( 0.76)
      H   23            1S( 0.77)
      H   24            1S( 0.76)
      H   25            1S( 0.76)
      H   26            1S( 0.76)
      H   27            1S( 0.77)
      H   28            1S( 0.76)
      H   29            1S( 0.77)
      H   30            1S( 0.77)
      H   31            1S( 0.77)
      H   32            1S( 0.79)2S( 0.02)
      H   33            1S( 0.76)
      H   34            1S( 0.77)
      H   35            1S( 0.74)
      H   36            1S( 0.76)
      H   37            1S( 0.77)2S( 0.03)
      H   38            1S( 0.77)2S( 0.03)
      H   39            1S( 0.75)2S( 0.02)
      H   40            1S( 0.76)2S( 0.03)
      H   41            1S( 0.70)2S( 0.08)
      H   42            1S( 0.72)2S( 0.08)


 NBO analysis skipped by request.
 1\1\GINC-CN34\SP\RB3LYP TD-FC\6-31G(d,p)\C12H28N2\QDUEZ\09-Jul-2024\0\
 \# TD(NStates=10, Root=1) B3LYP/6-31G** SCRF=(Solvent=water) volume po
 p=NPA density=current Geom=AllCheck Guess=Read\\QFTYSVGGYOXFRQ-UHFFFAO
 YSA-N_conf_2\\0,1\N,0,-4.1647003597,2.2794662063,-2.908153327\C,0,-3.2
 819282399,1.3663470205,-2.1640887356\C,0,-4.1014097689,0.4538302078,-1
 .2471653957\C,0,-3.2620298007,-0.5079483364,-0.3915692266\C,0,-2.49819
 63043,-1.5709425088,-1.1958711978\C,0,-1.8140133263,-2.6461972654,-0.3
 330625428\C,0,-0.7111608839,-2.1484480246,0.6179304687\C,0,0.504035511
 9,-1.5233676846,-0.080375442\C,0,1.6262342501,-1.1336922066,0.89086995
 07\C,0,2.8385643121,-0.5020011161,0.1935224912\C,0,4.0266712766,-0.192
 7640348,1.1225359298\C,0,3.7664265244,0.8408700049,2.2327954883\C,0,3.
 4514794651,2.2570831555,1.7270353734\N,0,3.272396369,3.2780941552,2.77
 16332115\H,0,-3.5986171415,2.8646068277,-3.520071571\H,0,-4.5964753387
 ,2.9259905843,-2.2487995186\H,0,-2.5194002052,1.8879670914,-1.55853518
 85\H,0,-2.7349120492,0.7645844699,-2.8991584067\H,0,-4.7045039519,1.08
 61478475,-0.5803125434\H,0,-4.8138513441,-0.1145424266,-1.8596908955\H
 ,0,-2.5604411154,0.076222317,0.2188643561\H,0,-3.9285846648,-1.0167251
 792,0.3181124556\H,0,-1.7539759624,-1.0894502974,-1.842047191\H,0,-3.2
 039101976,-2.0711964003,-1.8735214772\H,0,-1.3853116661,-3.408708209,-
 0.9978351198\H,0,-2.5828997095,-3.1595848138,0.2607173018\H,0,-1.13009
 69498,-1.4257522021,1.3309504492\H,0,-0.3698914143,-2.9996702675,1.222
 8822148\H,0,0.1952006368,-0.6325355891,-0.6435673002\H,0,0.8977929811,
 -2.2314450548,-0.8241226159\H,0,1.9524573865,-2.0259600643,1.444942178
 4\H,0,1.2225473607,-0.4413456915,1.6417485106\H,0,3.1879083338,-1.1860
 006332,-0.5919468847\H,0,2.5208848394,0.4108717938,-0.3280071546\H,0,4
 .360044838,-1.1300360085,1.588083655\H,0,4.8696308086,0.155922039,0.51
 01338732\H,0,4.6569254246,0.895974745,2.8742771461\H,0,2.946863002,0.5
 036614851,2.8817233185\H,0,4.2601081849,2.592009712,1.0635862729\H,0,2
 .5398971281,2.2461274858,1.1179379891\H,0,4.1032154422,3.2892031652,3.
 3627433893\H,0,2.5170263183,2.983333701,3.3897423411\\Version=EM64L-G1
 6RevA.03\State=1-A\HF=-583.6954779\RMSD=7.768e-09\Dipole=0.8527431,0.6
 624104,0.0752083\Quadrupole=-3.0486614,7.4612363,-4.4125749,-0.2216785
 ,-6.4868048,-0.8748967\PG=C01 [X(C12H28N2)]\\@


 A MAN BEGINS CUTTING HIS WISDOM TEETH THE 1ST
 TIME HE BITES OFF MORE THAN HE CAN CHEW.
 Job cpu time:       0 days  3 hours  3 minutes 36.2 seconds.
 Elapsed time:       0 days  0 hours 38 minutes 53.7 seconds.
 File lengths (MBytes):  RWF=    994 Int=      0 D2E=      0 Chk=     64 Scr=      1
 Normal termination of Gaussian 16 at Tue Jul  9 20:52:23 2024.
