 Entering Gaussian System, Link 0=g16
 Initial command:
 /opt/sw/arch/manual/gaussian/G16_A03/g16/l1.exe "/scratch/1032082.jesse.materianova.be/Gau-2373.inp" -scrdir="/scratch/1032082.jesse.materianova.be/"
 Entering Link 1 = /opt/sw/arch/manual/gaussian/G16_A03/g16/l1.exe PID=      2376.
  
 Copyright (c) 1988,1990,1992,1993,1995,1998,2003,2009,2016,
            Gaussian, Inc.  All Rights Reserved.
  
 This is part of the Gaussian(R) 16 program.  It is based on
 the Gaussian(R) 09 system (copyright 2009, Gaussian, Inc.),
 the Gaussian(R) 03 system (copyright 2003, Gaussian, Inc.),
 the Gaussian(R) 98 system (copyright 1998, Gaussian, Inc.),
 the Gaussian(R) 94 system (copyright 1995, Gaussian, Inc.),
 the Gaussian 92(TM) system (copyright 1992, Gaussian, Inc.),
 the Gaussian 90(TM) system (copyright 1990, Gaussian, Inc.),
 the Gaussian 88(TM) system (copyright 1988, Gaussian, Inc.),
 the Gaussian 86(TM) system (copyright 1986, Carnegie Mellon
 University), and the Gaussian 82(TM) system (copyright 1983,
 Carnegie Mellon University). Gaussian is a federally registered
 trademark of Gaussian, Inc.
  
 This software contains proprietary and confidential information,
 including trade secrets, belonging to Gaussian, Inc.
  
 This software is provided under written license and may be
 used, copied, transmitted, or stored only in accord with that
 written license.
  
 The following legend is applicable only to US Government
 contracts under FAR:
  
                    RESTRICTED RIGHTS LEGEND
  
 Use, reproduction and disclosure by the US Government is
 subject to restrictions as set forth in subparagraphs (a)
 and (c) of the Commercial Computer Software - Restricted
 Rights clause in FAR 52.227-19.
  
 Gaussian, Inc.
 340 Quinnipiac St., Bldg. 40, Wallingford CT 06492
  
  
 ---------------------------------------------------------------
 Warning -- This program may not be used in any manner that
 competes with the business of Gaussian, Inc. or will provide
 assistance to any competitor of Gaussian, Inc.  The licensee
 of this program is prohibited from giving any competitor of
 Gaussian, Inc. access to this program.  By using this program,
 the user acknowledges that Gaussian, Inc. is engaged in the
 business of creating and licensing software in the field of
 computational chemistry and represents and warrants to the
 licensee that it is not a competitor of Gaussian, Inc. and that
 it will not use this program in any manner prohibited above.
 ---------------------------------------------------------------
  

 Cite this work as:
 Gaussian 16, Revision A.03,
 M. J. Frisch, G. W. Trucks, H. B. Schlegel, G. E. Scuseria, 
 M. A. Robb, J. R. Cheeseman, G. Scalmani, V. Barone, 
 G. A. Petersson, H. Nakatsuji, X. Li, M. Caricato, A. V. Marenich, 
 J. Bloino, B. G. Janesko, R. Gomperts, B. Mennucci, H. P. Hratchian, 
 J. V. Ortiz, A. F. Izmaylov, J. L. Sonnenberg, D. Williams-Young, 
 F. Ding, F. Lipparini, F. Egidi, J. Goings, B. Peng, A. Petrone, 
 T. Henderson, D. Ranasinghe, V. G. Zakrzewski, J. Gao, N. Rega, 
 G. Zheng, W. Liang, M. Hada, M. Ehara, K. Toyota, R. Fukuda, 
 J. Hasegawa, M. Ishida, T. Nakajima, Y. Honda, O. Kitao, H. Nakai, 
 T. Vreven, K. Throssell, J. A. Montgomery, Jr., J. E. Peralta, 
 F. Ogliaro, M. J. Bearpark, J. J. Heyd, E. N. Brothers, K. N. Kudin, 
 V. N. Staroverov, T. A. Keith, R. Kobayashi, J. Normand, 
 K. Raghavachari, A. P. Rendell, J. C. Burant, S. S. Iyengar, 
 J. Tomasi, M. Cossi, J. M. Millam, M. Klene, C. Adamo, R. Cammi, 
 J. W. Ochterski, R. L. Martin, K. Morokuma, O. Farkas, 
 J. B. Foresman, and D. J. Fox, Gaussian, Inc., Wallingford CT, 2016.
 
 ******************************************
 Gaussian 16:  EM64L-G16RevA.03 25-Dec-2016
                11-Jul-2024 
 ******************************************
 %nprocshared=2
 Will use up to    2 processors via shared memory.
 %mem=4GB
 %Chk=OYTKINVCDFNREN-UHFFFAOYSA-N_conf_0_0.chk
 -------------------------------------------------------
 # opt=CalcFc B3LYP/6-31G** SCRF=(Solvent=water) scf=xqc
 -------------------------------------------------------
 1/10=4,18=20,19=15,26=3,38=1/1,3;
 2/9=110,12=2,17=6,18=5,40=1/2;
 3/5=1,6=6,7=101,11=2,25=1,30=1,70=2201,71=2,72=1,74=-5,140=1/1,2,3;
 4//1;
 5/5=2,8=3,13=1,38=5,53=1/2,8;
 8/6=4,10=90,11=11/1;
 11/6=1,8=1,9=11,15=111,16=1/1,2,10;
 10/6=1,13=1/2;
 6/7=2,8=2,9=2,10=2,28=1/1;
 7/10=1,18=20,25=1/1,2,3,16;
 1/10=4,18=20,19=15,26=3/3(2);
 2/9=110/2;
 99//99;
 2/9=110/2;
 3/5=1,6=6,7=101,11=2,25=1,30=1,70=2205,71=1,72=1,74=-5/1,2,3;
 4/5=5,16=3,69=1/1;
 5/5=2,8=3,13=1,38=5,53=1/2,8;
 7//1,2,3,16;
 1/18=20,19=15,26=3/3(-5);
 2/9=110/2;
 6/7=2,8=2,9=2,10=2,19=2,28=1/1;
 99/9=1/99;
 ----------------------------------
 OYTKINVCDFNREN-UHFFFAOYSA-N_conf_0
 ----------------------------------
 Symbolic Z-matrix:
 Charge =  0 Multiplicity = 1
 N                    -1.5905   -1.25378  -0.12419 
 C                    -0.33385  -0.60479  -0.08732 
 C                    -0.26897   0.79067   0.06842 
 N                    -1.44844   1.56671   0.0162 
 C                     0.99877   1.36759   0.06219 
 N                     2.15892   0.6701    0.07658 
 C                     2.04752  -0.67443   0.07068 
 C                     0.8395   -1.35021   0.00094 
 H                    -2.26128  -0.67276  -0.62522 
 H                    -1.53748  -2.18034  -0.537 
 H                    -1.32775   2.48482   0.43449 
 H                    -2.20887   1.05987   0.46714 
 H                     1.12094   2.44635   0.06782 
 H                     2.98768  -1.21654   0.11763 
 H                     0.8238   -2.43324  -0.00837 
 

 GradGradGradGradGradGradGradGradGradGradGradGradGradGradGradGradGradGrad
 Berny optimization.
 Initialization pass.
                           ----------------------------
                           !    Initial Parameters    !
                           ! (Angstroms and Degrees)  !
 --------------------------                            --------------------------
 ! Name  Definition              Value          Derivative Info.                !
 --------------------------------------------------------------------------------
 ! R1    R(1,2)                  1.4148         calculate D2E/DX2 analytically  !
 ! R2    R(1,9)                  1.0191         calculate D2E/DX2 analytically  !
 ! R3    R(1,10)                 1.0157         calculate D2E/DX2 analytically  !
 ! R4    R(2,3)                  1.4056         calculate D2E/DX2 analytically  !
 ! R5    R(2,8)                  1.3929         calculate D2E/DX2 analytically  !
 ! R6    R(3,4)                  1.4128         calculate D2E/DX2 analytically  !
 ! R7    R(3,5)                  1.3929         calculate D2E/DX2 analytically  !
 ! R8    R(4,11)                 1.0161         calculate D2E/DX2 analytically  !
 ! R9    R(4,12)                 1.0191         calculate D2E/DX2 analytically  !
 ! R10   R(5,6)                  1.3538         calculate D2E/DX2 analytically  !
 ! R11   R(5,13)                 1.0857         calculate D2E/DX2 analytically  !
 ! R12   R(6,7)                  1.3492         calculate D2E/DX2 analytically  !
 ! R13   R(7,8)                  1.386          calculate D2E/DX2 analytically  !
 ! R14   R(7,14)                 1.0863         calculate D2E/DX2 analytically  !
 ! R15   R(8,15)                 1.0832         calculate D2E/DX2 analytically  !
 ! A1    A(2,1,9)              109.6279         calculate D2E/DX2 analytically  !
 ! A2    A(2,1,10)             112.4987         calculate D2E/DX2 analytically  !
 ! A3    A(9,1,10)             110.7702         calculate D2E/DX2 analytically  !
 ! A4    A(1,2,3)              119.9526         calculate D2E/DX2 analytically  !
 ! A5    A(1,2,8)              120.2895         calculate D2E/DX2 analytically  !
 ! A6    A(3,2,8)              119.0373         calculate D2E/DX2 analytically  !
 ! A7    A(2,3,4)              120.177          calculate D2E/DX2 analytically  !
 ! A8    A(2,3,5)              116.9185         calculate D2E/DX2 analytically  !
 ! A9    A(4,3,5)              122.1515         calculate D2E/DX2 analytically  !
 ! A10   A(3,4,11)             112.4531         calculate D2E/DX2 analytically  !
 ! A11   A(3,4,12)             109.4757         calculate D2E/DX2 analytically  !
 ! A12   A(11,4,12)            110.846          calculate D2E/DX2 analytically  !
 ! A13   A(3,5,6)              124.5107         calculate D2E/DX2 analytically  !
 ! A14   A(3,5,13)             120.9281         calculate D2E/DX2 analytically  !
 ! A15   A(6,5,13)             114.5476         calculate D2E/DX2 analytically  !
 ! A16   A(5,6,7)              116.2728         calculate D2E/DX2 analytically  !
 ! A17   A(6,7,8)              123.9257         calculate D2E/DX2 analytically  !
 ! A18   A(6,7,14)             115.1945         calculate D2E/DX2 analytically  !
 ! A19   A(8,7,14)             120.8783         calculate D2E/DX2 analytically  !
 ! A20   A(2,8,7)              118.4558         calculate D2E/DX2 analytically  !
 ! A21   A(2,8,15)             121.4886         calculate D2E/DX2 analytically  !
 ! A22   A(7,8,15)             120.0386         calculate D2E/DX2 analytically  !
 ! D1    D(9,1,2,3)             37.3364         calculate D2E/DX2 analytically  !
 ! D2    D(9,1,2,8)           -152.4819         calculate D2E/DX2 analytically  !
 ! D3    D(10,1,2,3)           161.0627         calculate D2E/DX2 analytically  !
 ! D4    D(10,1,2,8)           -28.7555         calculate D2E/DX2 analytically  !
 ! D5    D(1,2,3,4)             -8.1389         calculate D2E/DX2 analytically  !
 ! D6    D(1,2,3,5)           -178.4125         calculate D2E/DX2 analytically  !
 ! D7    D(8,2,3,4)           -178.4433         calculate D2E/DX2 analytically  !
 ! D8    D(8,2,3,5)             11.2831         calculate D2E/DX2 analytically  !
 ! D9    D(1,2,8,7)           -178.2934         calculate D2E/DX2 analytically  !
 ! D10   D(1,2,8,15)             3.2009         calculate D2E/DX2 analytically  !
 ! D11   D(3,2,8,7)             -8.0224         calculate D2E/DX2 analytically  !
 ! D12   D(3,2,8,15)           173.4718         calculate D2E/DX2 analytically  !
 ! D13   D(2,3,4,11)           161.1603         calculate D2E/DX2 analytically  !
 ! D14   D(2,3,4,12)            37.4799         calculate D2E/DX2 analytically  !
 ! D15   D(5,3,4,11)           -29.0886         calculate D2E/DX2 analytically  !
 ! D16   D(5,3,4,12)          -152.769          calculate D2E/DX2 analytically  !
 ! D17   D(2,3,5,6)             -8.1855         calculate D2E/DX2 analytically  !
 ! D18   D(2,3,5,13)           173.2308         calculate D2E/DX2 analytically  !
 ! D19   D(4,3,5,6)           -178.2522         calculate D2E/DX2 analytically  !
 ! D20   D(4,3,5,13)             3.1642         calculate D2E/DX2 analytically  !
 ! D21   D(3,5,6,7)              1.3109         calculate D2E/DX2 analytically  !
 ! D22   D(13,5,6,7)           179.9752         calculate D2E/DX2 analytically  !
 ! D23   D(5,6,7,8)              2.5042         calculate D2E/DX2 analytically  !
 ! D24   D(5,6,7,14)          -177.9477         calculate D2E/DX2 analytically  !
 ! D25   D(6,7,8,2)              0.9321         calculate D2E/DX2 analytically  !
 ! D26   D(6,7,8,15)           179.4602         calculate D2E/DX2 analytically  !
 ! D27   D(14,7,8,2)          -178.5915         calculate D2E/DX2 analytically  !
 ! D28   D(14,7,8,15)           -0.0634         calculate D2E/DX2 analytically  !
 --------------------------------------------------------------------------------
 Trust Radius=3.00D-01 FncErr=1.00D-07 GrdErr=1.00D-06 EigMax=2.50D+02 EigMin=1.00D-04
 Number of steps in this run=     75 maximum allowed number of steps=    100.
 GradGradGradGradGradGradGradGradGradGradGradGradGradGradGradGradGradGrad

                          Input orientation:                          
 ---------------------------------------------------------------------
 Center     Atomic      Atomic             Coordinates (Angstroms)
 Number     Number       Type             X           Y           Z
 ---------------------------------------------------------------------
      1          7           0       -1.590497   -1.253785   -0.124188
      2          6           0       -0.333855   -0.604791   -0.087321
      3          6           0       -0.268970    0.790669    0.068421
      4          7           0       -1.448439    1.566706    0.016196
      5          6           0        0.998768    1.367586    0.062186
      6          7           0        2.158923    0.670102    0.076585
      7          6           0        2.047518   -0.674430    0.070681
      8          6           0        0.839496   -1.350211    0.000945
      9          1           0       -2.261280   -0.672764   -0.625217
     10          1           0       -1.537475   -2.180339   -0.537000
     11          1           0       -1.327745    2.484820    0.434489
     12          1           0       -2.208868    1.059871    0.467145
     13          1           0        1.120939    2.446348    0.067821
     14          1           0        2.987681   -1.216544    0.117628
     15          1           0        0.823805   -2.433239   -0.008369
 ---------------------------------------------------------------------
                    Distance matrix (angstroms):
                    1          2          3          4          5
     1  N    0.000000
     2  C    1.414816   0.000000
     3  C    2.441992   1.405622   0.000000
     4  N    2.827553   2.443033   1.412837   0.000000
     5  C    3.689257   2.385059   1.392850   2.455725   0.000000
     6  N    4.218981   2.804667   2.430898   3.717607   1.353754
     7  C    3.689008   2.387624   2.740919   4.152996   2.295600
     8  C    2.435123   1.392908   2.411766   3.707193   2.723149
     9  H    1.019099   2.002229   2.567503   2.467255   3.906848
    10  H    1.015740   2.033044   3.286720   3.788707   4.402196
    11  H    3.789238   3.287218   2.031049   1.016105   2.607582
    12  H    2.466792   2.567919   1.998664   1.019063   3.247708
    13  H    4.591267   3.383776   2.161740   2.716272   1.085672
    14  H    4.584712   3.383614   3.825846   5.237932   3.261377
    15  H    2.689495   2.165556   3.404943   4.600354   3.805505
                    6          7          8          9         10
     6  N    0.000000
     7  C    1.349152   0.000000
     8  C    2.414181   1.385951   0.000000
     9  H    4.672687   4.364633   3.235093   0.000000
    10  H    4.707957   3.935635   2.574586   1.674651   0.000000
    11  H    3.946916   4.637415   4.426326   3.459018   4.769852
    12  H    4.402506   4.613221   3.913868   2.048909   3.458040
    13  H    2.057313   3.255428   3.807563   4.652802   5.370214
    14  H    2.061057   1.086277   2.155500   5.329081   4.672738
    15  H    3.379421   2.144093   1.083182   3.605207   2.432911
                   11         12         13         14         15
    11  H    0.000000
    12  H    1.675686   0.000000
    13  H    2.476283   3.628965   0.000000
    14  H    5.694155   5.684044   4.111445   0.000000
    15  H    5.386334   4.650273   4.889219   2.485676   0.000000
 Stoichiometry    C5H7N3
 Framework group  C1[X(C5H7N3)]
 Deg. of freedom    39
 Full point group                 C1      NOp   1
 Largest Abelian subgroup         C1      NOp   1
 Largest concise Abelian subgroup C1      NOp   1
                         Standard orientation:                         
 ---------------------------------------------------------------------
 Center     Atomic      Atomic             Coordinates (Angstroms)
 Number     Number       Type             X           Y           Z
 ---------------------------------------------------------------------
      1          7           0        1.677286    1.452302    0.026876
      2          6           0        0.474887    0.708772   -0.028835
      3          6           0        0.514375   -0.695009    0.031274
      4          7           0        1.752165   -1.373766   -0.025942
      5          6           0       -0.703263   -1.364703   -0.063064
      6          7           0       -1.914360   -0.759998   -0.048016
      7          6           0       -1.908608    0.586286    0.039715
      8          6           0       -0.755634    1.355044    0.062522
      9          1           0        2.408243    0.959966   -0.484857
     10          1           0        1.565852    2.398498   -0.325293
     11          1           0        1.689670   -2.325137    0.325424
     12          1           0        2.454702   -0.843084    0.487192
     13          1           0       -0.740576   -2.447422   -0.133847
     14          1           0       -2.889443    1.050894    0.085549
     15          1           0       -0.824619    2.434178    0.125735
 ---------------------------------------------------------------------
 Rotational constants (GHZ):           3.3431873           2.2570231           1.3538773
 Standard basis: 6-31G(d,p) (6D, 7F)
 There are   155 symmetry adapted cartesian basis functions of A   symmetry.
 There are   155 symmetry adapted basis functions of A   symmetry.
   155 basis functions,   273 primitive gaussians,   155 cartesian basis functions
    29 alpha electrons       29 beta electrons
       nuclear repulsion energy       353.1835143735 Hartrees.
 NAtoms=   15 NActive=   15 NUniq=   15 SFac= 1.00D+00 NAtFMM=   60 NAOKFM=F Big=F
 Integral buffers will be    131072 words long.
 Raffenetti 2 integral format.
 Two-electron integral symmetry is turned on.
 Force inversion solution in PCM.
 ------------------------------------------------------------------------------
 Polarizable Continuum Model (PCM)
 =================================
 Model                : PCM.
 Atomic radii         : UFF (Universal Force Field).
 Polarization charges : Total charges.
 Charge compensation  : None.
 Solution method      : Matrix inversion.
 Cavity type          : Scaled VdW (van der Waals Surface) (Alpha=1.100).
 Cavity algorithm     : GePol (No added spheres)
                        Default sphere list used, NSphG=   15.
                        Lebedev-Laikov grids with approx.  5.0 points / Ang**2.
                        Smoothing algorithm: York/Karplus (Gamma=1.0000).
                        Polarization charges: spherical gaussians, with
                                              point-specific exponents (IZeta= 3).
                        Self-potential: point-specific (ISelfS= 7).
                        Self-field    : sphere-specific E.n sum rule (ISelfD= 2).
 1st derivatives      : Analytical E(r).r(x)/FMM algorithm (CHGder, D1EAlg=3).
                        Cavity 1st derivative terms included.
 2nd derivatives      : Analytical E(r).r(xy)/FMM algorithm (CHGder, D2EAlg=3).
                        Cavity 2nd derivative terms included.
 Solvent              : Water, Eps=  78.355300 Eps(inf)=   1.777849
 ------------------------------------------------------------------------------
 Spheres list:
 ISph  on   Nord     Re0    Alpha      Xe            Ye            Ze
    1   N      1    1.8300  1.100      1.677286      1.452302      0.026876
    2   C      2    1.9255  1.100      0.474887      0.708772     -0.028835
    3   C      3    1.9255  1.100      0.514375     -0.695009      0.031274
    4   N      4    1.8300  1.100      1.752165     -1.373766     -0.025942
    5   C      5    1.9255  1.100     -0.703263     -1.364703     -0.063064
    6   N      6    1.8300  1.100     -1.914360     -0.759998     -0.048016
    7   C      7    1.9255  1.100     -1.908608      0.586286      0.039715
    8   C      8    1.9255  1.100     -0.755634      1.355044      0.062522
    9   H      9    1.4430  1.100      2.408243      0.959966     -0.484857
   10   H     10    1.4430  1.100      1.565852      2.398498     -0.325293
   11   H     11    1.4430  1.100      1.689670     -2.325137      0.325424
   12   H     12    1.4430  1.100      2.454702     -0.843084      0.487192
   13   H     13    1.4430  1.100     -0.740576     -2.447422     -0.133847
   14   H     14    1.4430  1.100     -2.889443      1.050894      0.085549
   15   H     15    1.4430  1.100     -0.824619      2.434178      0.125735
 ------------------------------------------------------------------------------
 One-electron integrals computed using PRISM.
 NBasis=   155 RedAO= T EigKep=  7.32D-04  NBF=   155
 NBsUse=   155 1.00D-06 EigRej= -1.00D+00 NBFU=   155
 ExpMin= 1.61D-01 ExpMax= 4.17D+03 ExpMxC= 6.27D+02 IAcc=3 IRadAn=         5 AccDes= 0.00D+00
 Harris functional with IExCor=  402 and IRadAn=       5 diagonalized for initial guess.
 HarFok:  IExCor=  402 AccDes= 0.00D+00 IRadAn=         5 IDoV= 1 UseB2=F ITyADJ=14
 ICtDFT=  3500011 ScaDFX=  1.000000  1.000000  1.000000  1.000000
 FoFCou: FMM=F IPFlag=           0 FMFlag=      100000 FMFlg1=           0
         NFxFlg=           0 DoJE=T BraDBF=F KetDBF=T FulRan=T
         wScrn=  0.000000 ICntrl=       500 IOpCl=  0 I1Cent=   200000004 NGrid=           0
         NMat0=    1 NMatS0=      1 NMatT0=    0 NMatD0=    1 NMtDS0=    0 NMtDT0=    0
 Petite list used in FoFCou.
 Keep R1 ints in memory in canonical form, NReq=75050402.
 Requested convergence on RMS density matrix=1.00D-08 within  32 cycles.
 Requested convergence on MAX density matrix=1.00D-06.
 Requested convergence on             energy=1.00D-06.
 No special actions if energy rises.
 Inv3:  Mode=1 IEnd=     4808268.
 Iteration    1 A*A^-1 deviation from unit magnitude is 5.33D-15 for    279.
 Iteration    1 A*A^-1 deviation from orthogonality  is 3.88D-15 for   1086    579.
 Iteration    1 A^-1*A deviation from unit magnitude is 5.33D-15 for    279.
 Iteration    1 A^-1*A deviation from orthogonality  is 2.81D-15 for   1213    963.
 Error on total polarization charges =  0.00658
 SCF Done:  E(RB3LYP) =  -359.020842978     A.U. after   12 cycles
            NFock= 12  Conv=0.60D-08     -V/T= 2.0096
 QCSCF skips out because SCF is already converged.
 DoSCS=F DFT=T ScalE2(SS,OS)=  1.000000  1.000000
 Range of M.O.s used for correlation:     1   155
 NBasis=   155 NAE=    29 NBE=    29 NFC=     0 NFV=     0
 NROrb=    155 NOA=    29 NOB=    29 NVA=   126 NVB=   126
 Symmetrizing basis deriv contribution to polar:
 IMax=3 JMax=2 DiffMx= 0.00D+00
 G2DrvN: will do    16 centers at a time, making    1 passes.
 Calling FoFCou, ICntrl=  3107 FMM=F I1Cent=   0 AccDes= 0.00D+00.
 NEqPCM:  Using equilibrium solvation (IEInf=0, Eps=  78.3553, EpsInf=   1.7778)
 G2PCM: DoFxE=T DoFxN=T DoGrad=T DoDP/DQ/DG/TGxP=FFFF NFrqRd=   0 IEInf=0 SqF1=F DoCFld=F IF1Alg=4.
 End of G2Drv F.D. properties file   721 does not exist.
 End of G2Drv F.D. properties file   722 does not exist.
 End of G2Drv F.D. properties file   788 does not exist.
          IDoAtm=111111111111111
 NEqPCM:  Using equilibrium solvation (IEInf=0, Eps=  78.3553, EpsInf=   1.7778)
          Differentiating once with respect to nuclear coordinates.
 Keep R1 ints in memory in canonical form, NReq=78149019.
          There are    48 degrees of freedom in the 1st order CPHF.  IDoFFX=6 NUNeed=     0.
     42 vectors produced by pass  0 Test12= 7.61D-15 2.08D-09 XBig12= 1.35D-01 1.22D-01.
 AX will form    42 AO Fock derivatives at one time.
     42 vectors produced by pass  1 Test12= 7.61D-15 2.08D-09 XBig12= 2.63D-02 4.32D-02.
     42 vectors produced by pass  2 Test12= 7.61D-15 2.08D-09 XBig12= 2.05D-04 2.41D-03.
     42 vectors produced by pass  3 Test12= 7.61D-15 2.08D-09 XBig12= 6.08D-07 1.11D-04.
     42 vectors produced by pass  4 Test12= 7.61D-15 2.08D-09 XBig12= 8.60D-10 2.93D-06.
     28 vectors produced by pass  5 Test12= 7.61D-15 2.08D-09 XBig12= 9.74D-13 1.05D-07.
      5 vectors produced by pass  6 Test12= 7.61D-15 2.08D-09 XBig12= 8.39D-16 4.27D-09.
 InvSVY:  IOpt=1 It=  1 EMax= 2.00D-15
 Solved reduced A of dimension   243 with    42 vectors.
 End of Minotr F.D. properties file   721 does not exist.
 End of Minotr F.D. properties file   722 does not exist.
 End of Minotr F.D. properties file   788 does not exist.

 **********************************************************************

            Population analysis using the SCF density.

 **********************************************************************

 Orbital symmetries:
       Occupied  (A) (A) (A) (A) (A) (A) (A) (A) (A) (A) (A) (A)
                 (A) (A) (A) (A) (A) (A) (A) (A) (A) (A) (A) (A)
                 (A) (A) (A) (A) (A)
       Virtual   (A) (A) (A) (A) (A) (A) (A) (A) (A) (A) (A) (A)
                 (A) (A) (A) (A) (A) (A) (A) (A) (A) (A) (A) (A)
                 (A) (A) (A) (A) (A) (A) (A) (A) (A) (A) (A) (A)
                 (A) (A) (A) (A) (A) (A) (A) (A) (A) (A) (A) (A)
                 (A) (A) (A) (A) (A) (A) (A) (A) (A) (A) (A) (A)
                 (A) (A) (A) (A) (A) (A) (A) (A) (A) (A) (A) (A)
                 (A) (A) (A) (A) (A) (A) (A) (A) (A) (A) (A) (A)
                 (A) (A) (A) (A) (A) (A) (A) (A) (A) (A) (A) (A)
                 (A) (A) (A) (A) (A) (A) (A) (A) (A) (A) (A) (A)
                 (A) (A) (A) (A) (A) (A) (A) (A) (A) (A) (A) (A)
                 (A) (A) (A) (A) (A) (A)
 The electronic state is 1-A.
 Alpha  occ. eigenvalues --  -14.34729 -14.34384 -14.32079 -10.23611 -10.22749
 Alpha  occ. eigenvalues --  -10.21182 -10.20922 -10.18691  -0.94744  -0.91048
 Alpha  occ. eigenvalues --   -0.89379  -0.76774  -0.73889  -0.63160  -0.61048
 Alpha  occ. eigenvalues --   -0.53703  -0.52181  -0.49346  -0.47018  -0.44147
 Alpha  occ. eigenvalues --   -0.43290  -0.42331  -0.40485  -0.36283  -0.33733
 Alpha  occ. eigenvalues --   -0.32248  -0.25549  -0.24121  -0.20758
 Alpha virt. eigenvalues --   -0.00631   0.00806   0.07106   0.11373   0.12169
 Alpha virt. eigenvalues --    0.15040   0.15362   0.16234   0.17606   0.18823
 Alpha virt. eigenvalues --    0.22745   0.25757   0.31485   0.33248   0.34923
 Alpha virt. eigenvalues --    0.36889   0.45115   0.47634   0.52023   0.53594
 Alpha virt. eigenvalues --    0.57005   0.58705   0.59003   0.59421   0.60889
 Alpha virt. eigenvalues --    0.61299   0.64234   0.65692   0.67734   0.68347
 Alpha virt. eigenvalues --    0.70157   0.72719   0.76151   0.80903   0.81378
 Alpha virt. eigenvalues --    0.82872   0.83765   0.84770   0.86251   0.86604
 Alpha virt. eigenvalues --    0.87924   0.89383   0.91467   0.94799   0.96458
 Alpha virt. eigenvalues --    0.98057   1.01100   1.03400   1.06511   1.11624
 Alpha virt. eigenvalues --    1.15218   1.17860   1.21488   1.28705   1.32596
 Alpha virt. eigenvalues --    1.34451   1.37144   1.38757   1.44724   1.47770
 Alpha virt. eigenvalues --    1.48001   1.57697   1.65865   1.71756   1.75039
 Alpha virt. eigenvalues --    1.77408   1.78841   1.81533   1.82541   1.86510
 Alpha virt. eigenvalues --    1.90019   1.91698   1.98226   1.98982   2.02490
 Alpha virt. eigenvalues --    2.03085   2.10066   2.10261   2.12242   2.19271
 Alpha virt. eigenvalues --    2.22006   2.23417   2.24644   2.27665   2.29851
 Alpha virt. eigenvalues --    2.30764   2.36067   2.37847   2.40277   2.41101
 Alpha virt. eigenvalues --    2.42152   2.44446   2.47819   2.51344   2.53426
 Alpha virt. eigenvalues --    2.55861   2.58593   2.62662   2.66643   2.69189
 Alpha virt. eigenvalues --    2.70927   2.75319   2.76305   2.81793   2.90433
 Alpha virt. eigenvalues --    2.94892   2.97758   3.02048   3.09533   3.20124
 Alpha virt. eigenvalues --    3.25628   3.28660   3.30548   3.33506   3.43909
 Alpha virt. eigenvalues --    3.48773   3.49481   3.74681   4.00322   4.07387
 Alpha virt. eigenvalues --    4.13185   4.16210   4.19504   4.33754   4.44910
 Alpha virt. eigenvalues --    4.72787
          Condensed to atoms (all electrons):
               1          2          3          4          5          6
     1  N    6.844810   0.295557  -0.069335  -0.012958   0.004587   0.000139
     2  C    0.295557   4.715504   0.500320  -0.069831  -0.031433  -0.055197
     3  C   -0.069335   0.500320   4.792988   0.267293   0.488637  -0.016775
     4  N   -0.012958  -0.069831   0.267293   6.870907  -0.061240   0.004394
     5  C    0.004587  -0.031433   0.488637  -0.061240   4.850428   0.452315
     6  N    0.000139  -0.055197  -0.016775   0.004394   0.452315   6.777677
     7  C    0.004521  -0.021989  -0.036387   0.000136  -0.080583   0.462831
     8  C   -0.072991   0.520704  -0.033928   0.005915  -0.042602  -0.031945
     9  H    0.327049  -0.025108  -0.018294   0.014433  -0.000319   0.000020
    10  H    0.343479  -0.024851   0.005977   0.000171  -0.000167   0.000014
    11  H    0.000145   0.005849  -0.027469   0.345259  -0.008466  -0.000017
    12  H    0.013958  -0.018681  -0.023843   0.327453   0.005419  -0.000153
    13  H   -0.000108   0.003353  -0.058236  -0.003330   0.382220  -0.047777
    14  H   -0.000118   0.002842   0.001071   0.000009   0.004692  -0.052068
    15  H   -0.007443  -0.042219   0.005705  -0.000066   0.000109   0.005151
               7          8          9         10         11         12
     1  N    0.004521  -0.072991   0.327049   0.343479   0.000145   0.013958
     2  C   -0.021989   0.520704  -0.025108  -0.024851   0.005849  -0.018681
     3  C   -0.036387  -0.033928  -0.018294   0.005977  -0.027469  -0.023843
     4  N    0.000136   0.005915   0.014433   0.000171   0.345259   0.327453
     5  C   -0.080583  -0.042602  -0.000319  -0.000167  -0.008466   0.005419
     6  N    0.462831  -0.031945   0.000020   0.000014  -0.000017  -0.000153
     7  C    4.746850   0.508442  -0.000222  -0.000010   0.000008   0.000050
     8  C    0.508442   4.976385   0.006362  -0.009391  -0.000157  -0.000545
     9  H   -0.000222   0.006362   0.448077  -0.025481  -0.000268  -0.005709
    10  H   -0.000010  -0.009391  -0.025481   0.418918  -0.000000  -0.000279
    11  H    0.000008  -0.000157  -0.000268  -0.000000   0.421062  -0.025738
    12  H    0.000050  -0.000545  -0.005709  -0.000279  -0.025738   0.450314
    13  H    0.004781   0.000792  -0.000004   0.000004   0.004654  -0.000127
    14  H    0.384641  -0.053749   0.000004  -0.000006  -0.000000  -0.000000
    15  H   -0.031526   0.360370   0.000028   0.004535   0.000004  -0.000012
              13         14         15
     1  N   -0.000108  -0.000118  -0.007443
     2  C    0.003353   0.002842  -0.042219
     3  C   -0.058236   0.001071   0.005705
     4  N   -0.003330   0.000009  -0.000066
     5  C    0.382220   0.004692   0.000109
     6  N   -0.047777  -0.052068   0.005151
     7  C    0.004781   0.384641  -0.031526
     8  C    0.000792  -0.053749   0.360370
     9  H   -0.000004   0.000004   0.000028
    10  H    0.000004  -0.000006   0.004535
    11  H    0.004654  -0.000000   0.000004
    12  H   -0.000127  -0.000000  -0.000012
    13  H    0.614442  -0.000252   0.000023
    14  H   -0.000252   0.620736  -0.002997
    15  H    0.000023  -0.002997   0.602848
 Mulliken charges:
               1
     1  N   -0.671294
     2  C    0.245181
     3  C    0.222277
     4  N   -0.688545
     5  C    0.036403
     6  N   -0.498609
     7  C    0.058456
     8  C   -0.133660
     9  H    0.279432
    10  H    0.287086
    11  H    0.285133
    12  H    0.277893
    13  H    0.099564
    14  H    0.095196
    15  H    0.105489
 Sum of Mulliken charges =  -0.00000
 Mulliken charges with hydrogens summed into heavy atoms:
               1
     1  N   -0.104776
     2  C    0.245181
     3  C    0.222277
     4  N   -0.125520
     5  C    0.135967
     6  N   -0.498609
     7  C    0.153652
     8  C   -0.028171
 APT charges:
               1
     1  N   -1.116826
     2  C   -0.080647
     3  C   -0.098972
     4  N   -1.151004
     5  C   -0.416021
     6  N   -0.203201
     7  C   -0.440100
     8  C   -0.487248
     9  H    0.516456
    10  H    0.667126
    11  H    0.667240
    12  H    0.514691
    13  H    0.513981
    14  H    0.601046
    15  H    0.513481
 Sum of APT charges =  -0.00000
 APT charges with hydrogens summed into heavy atoms:
               1
     1  N    0.066756
     2  C   -0.080647
     3  C   -0.098972
     4  N    0.030927
     5  C    0.097960
     6  N   -0.203201
     7  C    0.160946
     8  C    0.026232
 Electronic spatial extent (au):  <R**2>=            861.8597
 Charge=             -0.0000 electrons
 Dipole moment (field-independent basis, Debye):
    X=              4.4953    Y=              1.6375    Z=              0.1187  Tot=              4.7857
 Quadrupole moment (field-independent basis, Debye-Ang):
   XX=            -46.8621   YY=            -37.1646   ZZ=            -49.4756
   XY=             -4.3117   XZ=             -0.2100   YZ=             -4.4067
 Traceless Quadrupole moment (field-independent basis, Debye-Ang):
   XX=             -2.3613   YY=              7.3362   ZZ=             -4.9748
   XY=             -4.3117   XZ=             -0.2100   YZ=             -4.4067
 Octapole moment (field-independent basis, Debye-Ang**2):
  XXX=             37.4848  YYY=              2.4438  ZZZ=             -0.0720  XYY=             13.2770
  XXY=             12.6574  XXZ=              1.5336  XZZ=              3.5715  YZZ=             -0.3374
  YYZ=             -0.2911  XYZ=             -9.6515
 Hexadecapole moment (field-independent basis, Debye-Ang**3):
 XXXX=           -601.7874 YYYY=           -352.1937 ZZZZ=            -51.5940 XXXY=            -32.3595
 XXXZ=             -0.8994 YYYX=             -4.8519 YYYZ=            -18.0258 ZZZX=              0.1388
 ZZZY=             -4.2451 XXYY=           -169.0227 XXZZ=           -117.4153 YYZZ=            -88.0487
 XXYZ=            -20.3882 YYXZ=             -0.8109 ZZXY=              0.7053
 N-N= 3.531835143735D+02 E-N=-1.540878044735D+03  KE= 3.555939070222D+02
  Exact polarizability:   0.000   0.000   0.000   0.000   0.000   0.000
 Approx polarizability: 158.589   2.278 142.135   0.182   3.154  44.422
 D2PCM: PCM CHGder 2nd derivatives, FixD1E=F FixD2E=F DoIter=F DoCFld=F I1PDM=0
 Calling FoFJK, ICntrl=    100147 FMM=F ISym2X=0 I1Cent= 0 IOpClX= 0 NMat=1 NMatS=1 NMatT=0.
 ***** Axes restored to original set *****
 -------------------------------------------------------------------
 Center     Atomic                   Forces (Hartrees/Bohr)
 Number     Number              X              Y              Z
 -------------------------------------------------------------------
      1        7           0.007209874    0.015177913   -0.005567762
      2        6          -0.016692480   -0.019918656    0.013754608
      3        6          -0.001245634    0.011074150   -0.013866713
      4        7           0.002498926   -0.010601844    0.003165443
      5        6           0.015827013   -0.005847876    0.004675978
      6        7          -0.010044965   -0.003389983   -0.001112869
      7        6           0.008457341    0.010704888    0.001125031
      8        6           0.006062830    0.003407394   -0.003345863
      9        1          -0.001938576   -0.007594432   -0.000639388
     10        1          -0.001845539    0.001799492    0.000856640
     11        1          -0.002242819   -0.002037085   -0.000486469
     12        1          -0.000356014    0.008367286    0.001788179
     13        1          -0.003881835    0.003043310    0.001054124
     14        1           0.000196440   -0.002585708    0.000049013
     15        1          -0.002004562   -0.001598848   -0.001449952
 -------------------------------------------------------------------
 Cartesian Forces:  Max     0.019918656 RMS     0.007428215
 FormGI is forming the generalized inverse of G from B-inverse, IUseBI=4.

 GradGradGradGradGradGradGradGradGradGradGradGradGradGradGradGradGradGrad
 Berny optimization.
 Internal  Forces:  Max     0.009598527 RMS     0.003545803
 Search for a local minimum.
 Step number   1 out of a maximum of   75
 All quantities printed in internal units (Hartrees-Bohrs-Radians)
 Mixed Optimization -- RFO/linear search
 Second derivative matrix not updated -- analytic derivatives used.
 ITU=  0
     Eigenvalues ---    0.00358   0.00771   0.01678   0.01880   0.02122
     Eigenvalues ---    0.02377   0.02479   0.02851   0.03000   0.03283
     Eigenvalues ---    0.03510   0.03641   0.11239   0.12760   0.13244
     Eigenvalues ---    0.13919   0.14397   0.15943   0.16321   0.18982
     Eigenvalues ---    0.19936   0.21717   0.22363   0.22799   0.32480
     Eigenvalues ---    0.35497   0.35670   0.36630   0.37637   0.38851
     Eigenvalues ---    0.43765   0.44329   0.44531   0.45559   0.45682
     Eigenvalues ---    0.45913   0.48645   0.49382   0.53343
 RFO step:  Lambda=-6.65665013D-03 EMin= 3.58351359D-03
 Linear search not attempted -- first point.
 Iteration  1 RMS(Cart)=  0.05446656 RMS(Int)=  0.00306915
 Iteration  2 RMS(Cart)=  0.00339872 RMS(Int)=  0.00080845
 Iteration  3 RMS(Cart)=  0.00001011 RMS(Int)=  0.00080841
 Iteration  4 RMS(Cart)=  0.00000001 RMS(Int)=  0.00080841
 Variable       Old X    -DE/DX   Delta X   Delta X   Delta X     New X
                                 (Linear)    (Quad)   (Total)
    R1        2.67361  -0.00721   0.00000  -0.04615  -0.04615   2.62746
    R2        1.92582  -0.00274   0.00000  -0.00819  -0.00819   1.91763
    R3        1.91947  -0.00209   0.00000  -0.00562  -0.00562   1.91385
    R4        2.65624   0.00608   0.00000   0.02071   0.02065   2.67689
    R5        2.63222   0.00570   0.00000   0.00996   0.00997   2.64219
    R6        2.66988  -0.00243   0.00000  -0.01641  -0.01641   2.65347
    R7        2.63211   0.00430   0.00000   0.00511   0.00500   2.63711
    R8        1.92016  -0.00231   0.00000  -0.00406  -0.00406   1.91610
    R9        1.92575  -0.00311   0.00000  -0.00553  -0.00553   1.92022
   R10        2.55823  -0.00728   0.00000  -0.01891  -0.01894   2.53929
   R11        2.05162   0.00259   0.00000   0.00842   0.00842   2.06005
   R12        2.54953  -0.00605   0.00000  -0.01785  -0.01777   2.53175
   R13        2.61907   0.00607   0.00000   0.01442   0.01451   2.63358
   R14        2.05277   0.00146   0.00000   0.00400   0.00400   2.05677
   R15        2.04692   0.00164   0.00000   0.00567   0.00567   2.05258
    A1        1.91337   0.00960   0.00000   0.06540   0.06384   1.97720
    A2        1.96347   0.00046   0.00000   0.02982   0.02827   1.99174
    A3        1.93330  -0.00520   0.00000  -0.00158  -0.00405   1.92926
    A4        2.09357  -0.00082   0.00000  -0.01157  -0.01271   2.08086
    A5        2.09945   0.00824   0.00000   0.04924   0.04837   2.14781
    A6        2.07759  -0.00698   0.00000  -0.02372  -0.02561   2.05198
    A7        2.09748  -0.00081   0.00000  -0.01612  -0.01702   2.08046
    A8        2.04061   0.00115   0.00000   0.01647   0.01483   2.05544
    A9        2.13195   0.00004   0.00000   0.01292   0.01212   2.14407
   A10        1.96268   0.00029   0.00000   0.01035   0.01014   1.97282
   A11        1.91071   0.00869   0.00000   0.04937   0.04915   1.95986
   A12        1.93463  -0.00578   0.00000  -0.02999  -0.03035   1.90427
   A13        2.17312   0.00192   0.00000   0.00469   0.00412   2.17724
   A14        2.11059  -0.00527   0.00000  -0.03718  -0.03693   2.07366
   A15        1.99923   0.00335   0.00000   0.03274   0.03300   2.03223
   A16        2.02934   0.00249   0.00000   0.00673   0.00618   2.03552
   A17        2.16291  -0.00119   0.00000  -0.00369  -0.00399   2.15892
   A18        2.01052   0.00279   0.00000   0.02355   0.02369   2.03422
   A19        2.10972  -0.00160   0.00000  -0.01987  -0.01972   2.09001
   A20        2.06744   0.00302   0.00000   0.01749   0.01712   2.08457
   A21        2.12038  -0.00364   0.00000  -0.02374  -0.02354   2.09684
   A22        2.09507   0.00062   0.00000   0.00626   0.00642   2.10149
    D1        0.65164  -0.00007   0.00000  -0.00294  -0.00442   0.64722
    D2       -2.66131   0.00228   0.00000   0.08888   0.08861  -2.57270
    D3        2.81107   0.00061   0.00000   0.06420   0.06446   2.87554
    D4       -0.50188   0.00296   0.00000   0.15602   0.15749  -0.34438
    D5       -0.14205   0.00309   0.00000   0.06709   0.06528  -0.07677
    D6       -3.11388   0.00063   0.00000  -0.01922  -0.02092  -3.13481
    D7       -3.11442  -0.00071   0.00000  -0.03073  -0.02989   3.13887
    D8        0.19693  -0.00317   0.00000  -0.11703  -0.11609   0.08083
    D9       -3.11181  -0.00080   0.00000  -0.01028  -0.01147  -3.12327
   D10        0.05587  -0.00061   0.00000  -0.01101  -0.01203   0.04384
   D11       -0.14002   0.00210   0.00000   0.08181   0.08122  -0.05879
   D12        3.02765   0.00230   0.00000   0.08108   0.08067   3.10832
   D13        2.81278   0.00006   0.00000   0.08783   0.08807   2.90085
   D14        0.65415   0.00095   0.00000   0.08308   0.08306   0.73720
   D15       -0.50769   0.00276   0.00000   0.17891   0.17893  -0.32876
   D16       -2.66632   0.00364   0.00000   0.17417   0.17392  -2.49240
   D17       -0.14286   0.00168   0.00000   0.08869   0.08936  -0.05351
   D18        3.02345   0.00177   0.00000   0.07494   0.07591   3.09936
   D19       -3.11109  -0.00075   0.00000   0.00358   0.00281  -3.10828
   D20        0.05522  -0.00066   0.00000  -0.01018  -0.01063   0.04459
   D21        0.02288  -0.00056   0.00000  -0.02436  -0.02401  -0.00113
   D22        3.14116  -0.00076   0.00000  -0.01226  -0.01173   3.12943
   D23        0.04371  -0.00040   0.00000  -0.01675  -0.01677   0.02694
   D24       -3.10577  -0.00032   0.00000  -0.01772  -0.01838  -3.12415
   D25        0.01627   0.00004   0.00000  -0.01134  -0.01222   0.00405
   D26        3.13217  -0.00022   0.00000  -0.01109  -0.01212   3.12005
   D27       -3.11701  -0.00007   0.00000  -0.01051  -0.01075  -3.12776
   D28       -0.00111  -0.00032   0.00000  -0.01025  -0.01065  -0.01176
         Item               Value     Threshold  Converged?
 Maximum Force            0.009599     0.000450     NO 
 RMS     Force            0.003546     0.000300     NO 
 Maximum Displacement     0.237325     0.001800     NO 
 RMS     Displacement     0.054719     0.001200     NO 
 Predicted change in Energy=-3.935705D-03
 GradGradGradGradGradGradGradGradGradGradGradGradGradGradGradGradGradGrad

                          Input orientation:                          
 ---------------------------------------------------------------------
 Center     Atomic      Atomic             Coordinates (Angstroms)
 Number     Number       Type             X           Y           Z
 ---------------------------------------------------------------------
      1          7           0       -1.592724   -1.234626   -0.132178
      2          6           0       -0.343565   -0.627439   -0.068033
      3          6           0       -0.264882    0.782235    0.047038
      4          7           0       -1.445819    1.540401   -0.000068
      5          6           0        1.004099    1.360356    0.100661
      6          7           0        2.158899    0.673358    0.110033
      7          6           0        2.063388   -0.662233    0.065359
      8          6           0        0.853419   -1.348446   -0.020045
      9          1           0       -2.272823   -0.698203   -0.660827
     10          1           0       -1.570133   -2.194805   -0.453495
     11          1           0       -1.315535    2.497306    0.308902
     12          1           0       -2.197413    1.116921    0.536869
     13          1           0        1.085035    2.446403    0.148959
     14          1           0        2.998872   -1.217991    0.089967
     15          1           0        0.839184   -2.433236   -0.073140
 ---------------------------------------------------------------------
                    Distance matrix (angstroms):
                    1          2          3          4          5
     1  N    0.000000
     2  C    1.390392   0.000000
     3  C    2.421365   1.416550   0.000000
     4  N    2.782051   2.432923   1.404154   0.000000
     5  C    3.678538   2.407486   1.395498   2.458590   0.000000
     6  N    4.215892   2.825970   2.427043   3.709161   1.343732
     7  C    3.705916   2.410897   2.740012   4.143720   2.283464
     8  C    2.451356   1.398186   2.407260   3.692199   2.715674
     9  H    1.014767   2.019518   2.593183   2.476265   3.944078
    10  H    1.012768   2.027236   3.288918   3.764680   4.424131
    11  H    3.768116   3.294061   2.028278   1.013954   2.591664
    12  H    2.518540   2.616382   2.021540   1.016134   3.240250
    13  H    4.560637   3.396541   2.145256   2.692262   1.090129
    14  H    4.596997   3.397881   3.828164   5.231836   3.259924
    15  H    2.711887   2.158662   3.401860   4.584361   3.801150
                    6          7          8          9         10
     6  N    0.000000
     7  C    1.339747   0.000000
     8  C    2.410164   1.393631   0.000000
     9  H    4.702719   4.396745   3.256809   0.000000
    10  H    4.738101   3.977494   2.603422   1.666307   0.000000
    11  H    3.929125   4.632398   4.427457   3.473910   4.760460
    12  H    4.399590   4.641351   3.961788   2.175969   3.513095
    13  H    2.073255   3.260028   3.805666   4.671137   5.380863
    14  H    2.069579   1.088394   2.152229   5.350200   4.703756
    15  H    3.380255   2.157384   1.086181   3.611136   2.450781
                   11         12         13         14         15
    11  H    0.000000
    12  H    1.653826   0.000000
    13  H    2.406430   3.562648   0.000000
    14  H    5.697847   5.714273   4.134494   0.000000
    15  H    5.394349   4.711332   4.890874   2.483480   0.000000
 Stoichiometry    C5H7N3
 Framework group  C1[X(C5H7N3)]
 Deg. of freedom    39
 Full point group                 C1      NOp   1
 Largest Abelian subgroup         C1      NOp   1
 Largest concise Abelian subgroup C1      NOp   1
                         Standard orientation:                         
 ---------------------------------------------------------------------
 Center     Atomic      Atomic             Coordinates (Angstroms)
 Number     Number       Type             X           Y           Z
 ---------------------------------------------------------------------
      1          7           0        1.697315    1.415816    0.033340
      2          6           0        0.491796    0.723997   -0.002703
      3          6           0        0.506692   -0.692440    0.007205
      4          7           0        1.738389   -1.364942   -0.040870
      5          6           0       -0.720183   -1.355868   -0.038131
      6          7           0       -1.919367   -0.749626   -0.031584
      7          6           0       -1.915167    0.588957    0.024093
      8          6           0       -0.753349    1.358395    0.042858
      9          1           0        2.433710    0.966686   -0.501224
     10          1           0        1.620981    2.393693   -0.218909
     11          1           0        1.662608   -2.348781    0.192413
     12          1           0        2.436586   -0.933819    0.558450
     13          1           0       -0.727338   -2.445459   -0.071625
     14          1           0       -2.887236    1.078029    0.046296
     15          1           0       -0.812400    2.442667    0.068472
 ---------------------------------------------------------------------
 Rotational constants (GHZ):           3.3822606           2.2458968           1.3550963
 Standard basis: 6-31G(d,p) (6D, 7F)
 There are   155 symmetry adapted cartesian basis functions of A   symmetry.
 There are   155 symmetry adapted basis functions of A   symmetry.
   155 basis functions,   273 primitive gaussians,   155 cartesian basis functions
    29 alpha electrons       29 beta electrons
       nuclear repulsion energy       353.5333343362 Hartrees.
 NAtoms=   15 NActive=   15 NUniq=   15 SFac= 1.00D+00 NAtFMM=   60 NAOKFM=F Big=F
 Integral buffers will be    131072 words long.
 Raffenetti 2 integral format.
 Two-electron integral symmetry is turned on.
 ------------------------------------------------------------------------------
 Polarizable Continuum Model (PCM)
 =================================
 Model                : PCM.
 Atomic radii         : UFF (Universal Force Field).
 Polarization charges : Total charges.
 Charge compensation  : None.
 Solution method      : Matrix inversion.
 Cavity type          : Scaled VdW (van der Waals Surface) (Alpha=1.100).
 Cavity algorithm     : GePol (No added spheres)
                        Default sphere list used, NSphG=   15.
                        Lebedev-Laikov grids with approx.  5.0 points / Ang**2.
                        Smoothing algorithm: York/Karplus (Gamma=1.0000).
                        Polarization charges: spherical gaussians, with
                                              point-specific exponents (IZeta= 3).
                        Self-potential: point-specific (ISelfS= 7).
                        Self-field    : sphere-specific E.n sum rule (ISelfD= 2).
 1st derivatives      : Analytical E(r).r(x)/FMM algorithm (CHGder, D1EAlg=3).
                        Cavity 1st derivative terms included.
 Solvent              : Water, Eps=  78.355300 Eps(inf)=   1.777849
 ------------------------------------------------------------------------------
 Spheres list:
 ISph  on   Nord     Re0    Alpha      Xe            Ye            Ze
    1   N      1    1.8300  1.100      1.697315      1.415816      0.033340
    2   C      2    1.9255  1.100      0.491796      0.723997     -0.002703
    3   C      3    1.9255  1.100      0.506692     -0.692440      0.007205
    4   N      4    1.8300  1.100      1.738389     -1.364942     -0.040870
    5   C      5    1.9255  1.100     -0.720183     -1.355868     -0.038131
    6   N      6    1.8300  1.100     -1.919367     -0.749626     -0.031584
    7   C      7    1.9255  1.100     -1.915167      0.588957      0.024093
    8   C      8    1.9255  1.100     -0.753349      1.358395      0.042858
    9   H      9    1.4430  1.100      2.433710      0.966686     -0.501224
   10   H     10    1.4430  1.100      1.620981      2.393693     -0.218909
   11   H     11    1.4430  1.100      1.662608     -2.348781      0.192413
   12   H     12    1.4430  1.100      2.436586     -0.933819      0.558450
   13   H     13    1.4430  1.100     -0.727338     -2.445459     -0.071625
   14   H     14    1.4430  1.100     -2.887236      1.078029      0.046296
   15   H     15    1.4430  1.100     -0.812400      2.442667      0.068472
 ------------------------------------------------------------------------------
 One-electron integrals computed using PRISM.
 NBasis=   155 RedAO= T EigKep=  6.29D-04  NBF=   155
 NBsUse=   155 1.00D-06 EigRej= -1.00D+00 NBFU=   155
 Initial guess from the checkpoint file:  "OYTKINVCDFNREN-UHFFFAOYSA-N_conf_0_0.chk"
 B after Tr=     0.000000   -0.000000   -0.000000
         Rot=    0.999992   -0.000770    0.000263    0.003918 Ang=  -0.46 deg.
 ExpMin= 1.61D-01 ExpMax= 4.17D+03 ExpMxC= 6.27D+02 IAcc=2 IRadAn=         4 AccDes= 0.00D+00
 Harris functional with IExCor=  402 and IRadAn=       4 diagonalized for initial guess.
 HarFok:  IExCor=  402 AccDes= 0.00D+00 IRadAn=         4 IDoV= 1 UseB2=F ITyADJ=14
 ICtDFT=  3500011 ScaDFX=  1.000000  1.000000  1.000000  1.000000
 FoFCou: FMM=F IPFlag=           0 FMFlag=      100000 FMFlg1=           0
         NFxFlg=           0 DoJE=T BraDBF=F KetDBF=T FulRan=T
         wScrn=  0.000000 ICntrl=       500 IOpCl=  0 I1Cent=   200000004 NGrid=           0
         NMat0=    1 NMatS0=      1 NMatT0=    0 NMatD0=    1 NMtDS0=    0 NMtDT0=    0
 Petite list used in FoFCou.
 Keep R1 ints in memory in canonical form, NReq=75050402.
 Requested convergence on RMS density matrix=1.00D-08 within  32 cycles.
 Requested convergence on MAX density matrix=1.00D-06.
 Requested convergence on             energy=1.00D-06.
 No special actions if energy rises.
 Inv3:  Mode=1 IEnd=     4687500.
 Iteration    1 A*A^-1 deviation from unit magnitude is 5.33D-15 for    862.
 Iteration    1 A*A^-1 deviation from orthogonality  is 2.90D-15 for    845    499.
 Iteration    1 A^-1*A deviation from unit magnitude is 5.55D-15 for   1086.
 Iteration    1 A^-1*A deviation from orthogonality  is 2.96D-15 for   1167    904.
 Error on total polarization charges =  0.00668
 SCF Done:  E(RB3LYP) =  -359.024779751     A.U. after   11 cycles
            NFock= 11  Conv=0.31D-08     -V/T= 2.0096
 QCSCF skips out because SCF is already converged.
 D1PCM: PCM CHGder 1st derivatives, ID1Alg=3 FixD1E=F DoIter=F DoCFld=F I1PDM=0.
 Calling FoFJK, ICntrl=      2127 FMM=F ISym2X=0 I1Cent= 0 IOpClX= 0 NMat=1 NMatS=1 NMatT=0.
 ***** Axes restored to original set *****
 -------------------------------------------------------------------
 Center     Atomic                   Forces (Hartrees/Bohr)
 Number     Number              X              Y              Z
 -------------------------------------------------------------------
      1        7          -0.000664030    0.000630177   -0.001875656
      2        6           0.000353724   -0.000582298    0.003618033
      3        6           0.000331021    0.000739192   -0.003558296
      4        7          -0.000778704   -0.001196382    0.000871006
      5        6           0.000526787    0.000116769    0.001965941
      6        7           0.000001631    0.000065229   -0.000405010
      7        6           0.000328895   -0.000034646    0.000314385
      8        6           0.000692614    0.000017664   -0.001542070
      9        1          -0.000488526   -0.000682380   -0.000064888
     10        1          -0.000202430   -0.000417958    0.000728893
     11        1           0.000088118    0.000343166   -0.000772074
     12        1           0.000073389    0.001099771    0.000672207
     13        1          -0.000198020    0.000087718    0.000247190
     14        1          -0.000022683   -0.000140384    0.000044475
     15        1          -0.000041788   -0.000045637   -0.000244136
 -------------------------------------------------------------------
 Cartesian Forces:  Max     0.003618033 RMS     0.001005014

 GradGradGradGradGradGradGradGradGradGradGradGradGradGradGradGradGradGrad
 Berny optimization.
 Using GEDIIS/GDIIS optimizer.
 FormGI is forming the generalized inverse of G from B-inverse, IUseBI=4.
 Internal  Forces:  Max     0.001477130 RMS     0.000506430
 Search for a local minimum.
 Step number   2 out of a maximum of   75
 All quantities printed in internal units (Hartrees-Bohrs-Radians)
 Mixed Optimization -- En-DIIS/RFO-DIIS
 Update second derivatives using D2CorX and points    1    2
 DE= -3.94D-03 DEPred=-3.94D-03 R= 1.00D+00
 TightC=F SS=  1.41D+00  RLast= 4.27D-01 DXNew= 5.0454D-01 1.2817D+00
 Trust test= 1.00D+00 RLast= 4.27D-01 DXMaxT set to 5.05D-01
 ITU=  1  0
 Use linear search instead of GDIIS.
     Eigenvalues ---    0.00358   0.00792   0.01676   0.01871   0.02103
     Eigenvalues ---    0.02363   0.02487   0.02845   0.03000   0.03278
     Eigenvalues ---    0.03509   0.03644   0.11235   0.12731   0.13231
     Eigenvalues ---    0.13885   0.14300   0.15831   0.16094   0.18900
     Eigenvalues ---    0.19952   0.21762   0.22359   0.22825   0.32506
     Eigenvalues ---    0.35522   0.35676   0.36637   0.37858   0.38891
     Eigenvalues ---    0.43675   0.44282   0.44509   0.45513   0.45679
     Eigenvalues ---    0.45707   0.48721   0.49417   0.53282
 RFO step:  Lambda=-4.84957582D-04 EMin= 3.58442382D-03
 Quartic linear search produced a step of  0.22554.
 Iteration  1 RMS(Cart)=  0.04636144 RMS(Int)=  0.00275419
 Iteration  2 RMS(Cart)=  0.00279471 RMS(Int)=  0.00027751
 Iteration  3 RMS(Cart)=  0.00001003 RMS(Int)=  0.00027741
 Iteration  4 RMS(Cart)=  0.00000000 RMS(Int)=  0.00027741
 Variable       Old X    -DE/DX   Delta X   Delta X   Delta X     New X
                                 (Linear)    (Quad)   (Total)
    R1        2.62746   0.00148  -0.01041   0.00708  -0.00333   2.62413
    R2        1.91763   0.00000  -0.00185   0.00132  -0.00053   1.91710
    R3        1.91385   0.00016  -0.00127   0.00050  -0.00077   1.91309
    R4        2.67689   0.00104   0.00466  -0.00254   0.00205   2.67894
    R5        2.64219   0.00071   0.00225  -0.00182   0.00041   2.64260
    R6        2.65347   0.00063  -0.00370   0.00443   0.00073   2.65419
    R7        2.63711   0.00052   0.00113  -0.00256  -0.00149   2.63562
    R8        1.91610   0.00010  -0.00092   0.00122   0.00031   1.91640
    R9        1.92022  -0.00015  -0.00125   0.00249   0.00124   1.92145
   R10        2.53929   0.00013  -0.00427   0.00587   0.00161   2.54090
   R11        2.06005   0.00008   0.00190  -0.00146   0.00044   2.06049
   R12        2.53175   0.00013  -0.00401   0.00386  -0.00007   2.53168
   R13        2.63358   0.00018   0.00327  -0.00211   0.00122   2.63481
   R14        2.05677   0.00005   0.00090  -0.00065   0.00025   2.05702
   R15        2.05258   0.00006   0.00128  -0.00113   0.00015   2.05274
    A1        1.97720   0.00127   0.01440  -0.00546   0.00836   1.98556
    A2        1.99174   0.00028   0.00638   0.00457   0.01038   2.00212
    A3        1.92926  -0.00043  -0.00091   0.01779   0.01601   1.94527
    A4        2.08086   0.00052  -0.00287  -0.00211  -0.00524   2.07562
    A5        2.14781  -0.00011   0.01091  -0.00380   0.00689   2.15470
    A6        2.05198  -0.00037  -0.00578   0.00649  -0.00006   2.05192
    A7        2.08046   0.00063  -0.00384  -0.00591  -0.00994   2.07052
    A8        2.05544  -0.00011   0.00334  -0.00039   0.00221   2.05766
    A9        2.14407  -0.00048   0.00273   0.00689   0.00947   2.15354
   A10        1.97282  -0.00006   0.00229  -0.00151   0.00072   1.97354
   A11        1.95986   0.00091   0.01109  -0.00672   0.00431   1.96417
   A12        1.90427  -0.00045  -0.00685   0.01070   0.00376   1.90804
   A13        2.17724   0.00016   0.00093  -0.00111  -0.00049   2.17675
   A14        2.07366  -0.00029  -0.00833   0.00776  -0.00045   2.07322
   A15        2.03223   0.00012   0.00744  -0.00657   0.00099   2.03322
   A16        2.03552   0.00011   0.00139  -0.00140  -0.00024   2.03528
   A17        2.15892  -0.00004  -0.00090   0.00230   0.00128   2.16020
   A18        2.03422   0.00015   0.00534  -0.00474   0.00066   2.03488
   A19        2.09001  -0.00011  -0.00445   0.00245  -0.00194   2.08807
   A20        2.08457   0.00030   0.00386  -0.00410  -0.00045   2.08412
   A21        2.09684  -0.00021  -0.00531   0.00546   0.00025   2.09709
   A22        2.10149  -0.00009   0.00145  -0.00122   0.00032   2.10181
    D1        0.64722  -0.00028  -0.00100  -0.01728  -0.01872   0.62850
    D2       -2.57270   0.00041   0.01999  -0.00804   0.01180  -2.56090
    D3        2.87554   0.00050   0.01454   0.00698   0.02167   2.89720
    D4       -0.34438   0.00119   0.03552   0.01622   0.05218  -0.29220
    D5       -0.07677   0.00041   0.01472  -0.01164   0.00245  -0.07432
    D6       -3.13481  -0.00019  -0.00472  -0.01966  -0.02486   3.12352
    D7        3.13887  -0.00024  -0.00674  -0.01994  -0.02661   3.11226
    D8        0.08083  -0.00084  -0.02618  -0.02796  -0.05392   0.02692
    D9       -3.12327  -0.00011  -0.00259   0.00844   0.00541  -3.11786
   D10        0.04384  -0.00019  -0.00271   0.00235  -0.00071   0.04313
   D11       -0.05879   0.00061   0.01832   0.01719   0.03532  -0.02347
   D12        3.10832   0.00052   0.01819   0.01110   0.02920   3.13752
   D13        2.90085   0.00058   0.01986   0.11872   0.13865   3.03950
   D14        0.73720   0.00050   0.01873   0.11088   0.12960   0.86681
   D15       -0.32876   0.00123   0.04036   0.12676   0.16712  -0.16163
   D16       -2.49240   0.00116   0.03923   0.11891   0.15807  -2.33433
   D17       -0.05351   0.00063   0.02015   0.02577   0.04606  -0.00745
   D18        3.09936   0.00053   0.01712   0.01697   0.03437   3.13373
   D19       -3.10828  -0.00005   0.00063   0.01811   0.01837  -3.08991
   D20        0.04459  -0.00014  -0.00240   0.00931   0.00668   0.05127
   D21       -0.00113  -0.00016  -0.00541  -0.00968  -0.01502  -0.01615
   D22        3.12943  -0.00007  -0.00265  -0.00099  -0.00358   3.12585
   D23        0.02694  -0.00010  -0.00378  -0.00293  -0.00669   0.02024
   D24       -3.12415  -0.00010  -0.00415  -0.00112  -0.00543  -3.12958
   D25        0.00405  -0.00013  -0.00276  -0.00153  -0.00451  -0.00046
   D26        3.12005  -0.00005  -0.00273   0.00468   0.00163   3.12168
   D27       -3.12776  -0.00013  -0.00242  -0.00337  -0.00582  -3.13358
   D28       -0.01176  -0.00005  -0.00240   0.00284   0.00032  -0.01144
         Item               Value     Threshold  Converged?
 Maximum Force            0.001477     0.000450     NO 
 RMS     Force            0.000506     0.000300     NO 
 Maximum Displacement     0.266230     0.001800     NO 
 RMS     Displacement     0.046594     0.001200     NO 
 Predicted change in Energy=-3.953041D-04
 GradGradGradGradGradGradGradGradGradGradGradGradGradGradGradGradGradGrad

                          Input orientation:                          
 ---------------------------------------------------------------------
 Center     Atomic      Atomic             Coordinates (Angstroms)
 Number     Number       Type             X           Y           Z
 ---------------------------------------------------------------------
      1          7           0       -1.591736   -1.237708   -0.133080
      2          6           0       -0.342516   -0.635302   -0.063486
      3          6           0       -0.267054    0.776119    0.045499
      4          7           0       -1.456918    1.520178   -0.012187
      5          6           0        0.997745    1.356893    0.136090
      6          7           0        2.155884    0.673795    0.135900
      7          6           0        2.065495   -0.660722    0.060341
      8          6           0        0.858399   -1.351371   -0.039350
      9          1           0       -2.276864   -0.699303   -0.652604
     10          1           0       -1.578971   -2.205528   -0.429795
     11          1           0       -1.316945    2.508290    0.168019
     12          1           0       -2.171658    1.161595    0.615846
     13          1           0        1.073001    2.441934    0.212972
     14          1           0        3.002863   -1.213988    0.071880
     15          1           0        0.849274   -2.434883   -0.116043
 ---------------------------------------------------------------------
                    Distance matrix (angstroms):
                    1          2          3          4          5
     1  N    0.000000
     2  C    1.388628   0.000000
     3  C    2.417058   1.417632   0.000000
     4  N    2.763824   2.427060   1.404539   0.000000
     5  C    3.675570   2.409350   1.394712   2.464552   0.000000
     6  N    4.215549   2.827630   2.426782   3.713574   1.344585
     7  C    3.707515   2.411327   2.739620   4.143547   2.283987
     8  C    2.454560   1.398403   2.408330   3.688797   2.717515
     9  H    1.014488   2.023082   2.589122   2.451233   3.946269
    10  H    1.012363   2.031898   3.291997   3.751024   4.432891
    11  H    3.768112   3.299285   2.029212   1.014117   2.585445
    12  H    2.579506   2.652564   2.025193   1.016790   3.211451
    13  H    4.556351   3.398455   2.144466   2.702003   1.090362
    14  H    4.599229   3.397758   3.827999   5.231862   3.260989
    15  H    2.718832   2.159077   3.403353   4.579500   3.803048
                    6          7          8          9         10
     6  N    0.000000
     7  C    1.339707   0.000000
     8  C    2.411530   1.394280   0.000000
     9  H    4.707058   4.400666   3.260544   0.000000
    10  H    4.749700   3.988583   2.612049   1.674937   0.000000
    11  H    3.927715   4.636285   4.435325   3.447248   4.758794
    12  H    4.381314   4.645739   3.990680   2.254546   3.575215
    13  H    2.074823   3.261106   3.807739   4.673134   5.389341
    14  H    2.070072   1.088529   2.151737   5.353998   4.714661
    15  H    3.381506   2.158229   1.086261   3.615643   2.459150
                   11         12         13         14         15
    11  H    0.000000
    12  H    1.656705   0.000000
    13  H    2.391289   3.511322   0.000000
    14  H    5.703099   5.719699   4.136428   0.000000
    15  H    5.404457   4.753562   4.893020   2.482709   0.000000
 Stoichiometry    C5H7N3
 Framework group  C1[X(C5H7N3)]
 Deg. of freedom    39
 Full point group                 C1      NOp   1
 Largest Abelian subgroup         C1      NOp   1
 Largest concise Abelian subgroup C1      NOp   1
                         Standard orientation:                         
 ---------------------------------------------------------------------
 Center     Atomic      Atomic             Coordinates (Angstroms)
 Number     Number       Type             X           Y           Z
 ---------------------------------------------------------------------
      1          7           0        1.696032    1.413583    0.043751
      2          6           0        0.489530    0.727172    0.005284
      3          6           0        0.506980   -0.690347    0.001308
      4          7           0        1.746751   -1.348009   -0.055074
      5          6           0       -0.717461   -1.357945   -0.015347
      6          7           0       -1.918871   -0.754203   -0.019739
      7          6           0       -1.917599    0.585120    0.012327
      8          6           0       -0.757853    1.358961    0.025557
      9          1           0        2.438786    0.964527   -0.481465
     10          1           0        1.629494    2.399174   -0.177745
     11          1           0        1.667564   -2.354421    0.041337
     12          1           0        2.406841   -0.995009    0.633064
     13          1           0       -0.720931   -2.448249   -0.026122
     14          1           0       -2.890526    1.073218    0.020445
     15          1           0       -0.820196    2.443405    0.033156
 ---------------------------------------------------------------------
 Rotational constants (GHZ):           3.3918164           2.2419086           1.3551596
 Standard basis: 6-31G(d,p) (6D, 7F)
 There are   155 symmetry adapted cartesian basis functions of A   symmetry.
 There are   155 symmetry adapted basis functions of A   symmetry.
   155 basis functions,   273 primitive gaussians,   155 cartesian basis functions
    29 alpha electrons       29 beta electrons
       nuclear repulsion energy       353.4962600667 Hartrees.
 NAtoms=   15 NActive=   15 NUniq=   15 SFac= 1.00D+00 NAtFMM=   60 NAOKFM=F Big=F
 Integral buffers will be    131072 words long.
 Raffenetti 2 integral format.
 Two-electron integral symmetry is turned on.
 ------------------------------------------------------------------------------
 Polarizable Continuum Model (PCM)
 =================================
 Model                : PCM.
 Atomic radii         : UFF (Universal Force Field).
 Polarization charges : Total charges.
 Charge compensation  : None.
 Solution method      : Matrix inversion.
 Cavity type          : Scaled VdW (van der Waals Surface) (Alpha=1.100).
 Cavity algorithm     : GePol (No added spheres)
                        Default sphere list used, NSphG=   15.
                        Lebedev-Laikov grids with approx.  5.0 points / Ang**2.
                        Smoothing algorithm: York/Karplus (Gamma=1.0000).
                        Polarization charges: spherical gaussians, with
                                              point-specific exponents (IZeta= 3).
                        Self-potential: point-specific (ISelfS= 7).
                        Self-field    : sphere-specific E.n sum rule (ISelfD= 2).
 1st derivatives      : Analytical E(r).r(x)/FMM algorithm (CHGder, D1EAlg=3).
                        Cavity 1st derivative terms included.
 Solvent              : Water, Eps=  78.355300 Eps(inf)=   1.777849
 ------------------------------------------------------------------------------
 Spheres list:
 ISph  on   Nord     Re0    Alpha      Xe            Ye            Ze
    1   N      1    1.8300  1.100      1.696032      1.413583      0.043751
    2   C      2    1.9255  1.100      0.489530      0.727172      0.005284
    3   C      3    1.9255  1.100      0.506980     -0.690347      0.001308
    4   N      4    1.8300  1.100      1.746751     -1.348009     -0.055074
    5   C      5    1.9255  1.100     -0.717461     -1.357945     -0.015347
    6   N      6    1.8300  1.100     -1.918871     -0.754203     -0.019739
    7   C      7    1.9255  1.100     -1.917599      0.585120      0.012327
    8   C      8    1.9255  1.100     -0.757853      1.358961      0.025557
    9   H      9    1.4430  1.100      2.438786      0.964527     -0.481465
   10   H     10    1.4430  1.100      1.629494      2.399174     -0.177745
   11   H     11    1.4430  1.100      1.667564     -2.354421      0.041337
   12   H     12    1.4430  1.100      2.406841     -0.995009      0.633064
   13   H     13    1.4430  1.100     -0.720931     -2.448249     -0.026122
   14   H     14    1.4430  1.100     -2.890526      1.073218      0.020445
   15   H     15    1.4430  1.100     -0.820196      2.443405      0.033156
 ------------------------------------------------------------------------------
 One-electron integrals computed using PRISM.
 NBasis=   155 RedAO= T EigKep=  6.11D-04  NBF=   155
 NBsUse=   155 1.00D-06 EigRej= -1.00D+00 NBFU=   155
 Initial guess from the checkpoint file:  "OYTKINVCDFNREN-UHFFFAOYSA-N_conf_0_0.chk"
 B after Tr=     0.000000    0.000000    0.000000
         Rot=    1.000000   -0.000483    0.000214   -0.000795 Ang=  -0.11 deg.
 ExpMin= 1.61D-01 ExpMax= 4.17D+03 ExpMxC= 6.27D+02 IAcc=2 IRadAn=         4 AccDes= 0.00D+00
 Harris functional with IExCor=  402 and IRadAn=       4 diagonalized for initial guess.
 HarFok:  IExCor=  402 AccDes= 0.00D+00 IRadAn=         4 IDoV= 1 UseB2=F ITyADJ=14
 ICtDFT=  3500011 ScaDFX=  1.000000  1.000000  1.000000  1.000000
 FoFCou: FMM=F IPFlag=           0 FMFlag=      100000 FMFlg1=           0
         NFxFlg=           0 DoJE=T BraDBF=F KetDBF=T FulRan=T
         wScrn=  0.000000 ICntrl=       500 IOpCl=  0 I1Cent=   200000004 NGrid=           0
         NMat0=    1 NMatS0=      1 NMatT0=    0 NMatD0=    1 NMtDS0=    0 NMtDT0=    0
 Petite list used in FoFCou.
 Keep R1 ints in memory in canonical form, NReq=75050402.
 Requested convergence on RMS density matrix=1.00D-08 within  32 cycles.
 Requested convergence on MAX density matrix=1.00D-06.
 Requested convergence on             energy=1.00D-06.
 No special actions if energy rises.
 Inv3:  Mode=1 IEnd=     4687500.
 Iteration    1 A*A^-1 deviation from unit magnitude is 6.00D-15 for    632.
 Iteration    1 A*A^-1 deviation from orthogonality  is 4.24D-15 for    765    123.
 Iteration    1 A^-1*A deviation from unit magnitude is 5.88D-15 for   1067.
 Iteration    1 A^-1*A deviation from orthogonality  is 2.24D-15 for   1017    422.
 Error on total polarization charges =  0.00668
 SCF Done:  E(RB3LYP) =  -359.025144054     A.U. after   10 cycles
            NFock= 10  Conv=0.69D-08     -V/T= 2.0096
 QCSCF skips out because SCF is already converged.
 D1PCM: PCM CHGder 1st derivatives, ID1Alg=3 FixD1E=F DoIter=F DoCFld=F I1PDM=0.
 Calling FoFJK, ICntrl=      2127 FMM=F ISym2X=0 I1Cent= 0 IOpClX= 0 NMat=1 NMatS=1 NMatT=0.
 ***** Axes restored to original set *****
 -------------------------------------------------------------------
 Center     Atomic                   Forces (Hartrees/Bohr)
 Number     Number              X              Y              Z
 -------------------------------------------------------------------
      1        7           0.000530574   -0.000316053   -0.000451150
      2        6          -0.000597022    0.000130524    0.000428389
      3        6           0.000505206   -0.000494598   -0.000619843
      4        7          -0.000837058    0.000460590    0.000127029
      5        6           0.000251741   -0.000013475    0.000107299
      6        7           0.000094252    0.000119705    0.000129974
      7        6          -0.000327368   -0.000035647    0.000023608
      8        6           0.000536000   -0.000217019   -0.000082673
      9        1          -0.000185943   -0.000077894    0.000235770
     10        1          -0.000065724   -0.000051888    0.000012682
     11        1           0.000075248   -0.000137226    0.000311294
     12        1           0.000012147    0.000619530   -0.000135056
     13        1          -0.000040956    0.000014633   -0.000120160
     14        1           0.000008101    0.000003858   -0.000000173
     15        1           0.000040802   -0.000005040    0.000033012
 -------------------------------------------------------------------
 Cartesian Forces:  Max     0.000837058 RMS     0.000304285

 GradGradGradGradGradGradGradGradGradGradGradGradGradGradGradGradGradGrad
 Berny optimization.
 Using GEDIIS/GDIIS optimizer.
 FormGI is forming the generalized inverse of G from B-inverse, IUseBI=4.
 Internal  Forces:  Max     0.001174054 RMS     0.000331113
 Search for a local minimum.
 Step number   3 out of a maximum of   75
 All quantities printed in internal units (Hartrees-Bohrs-Radians)
 Mixed Optimization -- En-DIIS/RFO-DIIS
 Swapping is turned off.
 Update second derivatives using D2CorX and points    2    3
 DE= -3.64D-04 DEPred=-3.95D-04 R= 9.22D-01
 TightC=F SS=  1.41D+00  RLast= 3.22D-01 DXNew= 8.4853D-01 9.6659D-01
 Trust test= 9.22D-01 RLast= 3.22D-01 DXMaxT set to 8.49D-01
 ITU=  1  1  0
     Eigenvalues ---    0.00358   0.00954   0.01670   0.01815   0.02029
     Eigenvalues ---    0.02317   0.02506   0.02861   0.03006   0.03274
     Eigenvalues ---    0.03509   0.03641   0.11231   0.12690   0.13189
     Eigenvalues ---    0.13850   0.14257   0.15669   0.16049   0.18848
     Eigenvalues ---    0.19873   0.21749   0.22345   0.22860   0.32469
     Eigenvalues ---    0.35521   0.35677   0.36636   0.37849   0.39015
     Eigenvalues ---    0.43673   0.44246   0.44512   0.45308   0.45587
     Eigenvalues ---    0.45698   0.48705   0.49396   0.53102
 En-DIIS/RFO-DIIS/Sim-DIIS IScMMF=       -3 using points:     3    2
 RFO step:  Lambda=-5.73886815D-05.
 DidBck=F Rises=F RFO-DIIS coefs:    1.00677   -0.00677
 Iteration  1 RMS(Cart)=  0.00903944 RMS(Int)=  0.00008814
 Iteration  2 RMS(Cart)=  0.00009255 RMS(Int)=  0.00001217
 Iteration  3 RMS(Cart)=  0.00000002 RMS(Int)=  0.00001217
 Variable       Old X    -DE/DX   Delta X   Delta X   Delta X     New X
                                 (Linear)    (Quad)   (Total)
    R1        2.62413  -0.00005  -0.00002  -0.00242  -0.00244   2.62169
    R2        1.91710  -0.00003  -0.00000  -0.00096  -0.00097   1.91614
    R3        1.91309   0.00005  -0.00001  -0.00036  -0.00037   1.91272
    R4        2.67894   0.00063   0.00001   0.00010   0.00011   2.67905
    R5        2.64260   0.00049   0.00000   0.00248   0.00248   2.64508
    R6        2.65419   0.00112   0.00000   0.00427   0.00427   2.65847
    R7        2.63562   0.00026  -0.00001   0.00096   0.00095   2.63658
    R8        1.91640  -0.00007   0.00000   0.00028   0.00028   1.91668
    R9        1.92145  -0.00031   0.00001  -0.00052  -0.00051   1.92094
   R10        2.54090  -0.00012   0.00001  -0.00100  -0.00099   2.53991
   R11        2.06049   0.00000   0.00000   0.00021   0.00021   2.06069
   R12        2.53168  -0.00007  -0.00000   0.00052   0.00052   2.53220
   R13        2.63481  -0.00023   0.00001  -0.00127  -0.00126   2.63355
   R14        2.05702   0.00001   0.00000   0.00007   0.00007   2.05710
   R15        2.05274   0.00000   0.00000   0.00003   0.00003   2.05277
    A1        1.98556   0.00036   0.00006   0.00660   0.00662   1.99219
    A2        2.00212   0.00007   0.00007   0.00296   0.00300   2.00512
    A3        1.94527  -0.00010   0.00011   0.00246   0.00252   1.94779
    A4        2.07562   0.00088  -0.00004   0.00621   0.00617   2.08179
    A5        2.15470  -0.00064   0.00005  -0.00402  -0.00398   2.15073
    A6        2.05192  -0.00024  -0.00000  -0.00203  -0.00203   2.04989
    A7        2.07052   0.00117  -0.00007   0.00658   0.00651   2.07703
    A8        2.05766  -0.00022   0.00001  -0.00005  -0.00005   2.05761
    A9        2.15354  -0.00095   0.00006  -0.00627  -0.00621   2.14733
   A10        1.97354  -0.00046   0.00000  -0.00654  -0.00654   1.96700
   A11        1.96417   0.00071   0.00003   0.00370   0.00372   1.96789
   A12        1.90804  -0.00035   0.00003  -0.00710  -0.00709   1.90095
   A13        2.17675   0.00027  -0.00000   0.00192   0.00192   2.17867
   A14        2.07322  -0.00018  -0.00000  -0.00233  -0.00233   2.07089
   A15        2.03322  -0.00009   0.00001   0.00040   0.00041   2.03363
   A16        2.03528  -0.00008  -0.00000  -0.00157  -0.00158   2.03370
   A17        2.16020   0.00015   0.00001   0.00039   0.00039   2.16060
   A18        2.03488  -0.00008   0.00000  -0.00002  -0.00002   2.03486
   A19        2.08807  -0.00007  -0.00001  -0.00036  -0.00037   2.08770
   A20        2.08412   0.00012  -0.00000   0.00149   0.00149   2.08560
   A21        2.09709  -0.00002   0.00000  -0.00101  -0.00101   2.09608
   A22        2.10181  -0.00010   0.00000  -0.00042  -0.00042   2.10140
    D1        0.62850  -0.00024  -0.00013  -0.02853  -0.02868   0.59983
    D2       -2.56090  -0.00020   0.00008  -0.02439  -0.02432  -2.58522
    D3        2.89720   0.00003   0.00015  -0.01569  -0.01553   2.88167
    D4       -0.29220   0.00006   0.00035  -0.01155  -0.01118  -0.30337
    D5       -0.07432   0.00004   0.00002   0.00258   0.00262  -0.07170
    D6        3.12352  -0.00003  -0.00017  -0.00224  -0.00240   3.12111
    D7        3.11226   0.00002  -0.00018  -0.00125  -0.00141   3.11085
    D8        0.02692  -0.00005  -0.00036  -0.00607  -0.00643   0.02048
    D9       -3.11786   0.00000   0.00004   0.00127   0.00133  -3.11653
   D10        0.04313  -0.00004  -0.00000  -0.00262  -0.00261   0.04052
   D11       -0.02347   0.00007   0.00024   0.00558   0.00582  -0.01765
   D12        3.13752   0.00002   0.00020   0.00169   0.00188   3.13940
   D13        3.03950  -0.00020   0.00094  -0.00858  -0.00763   3.03187
   D14        0.86681   0.00006   0.00088   0.00323   0.00410   0.87091
   D15       -0.16163  -0.00010   0.00113  -0.00323  -0.00210  -0.16373
   D16       -2.33433   0.00017   0.00107   0.00857   0.00964  -2.32469
   D17       -0.00745  -0.00001   0.00031   0.00318   0.00350  -0.00395
   D18        3.13373  -0.00001   0.00023   0.00018   0.00041   3.13414
   D19       -3.08991  -0.00016   0.00012  -0.00234  -0.00219  -3.09211
   D20        0.05127  -0.00016   0.00005  -0.00535  -0.00528   0.04598
   D21       -0.01615   0.00003  -0.00010   0.00045   0.00035  -0.01580
   D22        3.12585   0.00003  -0.00002   0.00339   0.00338   3.12923
   D23        0.02024  -0.00001  -0.00005  -0.00108  -0.00113   0.01912
   D24       -3.12958  -0.00002  -0.00004  -0.00070  -0.00074  -3.13032
   D25       -0.00046  -0.00004  -0.00003  -0.00204  -0.00207  -0.00253
   D26        3.12168   0.00000   0.00001   0.00185   0.00187   3.12355
   D27       -3.13358  -0.00003  -0.00004  -0.00243  -0.00248  -3.13606
   D28       -0.01144   0.00002   0.00000   0.00146   0.00146  -0.00998
         Item               Value     Threshold  Converged?
 Maximum Force            0.001174     0.000450     NO 
 RMS     Force            0.000331     0.000300     NO 
 Maximum Displacement     0.035074     0.001800     NO 
 RMS     Displacement     0.009069     0.001200     NO 
 Predicted change in Energy=-2.878155D-05
 GradGradGradGradGradGradGradGradGradGradGradGradGradGradGradGradGradGrad

                          Input orientation:                          
 ---------------------------------------------------------------------
 Center     Atomic      Atomic             Coordinates (Angstroms)
 Number     Number       Type             X           Y           Z
 ---------------------------------------------------------------------
      1          7           0       -1.588519   -1.247273   -0.135600
[...]
 Alpha virt. eigenvalues --    0.70329   0.72825   0.77181   0.80948   0.82067
 Alpha virt. eigenvalues --    0.83392   0.84449   0.85412   0.86262   0.86983
 Alpha virt. eigenvalues --    0.87645   0.89506   0.90859   0.94864   0.96969
 Alpha virt. eigenvalues --    0.99103   1.04313   1.05225   1.09557   1.13899
 Alpha virt. eigenvalues --    1.16495   1.20538   1.24655   1.26536   1.30969
 Alpha virt. eigenvalues --    1.34077   1.37277   1.38165   1.44805   1.47816
 Alpha virt. eigenvalues --    1.48026   1.56752   1.67589   1.71983   1.74908
 Alpha virt. eigenvalues --    1.77063   1.78596   1.80965   1.82871   1.87634
 Alpha virt. eigenvalues --    1.89905   1.91503   1.97475   1.99527   2.01650
 Alpha virt. eigenvalues --    2.04065   2.10842   2.12473   2.13564   2.18433
 Alpha virt. eigenvalues --    2.22859   2.24645   2.25860   2.30472   2.33005
 Alpha virt. eigenvalues --    2.33704   2.36146   2.38709   2.40669   2.41350
 Alpha virt. eigenvalues --    2.44043   2.46202   2.49148   2.50225   2.53169
 Alpha virt. eigenvalues --    2.56097   2.58335   2.63458   2.66834   2.69619
 Alpha virt. eigenvalues --    2.71237   2.74760   2.77241   2.81632   2.90481
 Alpha virt. eigenvalues --    2.96174   3.00249   3.01932   3.09606   3.19289
 Alpha virt. eigenvalues --    3.26070   3.28013   3.28853   3.33921   3.45815
 Alpha virt. eigenvalues --    3.48037   3.53135   3.75005   4.00653   4.08011
 Alpha virt. eigenvalues --    4.15238   4.16335   4.25853   4.38717   4.44897
 Alpha virt. eigenvalues --    4.73748
          Condensed to atoms (all electrons):
               1          2          3          4          5          6
     1  N    6.864709   0.259984  -0.075378  -0.016142   0.006999  -0.000104
     2  C    0.259984   4.885421   0.508891  -0.069188  -0.073544  -0.049570
     3  C   -0.075378   0.508891   4.893648   0.239866   0.409108  -0.002927
     4  N   -0.016142  -0.069188   0.239866   6.817800  -0.050593   0.004927
     5  C    0.006999  -0.073544   0.409108  -0.050593   5.077212   0.367497
     6  N   -0.000104  -0.049570  -0.002927   0.004927   0.367497   6.890263
     7  C    0.005048  -0.005822  -0.032679  -0.000272  -0.080934   0.439945
     8  C   -0.065406   0.399456  -0.048433   0.007597  -0.021362  -0.046208
     9  H    0.334697  -0.031848  -0.014460   0.011305   0.000226   0.000005
    10  H    0.334654  -0.029861   0.006878  -0.000015  -0.000072   0.000013
    11  H    0.000034   0.005755  -0.030091   0.341387  -0.006416   0.000011
    12  H    0.008094  -0.010967  -0.027679   0.331877   0.003616  -0.000120
    13  H   -0.000126   0.003900  -0.058776  -0.005547   0.378211  -0.047934
    14  H   -0.000116   0.002050   0.001352   0.000010   0.004015  -0.051294
    15  H   -0.008748  -0.042241   0.007018  -0.000076   0.000107   0.005594
               7          8          9         10         11         12
     1  N    0.005048  -0.065406   0.334697   0.334654   0.000034   0.008094
     2  C   -0.005822   0.399456  -0.031848  -0.029861   0.005755  -0.010967
     3  C   -0.032679  -0.048433  -0.014460   0.006878  -0.030091  -0.027679
     4  N   -0.000272   0.007597   0.011305  -0.000015   0.341387   0.331877
     5  C   -0.080934  -0.021362   0.000226  -0.000072  -0.006416   0.003616
     6  N    0.439945  -0.046208   0.000005   0.000013   0.000011  -0.000120
     7  C    4.772633   0.478682  -0.000148  -0.000015  -0.000010   0.000008
     8  C    0.478682   5.191275   0.005411  -0.007901  -0.000079  -0.000206
     9  H   -0.000148   0.005411   0.432885  -0.023048  -0.000240  -0.002839
    10  H   -0.000015  -0.007901  -0.023048   0.426586  -0.000001  -0.000199
    11  H   -0.000010  -0.000079  -0.000240  -0.000001   0.399092  -0.025400
    12  H    0.000008  -0.000206  -0.002839  -0.000199  -0.025400   0.413341
    13  H    0.004613   0.000848  -0.000007   0.000004   0.006896  -0.000169
    14  H    0.379694  -0.051817   0.000003  -0.000008  -0.000000  -0.000000
    15  H   -0.034660   0.355224  -0.000038   0.005707   0.000004  -0.000008
              13         14         15
     1  N   -0.000126  -0.000116  -0.008748
     2  C    0.003900   0.002050  -0.042241
     3  C   -0.058776   0.001352   0.007018
     4  N   -0.005547   0.000010  -0.000076
     5  C    0.378211   0.004015   0.000107
     6  N   -0.047934  -0.051294   0.005594
     7  C    0.004613   0.379694  -0.034660
     8  C    0.000848  -0.051817   0.355224
     9  H   -0.000007   0.000003  -0.000038
    10  H    0.000004  -0.000008   0.005707
    11  H    0.006896  -0.000000   0.000004
    12  H   -0.000169  -0.000000  -0.000008
    13  H    0.644615  -0.000251   0.000022
    14  H   -0.000251   0.626734  -0.003138
    15  H    0.000022  -0.003138   0.639563
 Mulliken charges:
               1
     1  N   -0.648199
     2  C    0.247584
     3  C    0.223663
     4  N   -0.612935
     5  C   -0.014070
     6  N   -0.510096
     7  C    0.073917
     8  C   -0.197083
     9  H    0.288096
    10  H    0.287278
    11  H    0.309058
    12  H    0.310651
    13  H    0.073702
    14  H    0.092767
    15  H    0.075669
 Sum of Mulliken charges =  -0.00000
 Mulliken charges with hydrogens summed into heavy atoms:
               1
     1  N   -0.072826
     2  C    0.247584
     3  C    0.223663
     4  N    0.006773
     5  C    0.059632
     6  N   -0.510096
     7  C    0.166684
     8  C   -0.121414
 Electronic spatial extent (au):  <R**2>=            860.3856
 Charge=             -0.0000 electrons
 Dipole moment (field-independent basis, Debye):
    X=              6.9200    Y=              0.6081    Z=              0.0456  Tot=              6.9469
 Quadrupole moment (field-independent basis, Debye-Ang):
   XX=            -43.7511   YY=            -37.0472   ZZ=            -49.7189
   XY=             -6.0866   XZ=              0.2854   YZ=             -3.1507
 Traceless Quadrupole moment (field-independent basis, Debye-Ang):
   XX=             -0.2453   YY=              6.4585   ZZ=             -6.2132
   XY=             -6.0866   XZ=              0.2854   YZ=             -3.1507
 Octapole moment (field-independent basis, Debye-Ang**2):
  XXX=             48.1267  YYY=             -1.3708  ZZZ=              0.2014  XYY=             23.3905
  XXY=              9.7166  XXZ=              1.2019  XZZ=              5.6579  YZZ=             -1.3568
  YYZ=             -1.3135  XYZ=             -7.3996
 Hexadecapole moment (field-independent basis, Debye-Ang**3):
 XXXX=           -587.8733 YYYY=           -353.3474 ZZZZ=            -51.4527 XXXY=            -39.4738
 XXXZ=              3.0220 YYYX=             -9.9106 YYYZ=             -9.3718 ZZZX=              1.0449
 ZZZY=             -3.1827 XXYY=           -157.0362 XXZZ=           -115.1113 YYZZ=            -90.0806
 XXYZ=            -16.9962 YYXZ=             -1.7072 ZZXY=             -1.1620
 N-N= 3.533616455022D+02 E-N=-1.541443394176D+03  KE= 3.557761699279D+02
 Evaluate density.
 Using the total density.
 Monte-Carlo method of calculating molar volume:
 based on  0.001 e/bohr**3 density envelope.
 Number of points per bohr**3 =   20 CutOff= 1.00D-04
 Using the CI density.
 There are       330 points.  Will hold       330 in memory.
 LenV=   536794262 MDV=   536870912.
 Box volume = 4502.494 fraction occupied=0.209
 Integrated density= 3.3863916977724344D+01 error=-2.4136083022275656D+01
 Molar volume =  941.431 bohr**3/mol ( 84.012 cm**3/mol)
 Recommended a0 for SCRF calculation =  4.04 angstrom (  7.64 bohr)
 ******************************Gaussian NBO Version 3.1******************************
             N A T U R A L   A T O M I C   O R B I T A L   A N D
          N A T U R A L   B O N D   O R B I T A L   A N A L Y S I S
 ******************************Gaussian NBO Version 3.1******************************
       /RESON  / : Allow strongly delocalized NBO set

 Analyzing the CI density

 Job title: OYTKINVCDFNREN-UHFFFAOYSA-N_conf_0                              

 Storage needed:     72920 in NPA ( 536869667 available)
 GSVD:  LWork=       15321 too small for GESVD, short by        1511 words or        1511 for optimal perf.


 NATURAL POPULATIONS:  Natural atomic orbital occupancies 
                                                          
   NAO  Atom  No  lang   Type(AO)    Occupancy
 --------------------------------------------
     1    N    1  S      Cor( 1S)     1.99950
     2    N    1  S      Val( 2S)     1.36522
     3    N    1  S      Ryd( 3S)     0.00030
     4    N    1  S      Ryd( 4S)     0.00001
     5    N    1  px     Val( 2p)     1.36267
     6    N    1  px     Ryd( 3p)     0.00268
     7    N    1  py     Val( 2p)     1.39510
     8    N    1  py     Ryd( 3p)     0.00202
     9    N    1  pz     Val( 2p)     1.65912
    10    N    1  pz     Ryd( 3p)     0.00489
    11    N    1  dxy    Ryd( 3d)     0.00037
    12    N    1  dxz    Ryd( 3d)     0.00106
    13    N    1  dyz    Ryd( 3d)     0.00075
    14    N    1  dx2y2  Ryd( 3d)     0.00046
    15    N    1  dz2    Ryd( 3d)     0.00073

    16    C    2  S      Cor( 1S)     1.99895
    17    C    2  S      Val( 2S)     0.83259
    18    C    2  S      Ryd( 3S)     0.00131
    19    C    2  S      Ryd( 4S)     0.00011
    20    C    2  px     Val( 2p)     0.96028
    21    C    2  px     Ryd( 3p)     0.00560
    22    C    2  py     Val( 2p)     1.02365
    23    C    2  py     Ryd( 3p)     0.00488
    24    C    2  pz     Val( 2p)     1.07258
    25    C    2  pz     Ryd( 3p)     0.00392
    26    C    2  dxy    Ryd( 3d)     0.00094
    27    C    2  dxz    Ryd( 3d)     0.00137
    28    C    2  dyz    Ryd( 3d)     0.00092
    29    C    2  dx2y2  Ryd( 3d)     0.00097
    30    C    2  dz2    Ryd( 3d)     0.00041

    31    C    3  S      Cor( 1S)     1.99890
    32    C    3  S      Val( 2S)     0.85919
    33    C    3  S      Ryd( 3S)     0.00148
    34    C    3  S      Ryd( 4S)     0.00009
    35    C    3  px     Val( 2p)     0.95558
    36    C    3  px     Ryd( 3p)     0.00506
    37    C    3  py     Val( 2p)     1.03995
    38    C    3  py     Ryd( 3p)     0.00376
    39    C    3  pz     Val( 2p)     1.02160
    40    C    3  pz     Ryd( 3p)     0.00227
    41    C    3  dxy    Ryd( 3d)     0.00098
    42    C    3  dxz    Ryd( 3d)     0.00121
    43    C    3  dyz    Ryd( 3d)     0.00124
    44    C    3  dx2y2  Ryd( 3d)     0.00104
    45    C    3  dz2    Ryd( 3d)     0.00042

    46    N    4  S      Cor( 1S)     1.99949
    47    N    4  S      Val( 2S)     1.39021
    48    N    4  S      Ryd( 3S)     0.00022
    49    N    4  S      Ryd( 4S)     0.00001
    50    N    4  px     Val( 2p)     1.37121
    51    N    4  px     Ryd( 3p)     0.00259
    52    N    4  py     Val( 2p)     1.40969
    53    N    4  py     Ryd( 3p)     0.00201
    54    N    4  pz     Val( 2p)     1.54253
    55    N    4  pz     Ryd( 3p)     0.00298
    56    N    4  dxy    Ryd( 3d)     0.00033
    57    N    4  dxz    Ryd( 3d)     0.00118
    58    N    4  dyz    Ryd( 3d)     0.00058
    59    N    4  dx2y2  Ryd( 3d)     0.00065
    60    N    4  dz2    Ryd( 3d)     0.00082

    61    C    5  S      Cor( 1S)     1.99915
    62    C    5  S      Val( 2S)     0.91538
    63    C    5  S      Ryd( 3S)     0.00178
    64    C    5  S      Ryd( 4S)     0.00010
    65    C    5  px     Val( 2p)     0.92536
    66    C    5  px     Ryd( 3p)     0.01119
    67    C    5  py     Val( 2p)     1.14284
    68    C    5  py     Ryd( 3p)     0.00429
    69    C    5  pz     Val( 2p)     1.11888
    70    C    5  pz     Ryd( 3p)     0.00811
    71    C    5  dxy    Ryd( 3d)     0.00087
    72    C    5  dxz    Ryd( 3d)     0.00092
    73    C    5  dyz    Ryd( 3d)     0.00043
    74    C    5  dx2y2  Ryd( 3d)     0.00125
    75    C    5  dz2    Ryd( 3d)     0.00033

    76    N    6  S      Cor( 1S)     1.99949
    77    N    6  S      Val( 2S)     1.37334
    78    N    6  S      Ryd( 3S)     0.00066
    79    N    6  S      Ryd( 4S)     0.00001
    80    N    6  px     Val( 2p)     1.53386
    81    N    6  px     Ryd( 3p)     0.00555
    82    N    6  py     Val( 2p)     1.34036
    83    N    6  py     Ryd( 3p)     0.00493
    84    N    6  pz     Val( 2p)     1.25174
    85    N    6  pz     Ryd( 3p)     0.00306
    86    N    6  dxy    Ryd( 3d)     0.00229
    87    N    6  dxz    Ryd( 3d)     0.00182
    88    N    6  dyz    Ryd( 3d)     0.00125
    89    N    6  dx2y2  Ryd( 3d)     0.00292
    90    N    6  dz2    Ryd( 3d)     0.00206

    91    C    7  S      Cor( 1S)     1.99923
    92    C    7  S      Val( 2S)     0.93634
    93    C    7  S      Ryd( 3S)     0.00152
    94    C    7  S      Ryd( 4S)     0.00009
    95    C    7  px     Val( 2p)     1.15522
    96    C    7  px     Ryd( 3p)     0.00616
    97    C    7  py     Val( 2p)     0.93107
    98    C    7  py     Ryd( 3p)     0.01008
    99    C    7  pz     Val( 2p)     0.92162
   100    C    7  pz     Ryd( 3p)     0.00237
   101    C    7  dxy    Ryd( 3d)     0.00143
   102    C    7  dxz    Ryd( 3d)     0.00051
   103    C    7  dyz    Ryd( 3d)     0.00124
   104    C    7  dx2y2  Ryd( 3d)     0.00091
   105    C    7  dz2    Ryd( 3d)     0.00033

   106    C    8  S      Cor( 1S)     1.99905
   107    C    8  S      Val( 2S)     0.96034
   108    C    8  S      Ryd( 3S)     0.00073
   109    C    8  S      Ryd( 4S)     0.00004
   110    C    8  px     Val( 2p)     1.05621
   111    C    8  px     Ryd( 3p)     0.00476
   112    C    8  py     Val( 2p)     1.20052
   113    C    8  py     Ryd( 3p)     0.00339
   114    C    8  pz     Val( 2p)     1.18389
   115    C    8  pz     Ryd( 3p)     0.00719
   116    C    8  dxy    Ryd( 3d)     0.00061
   117    C    8  dxz    Ryd( 3d)     0.00052
   118    C    8  dyz    Ryd( 3d)     0.00041
   119    C    8  dx2y2  Ryd( 3d)     0.00058
   120    C    8  dz2    Ryd( 3d)     0.00039

   121    H    9  S      Val( 1S)     0.58057
   122    H    9  S      Ryd( 2S)     0.00216
   123    H    9  px     Ryd( 2p)     0.00044
   124    H    9  py     Ryd( 2p)     0.00028
   125    H    9  pz     Ryd( 2p)     0.00056

   126    H   10  S      Val( 1S)     0.57631
   127    H   10  S      Ryd( 2S)     0.00219
   128    H   10  px     Ryd( 2p)     0.00020
   129    H   10  py     Ryd( 2p)     0.00057
   130    H   10  pz     Ryd( 2p)     0.00046

   131    H   11  S      Val( 1S)     0.56785
   132    H   11  S      Ryd( 2S)     0.00133
   133    H   11  px     Ryd( 2p)     0.00023
   134    H   11  py     Ryd( 2p)     0.00061
   135    H   11  pz     Ryd( 2p)     0.00038

   136    H   12  S      Val( 1S)     0.56912
   137    H   12  S      Ryd( 2S)     0.00199
   138    H   12  px     Ryd( 2p)     0.00042
   139    H   12  py     Ryd( 2p)     0.00028
   140    H   12  pz     Ryd( 2p)     0.00061

   141    H   13  S      Val( 1S)     0.78773
   142    H   13  S      Ryd( 2S)     0.00127
   143    H   13  px     Ryd( 2p)     0.00003
   144    H   13  py     Ryd( 2p)     0.00043
   145    H   13  pz     Ryd( 2p)     0.00025

   146    H   14  S      Val( 1S)     0.77807
   147    H   14  S      Ryd( 2S)     0.00096
   148    H   14  px     Ryd( 2p)     0.00039
   149    H   14  py     Ryd( 2p)     0.00012
   150    H   14  pz     Ryd( 2p)     0.00012

   151    H   15  S      Val( 1S)     0.76070
   152    H   15  S      Ryd( 2S)     0.00106
   153    H   15  px     Ryd( 2p)     0.00006
   154    H   15  py     Ryd( 2p)     0.00038
   155    H   15  pz     Ryd( 2p)     0.00021

 WARNING:  1 low occupancy (<1.9990e) core orbital  found on  C    2
           1 low occupancy (<1.9990e) core orbital  found on  C    3


 Summary of Natural Population Analysis:                  
                                                          
                                       Natural Population 
                Natural  -----------------------------------------------
    Atom  No    Charge         Core      Valence    Rydberg      Total
 -----------------------------------------------------------------------
      N    1   -0.79487      1.99950     5.78210    0.01327     7.79487
      C    2    0.09151      1.99895     3.88909    0.02045     5.90849
      C    3    0.10723      1.99890     3.87632    0.01755     5.89277
      N    4   -0.72450      1.99949     5.71364    0.01137     7.72450
      C    5   -0.13091      1.99915     4.10246    0.02929     6.13091
      N    6   -0.52336      1.99949     5.49932    0.02456     7.52336
      C    7    0.03188      1.99923     3.94425    0.02463     5.96812
      C    8   -0.41863      1.99905     4.40097    0.01861     6.41863
      H    9    0.41599      0.00000     0.58057    0.00344     0.58401
      H   10    0.42026      0.00000     0.57631    0.00342     0.57974
      H   11    0.42959      0.00000     0.56785    0.00255     0.57041
      H   12    0.42758      0.00000     0.56912    0.00330     0.57242
      H   13    0.21029      0.00000     0.78773    0.00197     0.78971
      H   14    0.22035      0.00000     0.77807    0.00159     0.77965
      H   15    0.23759      0.00000     0.76070    0.00171     0.76241
 =======================================================================
   * Total *   -0.00000     15.99376    41.82850    0.17774    58.00000

                                 Natural Population      
 --------------------------------------------------------
   Core                      15.99376 ( 99.9610% of  16)
   Valence                   41.82850 ( 99.5917% of  42)
   Natural Minimal Basis     57.82226 ( 99.6936% of  58)
   Natural Rydberg Basis      0.17774 (  0.3064% of  58)
 --------------------------------------------------------

    Atom  No          Natural Electron Configuration
 ----------------------------------------------------------------------------
      N    1      [core]2S( 1.37)2p( 4.42)3p( 0.01)
      C    2      [core]2S( 0.83)2p( 3.06)3p( 0.01)
      C    3      [core]2S( 0.86)2p( 3.02)3p( 0.01)
      N    4      [core]2S( 1.39)2p( 4.32)3p( 0.01)
      C    5      [core]2S( 0.92)2p( 3.19)3p( 0.02)
      N    6      [core]2S( 1.37)2p( 4.13)3p( 0.01)3d( 0.01)
      C    7      [core]2S( 0.94)2p( 3.01)3p( 0.02)
      C    8      [core]2S( 0.96)2p( 3.44)3p( 0.02)
      H    9            1S( 0.58)
      H   10            1S( 0.58)
      H   11            1S( 0.57)
      H   12            1S( 0.57)
      H   13            1S( 0.79)
      H   14            1S( 0.78)
      H   15            1S( 0.76)


 NBO analysis skipped by request.
 1\1\GINC-CN33\SP\RB3LYP TD-FC\6-31G(d,p)\C5H7N3\QDUEZ\11-Jul-2024\0\\#
  TD(NStates=10, Root=1) B3LYP/6-31G** SCRF=(Solvent=water) volume pop=
 NPA density=current Geom=AllCheck Guess=Read\\OYTKINVCDFNREN-UHFFFAOYS
 A-N_conf_0\\0,1\N,0,-1.5883379543,-1.2461895571,-0.1379200612\C,0,-0.3
 440849193,-0.6373060949,-0.0656058076\C,0,-0.2693329249,0.7742742972,0
 .0422803482\N,0,-1.4577597222,1.5250878387,-0.0142705624\C,0,0.9955403
 226,1.3554827066,0.1357146696\N,0,2.1546533013,0.674742709,0.138710934
 4\C,0,2.0649013404,-0.6600892339,0.0623949922\C,0,0.859393593,-1.35154
 85696,-0.0406829427\H,0,-2.2861436741,-0.7055997563,-0.6370747491\H,0,
 -1.5744171249,-2.211206328,-0.4428512108\H,0,-1.3064274605,2.511275456
 5,0.1682183109\H,0,-2.1712489133,1.1779892716,0.6213030178\H,0,1.06869
 46857,2.4409096556,0.2102543073\H,0,3.0026479928,-1.2127157222,0.07627
 01091\H,0,0.8519214577,-2.4351066731,-0.1167413555\\Version=EM64L-G16R
 evA.03\State=1-A\HF=-359.0251706\RMSD=3.015e-09\Dipole=-2.7298578,-0.0
 496033,-0.1235436\Quadrupole=-0.7607034,4.9841375,-4.2234342,-4.268206
 5,-0.1953591,2.887869\PG=C01 [X(C5H7N3)]\\@


 MICRO CREDO - NEVER TRUST A COMPUTER BIGGER
               BIGGER THAN YOU CAN LIFT.
 Job cpu time:       0 days  0 hours 27 minutes 36.5 seconds.
 Elapsed time:       0 days  0 hours 15 minutes 24.8 seconds.
 File lengths (MBytes):  RWF=    259 Int=      0 D2E=      0 Chk=     15 Scr=      1
 Normal termination of Gaussian 16 at Thu Jul 11 21:10:08 2024.
