 Entering Gaussian System, Link 0=g16
 Initial command:
 /opt/sw/arch/manual/gaussian/G16_A03/g16/l1.exe "/scratch/1380821/Gau-198113.inp" -scrdir="/scratch/1380821/"
 Entering Link 1 = /opt/sw/arch/manual/gaussian/G16_A03/g16/l1.exe PID=    198114.
  
 Copyright (c) 1988,1990,1992,1993,1995,1998,2003,2009,2016,
            Gaussian, Inc.  All Rights Reserved.
  
 This is part of the Gaussian(R) 16 program.  It is based on
 the Gaussian(R) 09 system (copyright 2009, Gaussian, Inc.),
 the Gaussian(R) 03 system (copyright 2003, Gaussian, Inc.),
 the Gaussian(R) 98 system (copyright 1998, Gaussian, Inc.),
 the Gaussian(R) 94 system (copyright 1995, Gaussian, Inc.),
 the Gaussian 92(TM) system (copyright 1992, Gaussian, Inc.),
 the Gaussian 90(TM) system (copyright 1990, Gaussian, Inc.),
 the Gaussian 88(TM) system (copyright 1988, Gaussian, Inc.),
 the Gaussian 86(TM) system (copyright 1986, Carnegie Mellon
 University), and the Gaussian 82(TM) system (copyright 1983,
 Carnegie Mellon University). Gaussian is a federally registered
 trademark of Gaussian, Inc.
  
 This software contains proprietary and confidential information,
 including trade secrets, belonging to Gaussian, Inc.
  
 This software is provided under written license and may be
 used, copied, transmitted, or stored only in accord with that
 written license.
  
 The following legend is applicable only to US Government
 contracts under FAR:
  
                    RESTRICTED RIGHTS LEGEND
  
 Use, reproduction and disclosure by the US Government is
 subject to restrictions as set forth in subparagraphs (a)
 and (c) of the Commercial Computer Software - Restricted
 Rights clause in FAR 52.227-19.
  
 Gaussian, Inc.
 340 Quinnipiac St., Bldg. 40, Wallingford CT 06492
  
  
 ---------------------------------------------------------------
 Warning -- This program may not be used in any manner that
 competes with the business of Gaussian, Inc. or will provide
 assistance to any competitor of Gaussian, Inc.  The licensee
 of this program is prohibited from giving any competitor of
 Gaussian, Inc. access to this program.  By using this program,
 the user acknowledges that Gaussian, Inc. is engaged in the
 business of creating and licensing software in the field of
 computational chemistry and represents and warrants to the
 licensee that it is not a competitor of Gaussian, Inc. and that
 it will not use this program in any manner prohibited above.
 ---------------------------------------------------------------
  

 Cite this work as:
 Gaussian 16, Revision A.03,
 M. J. Frisch, G. W. Trucks, H. B. Schlegel, G. E. Scuseria, 
 M. A. Robb, J. R. Cheeseman, G. Scalmani, V. Barone, 
 G. A. Petersson, H. Nakatsuji, X. Li, M. Caricato, A. V. Marenich, 
 J. Bloino, B. G. Janesko, R. Gomperts, B. Mennucci, H. P. Hratchian, 
 J. V. Ortiz, A. F. Izmaylov, J. L. Sonnenberg, D. Williams-Young, 
 F. Ding, F. Lipparini, F. Egidi, J. Goings, B. Peng, A. Petrone, 
 T. Henderson, D. Ranasinghe, V. G. Zakrzewski, J. Gao, N. Rega, 
 G. Zheng, W. Liang, M. Hada, M. Ehara, K. Toyota, R. Fukuda, 
 J. Hasegawa, M. Ishida, T. Nakajima, Y. Honda, O. Kitao, H. Nakai, 
 T. Vreven, K. Throssell, J. A. Montgomery, Jr., J. E. Peralta, 
 F. Ogliaro, M. J. Bearpark, J. J. Heyd, E. N. Brothers, K. N. Kudin, 
 V. N. Staroverov, T. A. Keith, R. Kobayashi, J. Normand, 
 K. Raghavachari, A. P. Rendell, J. C. Burant, S. S. Iyengar, 
 J. Tomasi, M. Cossi, J. M. Millam, M. Klene, C. Adamo, R. Cammi, 
 J. W. Ochterski, R. L. Martin, K. Morokuma, O. Farkas, 
 J. B. Foresman, and D. J. Fox, Gaussian, Inc., Wallingford CT, 2016.
 
 ******************************************
 Gaussian 16:  ES64L-G16RevA.03 25-Dec-2016
                17-Jul-2024 
 ******************************************
 %nprocshared=8
 Will use up to    8 processors via shared memory.
 %mem=16GB
 %Chk=FZIHVNZJLMYTFH-QPLCGJKRSA-N_conf_3_0.chk
 -------------------------------------------------------
 # opt=CalcFc B3LYP/6-31G** SCRF=(Solvent=water) scf=xqc
 -------------------------------------------------------
 1/10=4,18=20,19=15,26=3,38=1/1,3;
 2/9=110,12=2,17=6,18=5,40=1/2;
 3/5=1,6=6,7=101,11=2,25=1,30=1,70=2201,71=2,72=1,74=-5,140=1/1,2,3;
 4//1;
 5/5=2,8=3,13=1,38=5,53=1/2,8;
 8/6=4,10=90,11=11/1;
 11/6=1,8=1,9=11,15=111,16=1/1,2,10;
 10/6=1,13=1/2;
 6/7=2,8=2,9=2,10=2,28=1/1;
 7/10=1,18=20,25=1/1,2,3,16;
 1/10=4,18=20,19=15,26=3/3(2);
 2/9=110/2;
 99//99;
 2/9=110/2;
 3/5=1,6=6,7=101,11=2,25=1,30=1,70=2205,71=1,72=1,74=-5/1,2,3;
 4/5=5,16=3,69=1/1;
 5/5=2,8=3,13=1,38=5,53=1/2,8;
 7//1,2,3,16;
 1/18=20,19=15,26=3/3(-5);
 2/9=110/2;
 6/7=2,8=2,9=2,10=2,19=2,28=1/1;
 99/9=1/99;
 ----------------------------------
 FZIHVNZJLMYTFH-QPLCGJKRSA-N_conf_3
 ----------------------------------
 Symbolic Z-matrix:
 Charge =  0 Multiplicity = 1
 N                     4.19151  -2.69039  -2.97474 
 C                     3.26581  -1.99232  -2.18923 
 C                     3.47785  -1.83735  -0.81809 
 C                     2.61097  -1.05899  -0.04523 
 C                     1.53914  -0.38119  -0.64051 
 C                     0.64138   0.47271   0.19924 
 C                     1.26303   1.57532   0.99746 
 C                     1.92074   2.6253    0.34351 
 C                     2.53661   3.6415    1.0786 
 C                     2.50604   3.61448   2.47181 
 C                     1.86651   2.56831   3.13297 
 C                     1.25391   1.54957   2.40004 
 C                    -0.70703   0.24192   0.25749 
 C                    -1.31883  -0.93777  -0.42793 
 C                    -1.01466  -2.24682  -0.03783 
 C                    -1.62941  -3.33465  -0.66494 
 C                    -2.59773  -3.13641  -1.65126 
 N                    -3.12924  -4.22668  -2.34799 
 C                    -2.86266  -1.83354  -2.07527 
 C                    -2.24933  -0.74081  -1.45441 
 C                    -1.61625   1.15447   1.01758 
 C                    -1.78555   2.49514   0.64544 
 C                    -2.66115   3.32219   1.35349 
 C                    -3.38777   2.81269   2.42833 
 C                    -3.24264   1.47668   2.79671 
 C                    -2.36321   0.65036   2.09357 
 C                     1.3816   -0.46706  -2.02972 
 C                     2.24103  -1.26145  -2.79456 
 H                     3.79461  -3.0364   -3.84461 
 H                     4.68374  -3.41736  -2.46451 
 H                     4.31769  -2.32954  -0.33344 
 H                     2.7893   -0.97348   1.02427 
 H                     1.95895   2.65548  -0.74306 
 H                     3.04495   4.45206   0.56172 
 H                     2.98712   4.40542   3.04151 
 H                     1.84461   2.54074   4.21908 
 H                     0.766     0.73486   2.92937 
 H                    -0.28491  -2.43078   0.74712 
 H                    -1.34529  -4.34027  -0.36828 
 H                    -3.1555   -5.08496  -1.80719 
 H                    -4.0142   -4.02992  -2.80543 
 H                    -3.5537   -1.65417  -2.89514 
 H                    -2.49578   0.26458  -1.7866 
 H                    -1.23277   2.90553  -0.19564 
 H                    -2.77417   4.3635    1.0646 
 H                    -4.06988   3.45787   2.97637 
 H                    -3.8158    1.07489   3.62842 
 H                    -2.26459  -0.39275   2.38805 
 H                     0.58561   0.08001  -2.52921 
 H                     2.10336  -1.30055  -3.8719 
 

 GradGradGradGradGradGradGradGradGradGradGradGradGradGradGradGradGradGrad
 Berny optimization.
 Initialization pass.
                           ----------------------------
                           !    Initial Parameters    !
                           ! (Angstroms and Degrees)  !
 --------------------------                            --------------------------
 ! Name  Definition              Value          Derivative Info.                !
 --------------------------------------------------------------------------------
 ! R1    R(1,2)                  1.4004         calculate D2E/DX2 analytically  !
 ! R2    R(1,29)                 1.0168         calculate D2E/DX2 analytically  !
 ! R3    R(1,30)                 1.0154         calculate D2E/DX2 analytically  !
 ! R4    R(2,3)                  1.3961         calculate D2E/DX2 analytically  !
 ! R5    R(2,28)                 1.3967         calculate D2E/DX2 analytically  !
 ! R6    R(3,4)                  1.3981         calculate D2E/DX2 analytically  !
 ! R7    R(3,31)                 1.0874         calculate D2E/DX2 analytically  !
 ! R8    R(4,5)                  1.4009         calculate D2E/DX2 analytically  !
 ! R9    R(4,32)                 1.0876         calculate D2E/DX2 analytically  !
 ! R10   R(5,6)                  1.4968         calculate D2E/DX2 analytically  !
 ! R11   R(5,27)                 1.4007         calculate D2E/DX2 analytically  !
 ! R12   R(6,7)                  1.4964         calculate D2E/DX2 analytically  !
 ! R13   R(6,13)                 1.3693         calculate D2E/DX2 analytically  !
 ! R14   R(7,8)                  1.401          calculate D2E/DX2 analytically  !
 ! R15   R(7,12)                 1.4028         calculate D2E/DX2 analytically  !
 ! R16   R(8,9)                  1.3972         calculate D2E/DX2 analytically  !
 ! R17   R(8,33)                 1.0877         calculate D2E/DX2 analytically  !
 ! R18   R(9,10)                 1.3938         calculate D2E/DX2 analytically  !
 ! R19   R(9,34)                 1.0875         calculate D2E/DX2 analytically  !
 ! R20   R(10,11)                1.3931         calculate D2E/DX2 analytically  !
 ! R21   R(10,35)                1.087          calculate D2E/DX2 analytically  !
 ! R22   R(11,12)                1.3965         calculate D2E/DX2 analytically  !
 ! R23   R(11,36)                1.0867         calculate D2E/DX2 analytically  !
 ! R24   R(12,37)                1.0872         calculate D2E/DX2 analytically  !
 ! R25   R(13,14)                1.4953         calculate D2E/DX2 analytically  !
 ! R26   R(13,21)                1.4957         calculate D2E/DX2 analytically  !
 ! R27   R(14,15)                1.3994         calculate D2E/DX2 analytically  !
 ! R28   R(14,20)                1.3994         calculate D2E/DX2 analytically  !
 ! R29   R(15,16)                1.398          calculate D2E/DX2 analytically  !
 ! R30   R(15,38)                1.0874         calculate D2E/DX2 analytically  !
 ! R31   R(16,17)                1.3963         calculate D2E/DX2 analytically  !
 ! R32   R(16,39)                1.0863         calculate D2E/DX2 analytically  !
 ! R33   R(17,18)                1.3988         calculate D2E/DX2 analytically  !
 ! R34   R(17,19)                1.3955         calculate D2E/DX2 analytically  !
 ! R35   R(18,40)                1.0148         calculate D2E/DX2 analytically  !
 ! R36   R(18,41)                1.0154         calculate D2E/DX2 analytically  !
 ! R37   R(19,20)                1.3985         calculate D2E/DX2 analytically  !
 ! R38   R(19,42)                1.0872         calculate D2E/DX2 analytically  !
 ! R39   R(20,43)                1.0872         calculate D2E/DX2 analytically  !
 ! R40   R(21,22)                1.4016         calculate D2E/DX2 analytically  !
 ! R41   R(21,26)                1.4035         calculate D2E/DX2 analytically  !
 ! R42   R(22,23)                1.3972         calculate D2E/DX2 analytically  !
 ! R43   R(22,44)                1.0869         calculate D2E/DX2 analytically  !
 ! R44   R(23,24)                1.3939         calculate D2E/DX2 analytically  !
 ! R45   R(23,45)                1.0865         calculate D2E/DX2 analytically  !
 ! R46   R(24,25)                1.3934         calculate D2E/DX2 analytically  !
 ! R47   R(24,46)                1.0871         calculate D2E/DX2 analytically  !
 ! R48   R(25,26)                1.3966         calculate D2E/DX2 analytically  !
 ! R49   R(25,47)                1.0871         calculate D2E/DX2 analytically  !
 ! R50   R(26,48)                1.0884         calculate D2E/DX2 analytically  !
 ! R51   R(27,28)                1.3981         calculate D2E/DX2 analytically  !
 ! R52   R(27,49)                1.0874         calculate D2E/DX2 analytically  !
 ! R53   R(28,50)                1.0868         calculate D2E/DX2 analytically  !
 ! A1    A(2,1,29)             113.0446         calculate D2E/DX2 analytically  !
 ! A2    A(2,1,30)             113.2933         calculate D2E/DX2 analytically  !
 ! A3    A(29,1,30)            112.0521         calculate D2E/DX2 analytically  !
 ! A4    A(1,2,3)              120.3861         calculate D2E/DX2 analytically  !
 ! A5    A(1,2,28)             120.1808         calculate D2E/DX2 analytically  !
 ! A6    A(3,2,28)             118.621          calculate D2E/DX2 analytically  !
 ! A7    A(2,3,4)              120.7008         calculate D2E/DX2 analytically  !
 ! A8    A(2,3,31)             120.3172         calculate D2E/DX2 analytically  !
 ! A9    A(4,3,31)             118.9798         calculate D2E/DX2 analytically  !
 ! A10   A(3,4,5)              120.5877         calculate D2E/DX2 analytically  !
 ! A11   A(3,4,32)             119.0576         calculate D2E/DX2 analytically  !
 ! A12   A(5,4,32)             120.3475         calculate D2E/DX2 analytically  !
 ! A13   A(4,5,6)              119.7702         calculate D2E/DX2 analytically  !
 ! A14   A(4,5,27)             118.5428         calculate D2E/DX2 analytically  !
 ! A15   A(6,5,27)             121.5962         calculate D2E/DX2 analytically  !
 ! A16   A(5,6,7)              118.0636         calculate D2E/DX2 analytically  !
 ! A17   A(5,6,13)             121.2238         calculate D2E/DX2 analytically  !
 ! A18   A(7,6,13)             120.703          calculate D2E/DX2 analytically  !
 ! A19   A(6,7,8)              119.885          calculate D2E/DX2 analytically  !
 ! A20   A(6,7,12)             121.137          calculate D2E/DX2 analytically  !
 ! A21   A(8,7,12)             118.9146         calculate D2E/DX2 analytically  !
 ! A22   A(7,8,9)              120.4269         calculate D2E/DX2 analytically  !
 ! A23   A(7,8,33)             120.239          calculate D2E/DX2 analytically  !
 ! A24   A(9,8,33)             119.3339         calculate D2E/DX2 analytically  !
 ! A25   A(8,9,10)             120.1394         calculate D2E/DX2 analytically  !
 ! A26   A(8,9,34)             119.8733         calculate D2E/DX2 analytically  !
 ! A27   A(10,9,34)            119.9865         calculate D2E/DX2 analytically  !
 ! A28   A(9,10,11)            119.9358         calculate D2E/DX2 analytically  !
 ! A29   A(9,10,35)            120.004          calculate D2E/DX2 analytically  !
 ! A30   A(11,10,35)           120.0588         calculate D2E/DX2 analytically  !
 ! A31   A(10,11,12)           120.0085         calculate D2E/DX2 analytically  !
 ! A32   A(10,11,36)           120.1765         calculate D2E/DX2 analytically  !
 ! A33   A(12,11,36)           119.8148         calculate D2E/DX2 analytically  !
 ! A34   A(7,12,11)            120.5627         calculate D2E/DX2 analytically  !
 ! A35   A(7,12,37)            120.229          calculate D2E/DX2 analytically  !
 ! A36   A(11,12,37)           119.2081         calculate D2E/DX2 analytically  !
 ! A37   A(6,13,14)            121.0918         calculate D2E/DX2 analytically  !
 ! A38   A(6,13,21)            121.159          calculate D2E/DX2 analytically  !
 ! A39   A(14,13,21)           117.7473         calculate D2E/DX2 analytically  !
 ! A40   A(13,14,15)           121.42           calculate D2E/DX2 analytically  !
 ! A41   A(13,14,20)           119.8197         calculate D2E/DX2 analytically  !
 ! A42   A(15,14,20)           118.7285         calculate D2E/DX2 analytically  !
 ! A43   A(14,15,16)           120.4811         calculate D2E/DX2 analytically  !
 ! A44   A(14,15,38)           120.3528         calculate D2E/DX2 analytically  !
 ! A45   A(16,15,38)           119.1593         calculate D2E/DX2 analytically  !
 ! A46   A(15,16,17)           120.7511         calculate D2E/DX2 analytically  !
 ! A47   A(15,16,39)           118.8695         calculate D2E/DX2 analytically  !
 ! A48   A(17,16,39)           120.3785         calculate D2E/DX2 analytically  !
 ! A49   A(16,17,18)           120.3106         calculate D2E/DX2 analytically  !
 ! A50   A(16,17,19)           118.6079         calculate D2E/DX2 analytically  !
 ! A51   A(18,17,19)           120.2791         calculate D2E/DX2 analytically  !
 ! A52   A(17,18,40)           113.8039         calculate D2E/DX2 analytically  !
 ! A53   A(17,18,41)           113.8606         calculate D2E/DX2 analytically  !
 ! A54   A(40,18,41)           112.4199         calculate D2E/DX2 analytically  !
 ! A55   A(17,19,20)           120.7543         calculate D2E/DX2 analytically  !
 ! A56   A(17,19,42)           120.255          calculate D2E/DX2 analytically  !
 ! A57   A(20,19,42)           118.9906         calculate D2E/DX2 analytically  !
 ! A58   A(14,20,19)           120.4843         calculate D2E/DX2 analytically  !
 ! A59   A(14,20,43)           120.3335         calculate D2E/DX2 analytically  !
 ! A60   A(19,20,43)           119.1785         calculate D2E/DX2 analytically  !
 ! A61   A(13,21,22)           121.4717         calculate D2E/DX2 analytically  !
 ! A62   A(13,21,26)           119.6024         calculate D2E/DX2 analytically  !
 ! A63   A(22,21,26)           118.8698         calculate D2E/DX2 analytically  !
 ! A64   A(21,22,23)           120.4881         calculate D2E/DX2 analytically  !
 ! A65   A(21,22,44)           120.3435         calculate D2E/DX2 analytically  !
 ! A66   A(23,22,44)           119.1677         calculate D2E/DX2 analytically  !
 ! A67   A(22,23,24)           120.0737         calculate D2E/DX2 analytically  !
 ! A68   A(22,23,45)           119.8524         calculate D2E/DX2 analytically  !
 ! A69   A(24,23,45)           120.0739         calculate D2E/DX2 analytically  !
 ! A70   A(23,24,25)           120.0019         calculate D2E/DX2 analytically  !
 ! A71   A(23,24,46)           119.9259         calculate D2E/DX2 analytically  !
 ! A72   A(25,24,46)           120.0719         calculate D2E/DX2 analytically  !
 ! A73   A(24,25,26)           119.9834         calculate D2E/DX2 analytically  !
 ! A74   A(24,25,47)           120.1149         calculate D2E/DX2 analytically  !
 ! A75   A(26,25,47)           119.9013         calculate D2E/DX2 analytically  !
 ! A76   A(21,26,25)           120.5693         calculate D2E/DX2 analytically  !
 ! A77   A(21,26,48)           120.2287         calculate D2E/DX2 analytically  !
 ! A78   A(25,26,48)           119.2017         calculate D2E/DX2 analytically  !
 ! A79   A(5,27,28)            120.5473         calculate D2E/DX2 analytically  !
 ! A80   A(5,27,49)            120.469          calculate D2E/DX2 analytically  !
 ! A81   A(28,27,49)           118.9832         calculate D2E/DX2 analytically  !
 ! A82   A(2,28,27)            120.7474         calculate D2E/DX2 analytically  !
 ! A83   A(2,28,50)            120.2478         calculate D2E/DX2 analytically  !
 ! A84   A(27,28,50)           119.0044         calculate D2E/DX2 analytically  !
 ! D1    D(29,1,2,3)           158.6373         calculate D2E/DX2 analytically  !
 ! D2    D(29,1,2,28)          -31.8235         calculate D2E/DX2 analytically  !
 ! D3    D(30,1,2,3)            29.7818         calculate D2E/DX2 analytically  !
 ! D4    D(30,1,2,28)         -160.679          calculate D2E/DX2 analytically  !
 ! D5    D(1,2,3,4)            175.2439         calculate D2E/DX2 analytically  !
 ! D6    D(1,2,3,31)            -5.3042         calculate D2E/DX2 analytically  !
 ! D7    D(28,2,3,4)             5.5438         calculate D2E/DX2 analytically  !
 ! D8    D(28,2,3,31)         -175.0044         calculate D2E/DX2 analytically  !
 ! D9    D(1,2,28,27)         -174.3971         calculate D2E/DX2 analytically  !
 ! D10   D(1,2,28,50)            5.3782         calculate D2E/DX2 analytically  !
 ! D11   D(3,2,28,27)           -4.6752         calculate D2E/DX2 analytically  !
 ! D12   D(3,2,28,50)          175.1001         calculate D2E/DX2 analytically  !
 ! D13   D(2,3,4,5)             -2.2487         calculate D2E/DX2 analytically  !
 ! D14   D(2,3,4,32)           178.7225         calculate D2E/DX2 analytically  !
 ! D15   D(31,3,4,5)           178.2922         calculate D2E/DX2 analytically  !
 ! D16   D(31,3,4,32)           -0.7365         calculate D2E/DX2 analytically  !
 ! D17   D(3,4,5,6)           -178.5723         calculate D2E/DX2 analytically  !
 ! D18   D(3,4,5,27)            -1.9817         calculate D2E/DX2 analytically  !
 ! D19   D(32,4,5,6)             0.4439         calculate D2E/DX2 analytically  !
 ! D20   D(32,4,5,27)          177.0345         calculate D2E/DX2 analytically  !
 ! D21   D(4,5,6,7)             56.6054         calculate D2E/DX2 analytically  !
 ! D22   D(4,5,6,13)          -122.2798         calculate D2E/DX2 analytically  !
 ! D23   D(27,5,6,7)          -119.8783         calculate D2E/DX2 analytically  !
 ! D24   D(27,5,6,13)           61.2365         calculate D2E/DX2 analytically  !
 ! D25   D(4,5,27,28)            2.8472         calculate D2E/DX2 analytically  !
 ! D26   D(4,5,27,49)         -177.4317         calculate D2E/DX2 analytically  !
 ! D27   D(6,5,27,28)          179.3727         calculate D2E/DX2 analytically  !
 ! D28   D(6,5,27,49)           -0.9062         calculate D2E/DX2 analytically  !
 ! D29   D(5,6,7,8)             62.7501         calculate D2E/DX2 analytically  !
 ! D30   D(5,6,7,12)          -114.3234         calculate D2E/DX2 analytically  !
 ! D31   D(13,6,7,8)          -118.3586         calculate D2E/DX2 analytically  !
 ! D32   D(13,6,7,12)           64.5679         calculate D2E/DX2 analytically  !
 ! D33   D(5,6,13,14)            4.9563         calculate D2E/DX2 analytically  !
 ! D34   D(5,6,13,21)         -175.5422         calculate D2E/DX2 analytically  !
 ! D35   D(7,6,13,14)         -173.8996         calculate D2E/DX2 analytically  !
 ! D36   D(7,6,13,21)            5.6019         calculate D2E/DX2 analytically  !
 ! D37   D(6,7,8,9)           -178.2494         calculate D2E/DX2 analytically  !
 ! D38   D(6,7,8,33)             1.5864         calculate D2E/DX2 analytically  !
 ! D39   D(12,7,8,9)            -1.1109         calculate D2E/DX2 analytically  !
 ! D40   D(12,7,8,33)          178.7249         calculate D2E/DX2 analytically  !
 ! D41   D(6,7,12,11)          178.4106         calculate D2E/DX2 analytically  !
 ! D42   D(6,7,12,37)           -1.7469         calculate D2E/DX2 analytically  !
 ! D43   D(8,7,12,11)            1.3093         calculate D2E/DX2 analytically  !
 ! D44   D(8,7,12,37)         -178.8483         calculate D2E/DX2 analytically  !
 ! D45   D(7,8,9,10)             0.29           calculate D2E/DX2 analytically  !
 ! D46   D(7,8,9,34)           179.9786         calculate D2E/DX2 analytically  !
 ! D47   D(33,8,9,10)         -179.5473         calculate D2E/DX2 analytically  !
 ! D48   D(33,8,9,34)            0.1413         calculate D2E/DX2 analytically  !
 ! D49   D(8,9,10,11)            0.3534         calculate D2E/DX2 analytically  !
 ! D50   D(8,9,10,35)          179.9118         calculate D2E/DX2 analytically  !
 ! D51   D(34,9,10,11)        -179.3348         calculate D2E/DX2 analytically  !
 ! D52   D(34,9,10,35)           0.2235         calculate D2E/DX2 analytically  !
 ! D53   D(9,10,11,12)          -0.1571         calculate D2E/DX2 analytically  !
 ! D54   D(9,10,11,36)         179.6939         calculate D2E/DX2 analytically  !
 ! D55   D(35,10,11,12)       -179.7152         calculate D2E/DX2 analytically  !
 ! D56   D(35,10,11,36)          0.1358         calculate D2E/DX2 analytically  !
 ! D57   D(10,11,12,7)          -0.6843         calculate D2E/DX2 analytically  !
 ! D58   D(10,11,12,37)        179.4716         calculate D2E/DX2 analytically  !
 ! D59   D(36,11,12,7)         179.4641         calculate D2E/DX2 analytically  !
 ! D60   D(36,11,12,37)         -0.3799         calculate D2E/DX2 analytically  !
 ! D61   D(6,13,14,15)          64.576          calculate D2E/DX2 analytically  !
 ! D62   D(6,13,14,20)        -117.5019         calculate D2E/DX2 analytically  !
 ! D63   D(21,13,14,15)       -114.9419         calculate D2E/DX2 analytically  !
 ! D64   D(21,13,14,20)         62.9801         calculate D2E/DX2 analytically  !
 ! D65   D(6,13,21,22)          63.6723         calculate D2E/DX2 analytically  !
 ! D66   D(6,13,21,26)        -119.0841         calculate D2E/DX2 analytically  !
 ! D67   D(14,13,21,22)       -116.8101         calculate D2E/DX2 analytically  !
 ! D68   D(14,13,21,26)         60.4335         calculate D2E/DX2 analytically  !
 ! D69   D(13,14,15,16)        178.0185         calculate D2E/DX2 analytically  !
 ! D70   D(13,14,15,38)         -2.936          calculate D2E/DX2 analytically  !
 ! D71   D(20,14,15,16)          0.0744         calculate D2E/DX2 analytically  !
 ! D72   D(20,14,15,38)        179.1199         calculate D2E/DX2 analytically  !
 ! D73   D(13,14,20,19)       -177.9085         calculate D2E/DX2 analytically  !
 ! D74   D(13,14,20,43)          2.7859         calculate D2E/DX2 analytically  !
 ! D75   D(15,14,20,19)          0.0693         calculate D2E/DX2 analytically  !
 ! D76   D(15,14,20,43)       -179.2363         calculate D2E/DX2 analytically  !
 ! D77   D(14,15,16,17)         -2.7046         calculate D2E/DX2 analytically  !
 ! D78   D(14,15,16,39)        177.6329         calculate D2E/DX2 analytically  !
 ! D79   D(38,15,16,17)        178.2386         calculate D2E/DX2 analytically  !
 ! D80   D(38,15,16,39)         -1.4239         calculate D2E/DX2 analytically  !
 ! D81   D(15,16,17,18)        174.8606         calculate D2E/DX2 analytically  !
 ! D82   D(15,16,17,19)          5.0889         calculate D2E/DX2 analytically  !
 ! D83   D(39,16,17,18)         -5.482          calculate D2E/DX2 analytically  !
 ! D84   D(39,16,17,19)       -175.2537         calculate D2E/DX2 analytically  !
 ! D85   D(16,17,18,40)         30.2588         calculate D2E/DX2 analytically  !
 ! D86   D(16,17,18,41)        160.8705         calculate D2E/DX2 analytically  !
 ! D87   D(19,17,18,40)       -160.1412         calculate D2E/DX2 analytically  !
 ! D88   D(19,17,18,41)        -29.5295         calculate D2E/DX2 analytically  !
 ! D89   D(16,17,19,20)         -4.9443         calculate D2E/DX2 analytically  !
 ! D90   D(16,17,19,42)        175.1944         calculate D2E/DX2 analytically  !
 ! D91   D(18,17,19,20)       -174.7193         calculate D2E/DX2 analytically  !
 ! D92   D(18,17,19,42)          5.4193         calculate D2E/DX2 analytically  !
 ! D93   D(17,19,20,14)          2.415          calculate D2E/DX2 analytically  !
 ! D94   D(17,19,20,43)       -178.2715         calculate D2E/DX2 analytically  !
 ! D95   D(42,19,20,14)       -177.722          calculate D2E/DX2 analytically  !
 ! D96   D(42,19,20,43)          1.5916         calculate D2E/DX2 analytically  !
 ! D97   D(13,21,22,23)        178.6788         calculate D2E/DX2 analytically  !
 ! D98   D(13,21,22,44)         -1.6192         calculate D2E/DX2 analytically  !
 ! D99   D(26,21,22,23)          1.4156         calculate D2E/DX2 analytically  !
 ! D100  D(26,21,22,44)       -178.8824         calculate D2E/DX2 analytically  !
 ! D101  D(13,21,26,25)       -178.4425         calculate D2E/DX2 analytically  !
 ! D102  D(13,21,26,48)          1.4045         calculate D2E/DX2 analytically  !
 ! D103  D(22,21,26,25)         -1.1271         calculate D2E/DX2 analytically  !
 ! D104  D(22,21,26,48)        178.72           calculate D2E/DX2 analytically  !
 ! D105  D(21,22,23,24)         -0.8237         calculate D2E/DX2 analytically  !
 ! D106  D(21,22,23,45)        179.1572         calculate D2E/DX2 analytically  !
 ! D107  D(44,22,23,24)        179.4708         calculate D2E/DX2 analytically  !
 ! D108  D(44,22,23,45)         -0.5482         calculate D2E/DX2 analytically  !
 ! D109  D(22,23,24,25)         -0.0818         calculate D2E/DX2 analytically  !
 ! D110  D(22,23,24,46)       -179.8791         calculate D2E/DX2 analytically  !
 ! D111  D(45,23,24,25)        179.9373         calculate D2E/DX2 analytically  !
 ! D112  D(45,23,24,46)          0.14           calculate D2E/DX2 analytically  !
 ! D113  D(23,24,25,26)          0.3699         calculate D2E/DX2 analytically  !
 ! D114  D(23,24,25,47)       -179.3911         calculate D2E/DX2 analytically  !
 ! D115  D(46,24,25,26)       -179.8332         calculate D2E/DX2 analytically  !
 ! D116  D(46,24,25,47)          0.4058         calculate D2E/DX2 analytically  !
 ! D117  D(24,25,26,21)          0.2434         calculate D2E/DX2 analytically  !
 ! D118  D(24,25,26,48)       -179.6052         calculate D2E/DX2 analytically  !
 ! D119  D(47,25,26,21)       -179.9951         calculate D2E/DX2 analytically  !
 ! D120  D(47,25,26,48)          0.1563         calculate D2E/DX2 analytically  !
 ! D121  D(5,27,28,2)            0.4949         calculate D2E/DX2 analytically  !
 ! D122  D(5,27,28,50)        -179.2831         calculate D2E/DX2 analytically  !
 ! D123  D(49,27,28,2)        -179.2303         calculate D2E/DX2 analytically  !
 ! D124  D(49,27,28,50)          0.9916         calculate D2E/DX2 analytically  !
 --------------------------------------------------------------------------------
 Trust Radius=3.00D-01 FncErr=1.00D-07 GrdErr=1.00D-06 EigMax=2.50D+02 EigMin=1.00D-04
 Number of steps in this run=    271 maximum allowed number of steps=    300.
 GradGradGradGradGradGradGradGradGradGradGradGradGradGradGradGradGradGrad

                          Input orientation:                          
 ---------------------------------------------------------------------
 Center     Atomic      Atomic             Coordinates (Angstroms)
 Number     Number       Type             X           Y           Z
 ---------------------------------------------------------------------
      1          7           0        4.191514   -2.690385   -2.974738
      2          6           0        3.265813   -1.992317   -2.189228
      3          6           0        3.477848   -1.837345   -0.818089
      4          6           0        2.610965   -1.058989   -0.045233
      5          6           0        1.539143   -0.381195   -0.640513
      6          6           0        0.641375    0.472711    0.199239
      7          6           0        1.263026    1.575319    0.997463
      8          6           0        1.920738    2.625300    0.343515
      9          6           0        2.536607    3.641496    1.078596
     10          6           0        2.506043    3.614479    2.471813
     11          6           0        1.866505    2.568313    3.132969
     12          6           0        1.253909    1.549567    2.400036
     13          6           0       -0.707030    0.241925    0.257493
     14          6           0       -1.318834   -0.937766   -0.427926
     15          6           0       -1.014662   -2.246820   -0.037834
     16          6           0       -1.629407   -3.334647   -0.664942
     17          6           0       -2.597730   -3.136413   -1.651257
     18          7           0       -3.129238   -4.226675   -2.347994
     19          6           0       -2.862656   -1.833544   -2.075268
     20          6           0       -2.249329   -0.740814   -1.454408
     21          6           0       -1.616246    1.154468    1.017579
     22          6           0       -1.785550    2.495135    0.645436
     23          6           0       -2.661146    3.322191    1.353491
     24          6           0       -3.387769    2.812690    2.428332
     25          6           0       -3.242639    1.476682    2.796710
     26          6           0       -2.363209    0.650360    2.093570
     27          6           0        1.381597   -0.467058   -2.029715
     28          6           0        2.241029   -1.261445   -2.794563
     29          1           0        3.794613   -3.036399   -3.844611
     30          1           0        4.683741   -3.417358   -2.464506
     31          1           0        4.317689   -2.329545   -0.333441
     32          1           0        2.789297   -0.973477    1.024268
     33          1           0        1.958952    2.655482   -0.743060
     34          1           0        3.044946    4.452064    0.561719
     35          1           0        2.987122    4.405424    3.041505
     36          1           0        1.844606    2.540741    4.219075
     37          1           0        0.765996    0.734862    2.929366
     38          1           0       -0.284913   -2.430775    0.747115
     39          1           0       -1.345286   -4.340272   -0.368279
     40          1           0       -3.155501   -5.084956   -1.807193
     41          1           0       -4.014204   -4.029923   -2.805430
     42          1           0       -3.553700   -1.654174   -2.895144
     43          1           0       -2.495784    0.264575   -1.786602
     44          1           0       -1.232774    2.905535   -0.195642
     45          1           0       -2.774170    4.363502    1.064603
     46          1           0       -4.069883    3.457874    2.976366
     47          1           0       -3.815800    1.074886    3.628418
     48          1           0       -2.264591   -0.392750    2.388052
     49          1           0        0.585613    0.080010   -2.529213
     50          1           0        2.103363   -1.300545   -3.871901
 ---------------------------------------------------------------------
                    Distance matrix (angstroms):
                    1          2          3          4          5
     1  N    0.000000
     2  C    1.400446   0.000000
     3  C    2.426547   1.396065   0.000000
     4  C    3.706965   2.428300   1.398081   0.000000
     5  C    4.220906   2.824115   2.431150   1.400917   0.000000
     6  C    5.716887   4.320742   3.796959   2.507022   1.496771
     7  C    6.523086   5.185960   4.455103   3.137473   2.566544
     8  C    6.665113   5.435660   4.867147   3.768491   3.186367
     9  C    7.698114   6.553646   5.873760   4.833538   4.486904
    10  C    8.500415   7.330670   6.441293   5.309222   5.156247
    11  C    8.388305   7.147250   6.133279   4.879806   4.800617
    12  C    7.449491   6.136289   5.174303   3.824331   3.613051
    13  C    6.560601   5.173177   4.795148   3.576746   2.497996
    14  C    6.318375   5.023271   4.895879   3.950250   2.919417
    15  C    5.993866   4.797472   4.578113   3.815255   3.219581
    16  C    6.295502   5.299856   5.324417   4.852155   4.331649
    17  C    6.931405   5.998291   6.268524   5.833139   5.072134
    18  N    7.506424   6.776005   7.190487   6.948876   6.284663
    19  C    7.162718   6.131584   6.463939   5.889101   4.852182
    20  C    6.899036   5.702895   5.865820   5.070451   3.891564
    21  C    8.028173   6.634784   6.186309   4.888586   3.881237
    22  C    8.701757   7.327265   6.972493   5.695452   4.580450
    23  C   10.091759   8.713421   8.308058   6.996165   5.944202
    24  C   10.813072   9.417011   8.904986   7.556007   6.625191
    25  C   10.292750   8.902443   8.319526   6.983621   6.175083
    26  C    8.933797   7.550629   6.984583   5.677920   4.875209
    27  C    3.705656   2.429429   2.782084   2.408298   1.400741
    28  C    2.424608   1.396706   2.401631   2.781485   2.430518
    29  H    1.016825   2.027321   3.270765   4.443697   4.733234
    30  H    1.015438   2.029049   2.580951   3.963733   4.736427
    31  H    2.668816   2.159656   1.087417   2.147156   3.407445
    32  H    4.572312   3.404652   2.148174   1.087633   2.164527
    33  H    6.208303   5.039973   4.743224   3.835281   3.067272
    34  H    8.052064   7.010460   6.453522   5.561335   5.203191
    35  H    9.380632   8.268575   7.355913   6.287231   6.210123
    36  H    9.199109   7.977142   6.870818   5.632911   5.678610
    37  H    7.637077   6.315583   5.292808   3.933199   3.819342
    38  H    5.827349   4.628392   4.118301   3.300867   3.074650
    39  H    6.338132   5.485525   5.452486   5.150059   4.905949
    40  H    7.815098   7.137481   7.451619   7.250175   6.747310
    41  H    8.316059   7.584866   8.055294   7.767754   6.988544
    42  H    7.814628   6.864285   7.334192   6.817575   5.713220
    43  H    7.406984   6.200941   6.406276   5.555454   4.243957
    44  H    8.274092   6.942667   6.713592   5.523985   4.322502
    45  H   10.704876   9.352286   9.004597   7.722359   6.635076
    46  H   11.894008  10.497637   9.970230   8.611960   7.699444
    47  H   11.040653   9.664471   9.024956   7.704055   7.001383
    48  H    8.701721   7.354963   6.733633   5.489609   4.862174
    49  H    4.569038   3.404938   3.869008   3.401401   2.165437
    50  H    2.664006   2.158987   3.391626   3.867738   3.406673
                    6          7          8          9         10
     6  C    0.000000
     7  C    1.496447   0.000000
     8  C    2.508231   1.400962   0.000000
     9  C    3.795572   2.428514   1.397245   0.000000
    10  C    4.302591   2.806595   2.418824   1.393814   0.000000
    11  C    3.807790   2.431175   2.790563   2.412717   1.393054
    12  C    2.525535   1.402839   2.414776   2.787056   2.415958
    13  C    1.369252   2.491307   3.548668   4.769955   5.157633
    14  C    2.495035   3.874703   4.877027   6.172817   6.615218
    15  C    3.192885   4.568199   5.700838   6.966362   7.283442
    16  C    4.516551   5.936119   7.010098   8.310365   8.673611
    17  C    5.190560   6.642407   7.589006   8.930485   9.413966
    18  N    6.541418   8.009195   8.927264  10.283552  10.792157
    19  C    4.771837   6.171164   6.972278   8.311135   8.898305
    20  C    3.544484   4.869577   5.652673   6.966056   7.549660
    21  C    2.496262   2.909935   3.889469   4.840993   5.015947
    22  C    3.190495   3.203716   3.720843   4.492528   4.796494
    23  C    4.512037   4.310156   4.743351   5.214802   5.294896
    24  C    5.165110   5.020793   5.706297   6.132449   5.948258
    25  C    4.779162   4.852632   5.830777   6.406092   6.141913
    26  C    3.556344   3.899561   5.031430   5.829688   5.713028
    27  C    2.529690   3.653651   3.935171   5.279760   6.179570
    28  C    3.811698   4.835616   5.005687   6.255203   7.181893
    29  H    6.213653   7.150004   7.287430   8.391355   9.262387
    30  H    6.210386   6.972327   7.213382   8.184814   8.863202
    31  H    4.653135   5.133247   5.545640   6.389009   6.817839
    32  H    2.717664   2.970956   3.764175   4.622205   4.819229
    33  H    2.718165   2.163443   1.087665   2.150428   3.399175
    34  H    4.663024   3.411858   2.156044   1.087470   2.154164
    35  H    5.389549   3.893600   3.403700   2.153964   1.087005
    36  H    4.677991   3.413072   3.877231   3.398990   2.154841
    37  H    2.745514   2.164637   3.404968   3.874136   3.395484
    38  H    3.096516   4.302043   5.530976   6.703979   6.878163
    39  H    5.237720   6.607780   7.726109   8.992840   9.283153
    40  H    7.023510   8.470462   9.478491  10.811051  11.226894
    41  H    7.139759   8.586610   9.456817  10.809692  11.349000
    42  H    5.630053   6.984472   7.666308   8.995919   9.658334
    43  H    3.718689   4.857747   5.442066   6.703574   7.373888
    44  H    3.096288   3.069526   3.211520   4.046425   4.647222
    45  H    5.249101   4.906875   5.058012   5.359649   5.515608
    46  H    6.230537   5.991660   6.596411   6.876115   6.597114
    47  H    5.655820   5.741675   6.789864   7.310414   6.910353
    48  H    3.739595   4.272132   5.550292   6.406350   6.230879
    49  H    2.757131   3.890022   4.063696   5.432020   6.418005
    50  H    4.675043   5.717295   5.763275   7.008487   8.035068
                   11         12         13         14         15
    11  C    0.000000
    12  C    1.396534   0.000000
    13  C    4.505943   3.185231   0.000000
    14  C    5.926124   4.561053   1.495250   0.000000
    15  C    6.445202   5.049969   2.525016   1.399398   0.000000
    16  C    7.841585   6.446949   3.807037   2.428511   1.398049
    17  C    8.681136   7.294279   4.316392   2.822439   2.429118
    18  N   10.058343   8.667223   5.711746   4.216770   3.705145
    19  C    8.298617   6.958440   3.794215   2.428897   2.781549
    20  C    6.995316   5.689927   2.505009   1.399384   2.408140
    21  C    4.313164   3.210152   1.495707   2.560348   3.611725
    22  C    4.419353   3.634698   2.527976   3.626947   4.852552
    23  C    4.922855   4.423246   3.808914   4.808584   5.971648
    24  C    5.306942   4.810556   4.302062   5.148264   6.108375
    25  C    5.235274   4.514600   3.794940   4.464176   5.182952
    26  C    4.759136   3.739791   2.506178   3.157659   3.841239
    27  C    6.008487   4.868858   3.177474   3.174842   3.588482
    28  C    7.067032   5.988327   4.501801   4.286999   4.378361
    29  H    9.155163   8.153642   6.916607   6.498103   6.184183
    30  H    8.665841   7.752281   7.061164   6.806390   6.303229
    31  H    6.481767   5.648553   5.675337   5.806579   5.341179
    32  H    4.224031   3.258206   3.780138   4.357394   4.149647
    33  H    3.878110   3.405757   3.732803   4.873871   5.776875
    34  H    3.398318   3.874495   5.647579   7.005159   7.855885
    35  H    2.153863   3.401681   6.223521   7.689467   8.351585
    36  H    1.086677   2.154125   5.243046   6.610748   7.015514
    37  H    2.148049   1.087195   3.090582   4.291341   4.567871
    38  H    5.942372   4.576379   2.749771   2.163051   1.087437
    39  H    8.384682   7.007823   4.668564   3.403131   2.145005
    40  H   10.401840   9.008916   6.215593   4.740770   3.970999
    41  H   10.648194   9.272572   6.210280   4.741200   4.453795
    42  H    9.140359   7.836835   4.651649   3.405148   3.868095
    43  H    6.966990   5.765356   2.716335   2.162599   3.399855
    44  H    4.560582   3.841847   2.752555   3.851276   5.159383
    45  H    5.388572   5.091859   4.681014   5.696410   6.928751
    46  H    6.004711   5.684765   5.389192   6.203155   7.138859
    47  H    5.896134   5.237958   4.660624   5.171029   5.685201
    48  H    5.136998   4.019028   2.714423   3.020138   3.299215
    49  H    6.316062   5.186879   3.076178   3.013004   3.765898
    50  H    8.005771   6.941319   5.227754   4.868676   5.031659
                   16         17         18         19         20
    16  C    0.000000
    17  C    1.396339   0.000000
    18  N    2.424433   1.398791   0.000000
    19  C    2.400673   1.395507   2.423329   0.000000
    20  C    2.781281   2.428791   3.704587   1.398462   0.000000
    21  C    4.794080   5.147588   6.524794   4.477439   3.178618
    22  C    5.977276   6.135860   7.479897   5.224926   3.885332
    23  C    7.032215   7.123630   8.420539   6.195046   4.955997
    24  C    7.102811   7.256655   8.510746   6.491968   5.385082
    25  C    6.142837   6.440572   7.681740   5.902386   4.896526
    26  C    4.901851   5.330890   6.640766   4.878365   3.812674
    27  C    4.376278   4.806634   5.880787   4.459040   3.686400
    28  C    4.879930   5.313778   6.150754   5.185776   4.714911
    29  H    6.294382   6.758909   7.183059   6.992615   6.892896
    30  H    6.565143   7.332129   7.855649   7.720627   7.500110
    31  H    6.040535   7.085950   7.944448   7.405223   6.848822
    32  H    5.287106   6.391931   7.548808   6.503184   5.620117
    33  H    6.983127   7.425242   8.708018   6.721163   5.454400
    34  H    9.164450   9.711954  11.041173   9.020107   7.685058
    35  H    9.744680  10.492469  11.873067   9.966243   8.609148
    36  H    8.393007   9.296517  10.661306   8.995079   7.727698
    37  H    5.934468   6.876302   8.224368   6.694041   5.521529
    38  H    2.149082   3.405765   4.571121   3.868758   3.400236
    39  H    1.086286   2.159612   2.667332   3.391152   3.866919
    40  H    2.587911   2.032792   1.014791   3.275561   4.451648
    41  H    3.279078   2.033930   1.015443   2.585204   3.969670
    42  H    3.391267   2.158279   2.664077   1.087158   2.147400
    43  H    3.868220   3.405207   4.570313   2.149425   1.087153
    44  H    6.270361   6.362944   7.687498   5.352418   3.989203
    45  H    7.972660   7.978456   9.250029   6.947661   5.716198
    46  H    8.084144   8.189430   9.396059   7.414547   6.369864
    47  H    6.531251   6.862486   8.018443   6.472982   5.620118
    48  H    4.287073   4.894353   6.154408   4.728086   3.858223
    49  H    4.476795   4.609756   5.690387   3.969674   3.140996
    50  H    5.325009   5.513796   6.185843   5.307855   5.010340
                   21         22         23         24         25
    21  C    0.000000
    22  C    1.401622   0.000000
    23  C    2.429748   1.397151   0.000000
    24  C    2.806816   2.417987   1.393863   0.000000
    25  C    2.431931   2.790759   2.413901   1.393442   0.000000
    26  C    1.403508   2.415363   2.788397   2.416083   1.396643
    27  C    4.571916   5.095277   6.492170   7.306010   6.961040
    28  C    5.936971   6.492983   7.889702   8.692558   8.296403
    29  H    8.395335   9.049675  10.446471  11.186969  10.676983
    30  H    8.527388   9.299519  10.674549  11.309405  10.698576
    31  H    7.012501   7.841254   9.137395   9.666646   9.024620
    32  H    4.892545   5.753608   6.947552   7.379877   6.747525
    33  H    4.258513   3.996864   5.117160   6.218509   6.401257
    34  H    5.727884   5.212511   5.870520   6.895768   7.306286
    35  H    5.987987   5.671750   5.993807   6.599395   6.888206
    36  H    4.914146   5.094213   5.396669   5.537009   5.388452
    37  H    3.083192   3.850361   4.574162   4.671420   4.078855
    38  H    3.834001   5.150422   6.253862   6.320453   5.311987
    39  H    5.673287   6.924178   7.962997   7.947177   6.888691
    40  H    7.019904   8.083931   8.995244   8.964732   8.016146
    41  H    6.873391   7.710497   8.554587   8.637478   7.893161
    42  H    5.191493   5.734006   6.603920   6.951245   6.503555
    43  H    3.070656   3.375595   4.385948   5.005416   4.799348
    44  H    2.164531   1.086923   2.147944   3.396743   3.877545
    45  H    3.411876   2.154963   1.086536   2.154363   3.399027
    46  H    3.893952   3.402687   2.153294   1.087145   2.154467
    47  H    3.414800   3.877784   3.399838   2.154851   1.087057
    48  H    2.166202   3.406769   3.876642   3.396762   2.149036
    49  H    4.310728   4.640435   6.010705   6.916108   6.706092
    50  H    6.615859   7.066624   8.448370   9.314729   8.986830
                   26         27         28         29         30
    26  C    0.000000
    27  C    5.680993   0.000000
    28  C    6.981966   1.398093   0.000000
    29  H    9.315201   3.964594   2.581993   0.000000
    30  H    9.326409   4.449434   3.274713   1.685339   0.000000
    31  H    7.707439   3.868700   3.392709   3.619609   2.420490
    32  H    5.507138   3.400719   3.868720   5.382591   4.661868
    33  H    5.545093   3.426234   4.430638   6.736971   6.875118
    34  H    6.785843   5.803450   6.674961   8.720942   8.589034
    35  H    6.604932   7.213603   8.168829  10.171105   9.715483
    36  H    5.079077   6.950440   7.987796   9.996502   9.393076
    37  H    3.240003   5.139656   6.238936   8.323562   7.853885
    38  H    3.952930   3.787378   4.504576   6.171974   5.997948
    39  H    5.657144   5.019766   5.312973   6.340626   6.449427
    40  H    6.981227   6.477635   6.687052   7.526736   8.041559
    41  H    6.973596   6.512327   6.840506   7.940064   8.726151
    42  H    5.622759   5.149307   5.808892   7.537224   8.435028
    43  H    3.901556   3.953286   5.077609   7.396008   8.097022
    44  H    3.406492   4.644690   6.015432   8.596289   8.951641
    45  H    3.874930   7.083750   8.466724  11.045716  11.340936
    46  H    3.402087   8.377624   9.767457  12.269948  12.389425
    47  H    2.155459   7.836135   9.132268  11.430977  11.381836
    48  H    1.088359   5.728602   6.922048   9.085644   8.998605
    49  H    5.512801   1.087370   2.147164   4.662613   5.387989
    50  H    7.703451   2.146927   1.086801   2.423687   3.622155
                   31         32         33         34         35
    31  H    0.000000
    32  H    2.453217   0.000000
    33  H    5.530092   4.120954   0.000000
    34  H    6.957831   5.451221   2.471748   0.000000
    35  H    7.649868   5.748127   4.294457   2.480898   0.000000
    36  H    7.110641   4.842413   4.964778   4.297700   2.483759
    37  H    5.714107   3.262141   4.312613   4.961547   4.291736
    38  H    4.728826   3.413400   5.755481   7.648256   7.918590
    39  H    6.009453   5.510832   7.745904   9.871384  10.338453
    40  H    8.100173   7.762863   9.338329  11.619468  12.300773
    41  H    8.855645   8.384275   9.199271  11.537478  12.424182
    42  H    8.305252   7.487238   7.320787   9.632143  10.711904
    43  H    7.434012   6.112760   5.162372   7.331396   8.397589
    44  H    7.631034   5.719438   3.247970   4.611317   5.525968
    45  H    9.851186   7.709548   5.346720   5.841477   6.091173
    46  H   10.714495   8.396184   7.129153   7.578901   7.120634
    47  H    9.666443   7.389499   7.413223   8.238921   7.597152
    48  H    7.381335   5.266777   6.077326   7.416125   7.143527
    49  H    4.955377   4.311993   3.421908   5.892117   7.450460
    50  H    4.299160   4.954790   5.045855   7.323666   9.007458
                   36         37         38         39         40
    36  H    0.000000
    37  H    2.467376   0.000000
    38  H    6.426922   3.985962   0.000000
    39  H    8.863835   6.410067   2.452483   0.000000
    40  H   10.930152   8.466606   4.670058   2.429384   0.000000
    41  H   11.262457   8.856713   5.393094   3.627553   1.687288
    42  H    9.866668   7.634932   4.955212   4.298519   3.621114
    43  H    7.751649   5.753323   4.309592   4.953777   5.390096
    44  H    5.393800   4.297974   5.501222   7.248737   8.375077
    45  H    5.882708   5.401587   7.242886   8.935913   9.882610
    46  H    6.112827   5.550021   7.346547   8.911855   9.833538
    47  H    5.876888   4.647274   5.749672   7.169446   8.241693
    48  H    5.370616   3.278565   3.281059   4.901572   6.356933
    49  H    7.292438   5.500677   4.218553   5.285537   6.418265
    50  H    8.960264   7.224172   5.321334   5.780008   6.800032
                   41         42         43         44         45
    41  H    0.000000
    42  H    2.421631   0.000000
    43  H    4.667582   2.455535   0.000000
    44  H    7.915044   5.784890   3.331818   0.000000
    45  H    9.325471   7.245667   5.000807   2.467750   0.000000
    46  H    9.460410   7.802186   5.946496   4.291376   2.480700
    47  H    8.215402   7.076251   5.632183   4.964549   4.298039
    48  H    6.577418   5.582576   4.232406   4.314952   4.963176
    49  H    6.174638   4.502800   3.174986   4.090926   6.523186
    50  H    6.783177   5.751649   5.286797   6.506597   8.957725
                   46         47         48         49         50
    46  H    0.000000
    47  H    2.483619   0.000000
    48  H    4.293308   2.469557   0.000000
    49  H    7.962098   7.634045   5.703215   0.000000
    50  H   10.375466   9.845505   7.687011   2.452002   0.000000
 Stoichiometry    C26H22N2
 Framework group  C1[X(C26H22N2)]
 Deg. of freedom   144
 Full point group                 C1      NOp   1
 Largest Abelian subgroup         C1      NOp   1
 Largest concise Abelian subgroup C1      NOp   1
                         Standard orientation:                         
 ---------------------------------------------------------------------
 Center     Atomic      Atomic             Coordinates (Angstroms)
 Number     Number       Type             X           Y           Z
 ---------------------------------------------------------------------
      1          7           0        4.376227   -3.806457    0.187524
      2          6           0        3.253029   -2.974326    0.102493
      3          6           0        2.328630   -3.139188   -0.930612
      4          6           0        1.155668   -2.379272   -0.966914
      5          6           0        0.862950   -1.470597    0.058364
      6          6           0       -0.413339   -0.689743    0.017397
      7          6           0       -1.700675   -1.448567   -0.062022
      8          6           0       -2.069693   -2.308262    0.980785
      9          6           0       -3.251238   -3.049898    0.901916
     10          6           0       -4.070448   -2.943880   -0.220746
     11          6           0       -3.706859   -2.102351   -1.269666
     12          6           0       -2.524238   -1.363390   -1.194473
     13          6           0       -0.408416    0.679455    0.028548
     14          6           0        0.873225    1.447507   -0.028584
     15          6           0        1.707986    1.391335   -1.150338
     16          6           0        2.881497    2.149605   -1.199724
     17          6           0        3.214665    3.018166   -0.158396
     18          7           0        4.440776    3.691380   -0.165579
     19          6           0        2.409349    3.035037    0.981175
     20          6           0        1.235558    2.277007    1.038619
     21          6           0       -1.684487    1.457498    0.087121
     22          6           0       -2.540788    1.376486    1.193797
     23          6           0       -3.714303    2.133357    1.238963
     24          6           0       -4.033709    2.990270    0.187044
     25          6           0       -3.181399    3.094084   -0.910440
     26          6           0       -2.011013    2.333567   -0.959645
     27          6           0        1.749234   -1.372061    1.138580
     28          6           0        2.929292   -2.121502    1.160166
     29          1           0        5.131094   -3.401446    0.735316
     30          1           0        4.697602   -4.140763   -0.715843
     31          1           0        2.516237   -3.856890   -1.725712
     32          1           0        0.464017   -2.514571   -1.795321
     33          1           0       -1.436482   -2.406646    1.859637
     34          1           0       -3.528814   -3.714770    1.716463
     35          1           0       -4.988435   -3.522946   -0.280425
     36          1           0       -4.340127   -2.020489   -2.148948
     37          1           0       -2.248706   -0.717275   -2.024298
     38          1           0        1.459255    0.744793   -1.988571
     39          1           0        3.529921    2.056652   -2.066281
     40          1           0        4.792852    3.891234   -1.096117
     41          1           0        4.466074    4.505248    0.441135
     42          1           0        2.686806    3.642486    1.839042
     43          1           0        0.612667    2.331117    1.927990
     44          1           0       -2.301798    0.719508    2.026062
     45          1           0       -4.377539    2.052261    2.095761
     46          1           0       -4.946472    3.579561    0.225589
     47          1           0       -3.423732    3.769176   -1.727274
     48          1           0       -1.351241    2.429432   -1.819898
     49          1           0        1.531734   -0.707629    1.971404
     50          1           0        3.593197   -2.034532    2.016206
 ---------------------------------------------------------------------
 Rotational constants (GHZ):           0.2074969           0.1625209           0.1017927
 Standard basis: 6-31G(d,p) (6D, 7F)
 There are   530 symmetry adapted cartesian basis functions of A   symmetry.
 There are   530 symmetry adapted basis functions of A   symmetry.
   530 basis functions,   938 primitive gaussians,   530 cartesian basis functions
    96 alpha electrons       96 beta electrons
       nuclear repulsion energy      2401.8105590848 Hartrees.
 NAtoms=   50 NActive=   50 NUniq=   50 SFac= 1.00D+00 NAtFMM=   60 NAOKFM=F Big=F
 Integral buffers will be    131072 words long.
 Raffenetti 2 integral format.
 Two-electron integral symmetry is turned on.
 Force inversion solution in PCM.
 ------------------------------------------------------------------------------
 Polarizable Continuum Model (PCM)
 =================================
 Model                : PCM.
 Atomic radii         : UFF (Universal Force Field).
 Polarization charges : Total charges.
 Charge compensation  : None.
 Solution method      : Matrix inversion.
 Cavity type          : Scaled VdW (van der Waals Surface) (Alpha=1.100).
 Cavity algorithm     : GePol (No added spheres)
                        Default sphere list used, NSphG=   50.
                        Lebedev-Laikov grids with approx.  5.0 points / Ang**2.
                        Smoothing algorithm: York/Karplus (Gamma=1.0000).
                        Polarization charges: spherical gaussians, with
                                              point-specific exponents (IZeta= 3).
                        Self-potential: point-specific (ISelfS= 7).
                        Self-field    : sphere-specific E.n sum rule (ISelfD= 2).
 1st derivatives      : Analytical E(r).r(x)/FMM algorithm (CHGder, D1EAlg=3).
                        Cavity 1st derivative terms included.
 2nd derivatives      : Analytical E(r).r(xy)/FMM algorithm (CHGder, D2EAlg=3).
                        Cavity 2nd derivative terms included.
 Solvent              : Water, Eps=  78.355300 Eps(inf)=   1.777849
 ------------------------------------------------------------------------------
 One-electron integrals computed using PRISM.
 NBasis=   530 RedAO= T EigKep=  4.28D-04  NBF=   530
 NBsUse=   530 1.00D-06 EigRej= -1.00D+00 NBFU=   530
 ExpMin= 1.61D-01 ExpMax= 4.17D+03 ExpMxC= 6.27D+02 IAcc=3 IRadAn=         5 AccDes= 0.00D+00
 Harris functional with IExCor=  402 and IRadAn=       5 diagonalized for initial guess.
 HarFok:  IExCor=  402 AccDes= 0.00D+00 IRadAn=         5 IDoV= 1 UseB2=F ITyADJ=14
 ICtDFT=  3500011 ScaDFX=  1.000000  1.000000  1.000000  1.000000
 FoFCou: FMM=F IPFlag=           0 FMFlag=      100000 FMFlg1=           0
         NFxFlg=           0 DoJE=T BraDBF=F KetDBF=T FulRan=T
         wScrn=  0.000000 ICntrl=       500 IOpCl=  0 I1Cent=   200000004 NGrid=           0
         NMat0=    1 NMatS0=      1 NMatT0=    0 NMatD0=    1 NMtDS0=    0 NMtDT0=    0
 Petite list used in FoFCou.
 Requested convergence on RMS density matrix=1.00D-08 within  32 cycles.
 Requested convergence on MAX density matrix=1.00D-06.
 Requested convergence on             energy=1.00D-06.
 No special actions if energy rises.
 Inv3:  Mode=1 IEnd=    39204675.
 Iteration    1 A*A^-1 deviation from unit magnitude is 3.89D-15 for   3166.
 Iteration    1 A*A^-1 deviation from orthogonality  is 2.78D-15 for   2831    199.
 Iteration    1 A^-1*A deviation from unit magnitude is 3.89D-15 for   3166.
 Iteration    1 A^-1*A deviation from orthogonality  is 6.34D-14 for   2734   2711.
 Error on total polarization charges =  0.01191
 SCF Done:  E(RB3LYP) =  -1113.56253637     A.U. after   12 cycles
            NFock= 12  Conv=0.91D-08     -V/T= 2.0098
 QCSCF skips out because SCF is already converged.
 DoSCS=F DFT=T ScalE2(SS,OS)=  1.000000  1.000000
 Range of M.O.s used for correlation:     1   530
 NBasis=   530 NAE=    96 NBE=    96 NFC=     0 NFV=     0
 NROrb=    530 NOA=    96 NOB=    96 NVA=   434 NVB=   434
 Symmetrizing basis deriv contribution to polar:
 IMax=3 JMax=2 DiffMx= 0.00D+00
 G2DrvN: will do    51 centers at a time, making    1 passes.
 Calling FoFCou, ICntrl=  3107 FMM=F I1Cent=   0 AccDes= 0.00D+00.
 NEqPCM:  Using equilibrium solvation (IEInf=0, Eps=  78.3553, EpsInf=   1.7778)
 G2PCM: DoFxE=T DoFxN=T DoGrad=T DoDP/DQ/DG/TGxP=FFFF NFrqRd=   0 IEInf=0 SqF1=F DoCFld=F IF1Alg=4.
 End of G2Drv F.D. properties file   721 does not exist.
 End of G2Drv F.D. properties file   722 does not exist.
 End of G2Drv F.D. properties file   788 does not exist.
          IDoAtm=11111111111111111111111111111111111111111111111111
 NEqPCM:  Using equilibrium solvation (IEInf=0, Eps=  78.3553, EpsInf=   1.7778)
          Differentiating once with respect to nuclear coordinates.
 CalDSu exits because no D1Ps are significant.
          There are   153 degrees of freedom in the 1st order CPHF.  IDoFFX=6 NUNeed=     0.
    147 vectors produced by pass  0 Test12= 4.17D-14 1.00D-09 XBig12= 1.39D-01 7.80D-02.
 AX will form   147 AO Fock derivatives at one time.
    147 vectors produced by pass  1 Test12= 4.17D-14 1.00D-09 XBig12= 2.06D-02 2.63D-02.
    147 vectors produced by pass  2 Test12= 4.17D-14 1.00D-09 XBig12= 1.80D-04 2.25D-03.
    147 vectors produced by pass  3 Test12= 4.17D-14 1.00D-09 XBig12= 6.27D-07 6.72D-05.
    147 vectors produced by pass  4 Test12= 4.17D-14 1.00D-09 XBig12= 1.02D-09 2.87D-06.
    104 vectors produced by pass  5 Test12= 4.17D-14 1.00D-09 XBig12= 1.42D-12 1.02D-07.
     16 vectors produced by pass  6 Test12= 4.17D-14 1.00D-09 XBig12= 1.77D-15 3.29D-09.
 InvSVY:  IOpt=1 It=  1 EMax= 5.55D-16
 Solved reduced A of dimension   855 with   153 vectors.
 End of Minotr F.D. properties file   721 does not exist.
 End of Minotr F.D. properties file   722 does not exist.
 End of Minotr F.D. properties file   788 does not exist.

 **********************************************************************

            Population analysis using the SCF density.

 **********************************************************************

 Orbital symmetries:
       Occupied  (A) (A) (A) (A) (A) (A) (A) (A) (A) (A) (A) (A)
                 (A) (A) (A) (A) (A) (A) (A) (A) (A) (A) (A) (A)
                 (A) (A) (A) (A) (A) (A) (A) (A) (A) (A) (A) (A)
                 (A) (A) (A) (A) (A) (A) (A) (A) (A) (A) (A) (A)
                 (A) (A) (A) (A) (A) (A) (A) (A) (A) (A) (A) (A)
                 (A) (A) (A) (A) (A) (A) (A) (A) (A) (A) (A) (A)
                 (A) (A) (A) (A) (A) (A) (A) (A) (A) (A) (A) (A)
                 (A) (A) (A) (A) (A) (A) (A) (A) (A) (A) (A) (A)
       Virtual   (A) (A) (A) (A) (A) (A) (A) (A) (A) (A) (A) (A)
                 (A) (A) (A) (A) (A) (A) (A) (A) (A) (A) (A) (A)
                 (A) (A) (A) (A) (A) (A) (A) (A) (A) (A) (A) (A)
                 (A) (A) (A) (A) (A) (A) (A) (A) (A) (A) (A) (A)
                 (A) (A) (A) (A) (A) (A) (A) (A) (A) (A) (A) (A)
                 (A) (A) (A) (A) (A) (A) (A) (A) (A) (A) (A) (A)
                 (A) (A) (A) (A) (A) (A) (A) (A) (A) (A) (A) (A)
                 (A) (A) (A) (A) (A) (A) (A) (A) (A) (A) (A) (A)
                 (A) (A) (A) (A) (A) (A) (A) (A) (A) (A) (A) (A)
                 (A) (A) (A) (A) (A) (A) (A) (A) (A) (A) (A) (A)
                 (A) (A) (A) (A) (A) (A) (A) (A) (A) (A) (A) (A)
                 (A) (A) (A) (A) (A) (A) (A) (A) (A) (A) (A) (A)
                 (A) (A) (A) (A) (A) (A) (A) (A) (A) (A) (A) (A)
                 (A) (A) (A) (A) (A) (A) (A) (A) (A) (A) (A) (A)
                 (A) (A) (A) (A) (A) (A) (A) (A) (A) (A) (A) (A)
                 (A) (A) (A) (A) (A) (A) (A) (A) (A) (A) (A) (A)
                 (A) (A) (A) (A) (A) (A) (A) (A) (A) (A) (A) (A)
                 (A) (A) (A) (A) (A) (A) (A) (A) (A) (A) (A) (A)
                 (A) (A) (A) (A) (A) (A) (A) (A) (A) (A) (A) (A)
                 (A) (A) (A) (A) (A) (A) (A) (A) (A) (A) (A) (A)
                 (A) (A) (A) (A) (A) (A) (A) (A) (A) (A) (A) (A)
                 (A) (A) (A) (A) (A) (A) (A) (A) (A) (A) (A) (A)
                 (A) (A) (A) (A) (A) (A) (A) (A) (A) (A) (A) (A)
                 (A) (A) (A) (A) (A) (A) (A) (A) (A) (A) (A) (A)
                 (A) (A) (A) (A) (A) (A) (A) (A) (A) (A) (A) (A)
                 (A) (A) (A) (A) (A) (A) (A) (A) (A) (A) (A) (A)
                 (A) (A) (A) (A) (A) (A) (A) (A) (A) (A) (A) (A)
                 (A) (A) (A) (A) (A) (A) (A) (A) (A) (A) (A) (A)
                 (A) (A) (A) (A) (A) (A) (A) (A) (A) (A) (A) (A)
                 (A) (A) (A) (A) (A) (A) (A) (A) (A) (A) (A) (A)
                 (A) (A) (A) (A) (A) (A) (A) (A) (A) (A) (A) (A)
                 (A) (A) (A) (A) (A) (A) (A) (A) (A) (A) (A) (A)
                 (A) (A) (A) (A) (A) (A) (A) (A) (A) (A) (A) (A)
                 (A) (A) (A) (A) (A) (A) (A) (A) (A) (A) (A) (A)
                 (A) (A) (A) (A) (A) (A) (A) (A) (A) (A) (A) (A)
                 (A) (A) (A) (A) (A) (A) (A) (A) (A) (A) (A) (A)
                 (A) (A)
 The electronic state is 1-A.
 Alpha  occ. eigenvalues --  -14.33602 -14.33578 -10.22477 -10.22470 -10.19759
 Alpha  occ. eigenvalues --  -10.19741 -10.19663 -10.19576 -10.18933 -10.18918
 Alpha  occ. eigenvalues --  -10.18898 -10.18890 -10.18820 -10.18808 -10.18805
 Alpha  occ. eigenvalues --  -10.18802 -10.18779 -10.18766 -10.18745 -10.18700
 Alpha  occ. eigenvalues --  -10.18697 -10.18666 -10.18665 -10.18600 -10.18151
 Alpha  occ. eigenvalues --  -10.18141 -10.18103 -10.18095  -0.91370  -0.91348
 Alpha  occ. eigenvalues --   -0.86812  -0.85229  -0.84202  -0.83398  -0.79817
 Alpha  occ. eigenvalues --   -0.75823  -0.74278  -0.74258  -0.74084  -0.74048
 Alpha  occ. eigenvalues --   -0.73560  -0.72348  -0.68876  -0.63063  -0.61209
 Alpha  occ. eigenvalues --   -0.61168  -0.60240  -0.60099  -0.59673  -0.58883
 Alpha  occ. eigenvalues --   -0.57599  -0.54268  -0.52161  -0.51238  -0.51125
 Alpha  occ. eigenvalues --   -0.50284  -0.50070  -0.49087  -0.47565  -0.45961
 Alpha  occ. eigenvalues --   -0.45266  -0.44942  -0.44270  -0.43533  -0.43153
 Alpha  occ. eigenvalues --   -0.42919  -0.42616  -0.41892  -0.41730  -0.41556
 Alpha  occ. eigenvalues --   -0.41277  -0.40950  -0.40828  -0.38377  -0.37977
 Alpha  occ. eigenvalues --   -0.37339  -0.36315  -0.35922  -0.35447  -0.34851
 Alpha  occ. eigenvalues --   -0.34569  -0.34150  -0.33974  -0.33802  -0.31986
 Alpha  occ. eigenvalues --   -0.30836  -0.30409  -0.26556  -0.25726  -0.25119
 Alpha  occ. eigenvalues --   -0.24910  -0.24843  -0.24624  -0.22983  -0.20874
 Alpha  occ. eigenvalues --   -0.18739
 Alpha virt. eigenvalues --   -0.02994  -0.01197  -0.00497  -0.00311   0.00324
 Alpha virt. eigenvalues --    0.00539   0.00707   0.02790   0.05319   0.09324
 Alpha virt. eigenvalues --    0.09421   0.09599   0.10367   0.10854   0.11808
 Alpha virt. eigenvalues --    0.12525   0.13474   0.14122   0.14908   0.15280
 Alpha virt. eigenvalues --    0.15407   0.15875   0.16313   0.16407   0.17007
 Alpha virt. eigenvalues --    0.17337   0.17591   0.17912   0.18674   0.18934
 Alpha virt. eigenvalues --    0.19124   0.19684   0.20215   0.20481   0.21334
 Alpha virt. eigenvalues --    0.24696   0.24956   0.25701   0.27217   0.27551
 Alpha virt. eigenvalues --    0.29259   0.29408   0.30627   0.30895   0.31485
 Alpha virt. eigenvalues --    0.32213   0.32749   0.33757   0.33771   0.34290
 Alpha virt. eigenvalues --    0.34426   0.34655   0.35561   0.35630   0.36288
 Alpha virt. eigenvalues --    0.37055   0.43244   0.45114   0.46334   0.46669
 Alpha virt. eigenvalues --    0.47231   0.48037   0.49196   0.50040   0.51407
 Alpha virt. eigenvalues --    0.52181   0.52406   0.53008   0.53198   0.53447
 Alpha virt. eigenvalues --    0.53893   0.54439   0.54723   0.55077   0.55151
 Alpha virt. eigenvalues --    0.55623   0.56017   0.57311   0.57532   0.58342
 Alpha virt. eigenvalues --    0.58388   0.58841   0.59013   0.59440   0.59606
 Alpha virt. eigenvalues --    0.59898   0.60043   0.60087   0.60409   0.60653
 Alpha virt. eigenvalues --    0.60811   0.60866   0.61296   0.61596   0.61687
 Alpha virt. eigenvalues --    0.61819   0.62479   0.62861   0.63187   0.64824
 Alpha virt. eigenvalues --    0.65011   0.65682   0.66078   0.66270   0.67082
 Alpha virt. eigenvalues --    0.67469   0.68234   0.69315   0.70120   0.70571
 Alpha virt. eigenvalues --    0.70784   0.71624   0.72326   0.75238   0.75884
 Alpha virt. eigenvalues --    0.76126   0.76512   0.77751   0.79039   0.79702
 Alpha virt. eigenvalues --    0.81076   0.81992   0.82195   0.82536   0.82667
 Alpha virt. eigenvalues --    0.82748   0.82863   0.83001   0.83269   0.84501
 Alpha virt. eigenvalues --    0.84784   0.85327   0.85525   0.85859   0.85978
 Alpha virt. eigenvalues --    0.86622   0.87338   0.87631   0.88312   0.88702
 Alpha virt. eigenvalues --    0.89213   0.89282   0.89423   0.90061   0.90371
 Alpha virt. eigenvalues --    0.91059   0.92264   0.93259   0.94973   0.95698
 Alpha virt. eigenvalues --    0.96714   0.97529   0.98416   0.99076   0.99707
 Alpha virt. eigenvalues --    1.00017   1.01000   1.01062   1.01300   1.01666
 Alpha virt. eigenvalues --    1.02396   1.05675   1.06089   1.06936   1.07035
 Alpha virt. eigenvalues --    1.09369   1.09979   1.11321   1.13498   1.13706
 Alpha virt. eigenvalues --    1.14782   1.15034   1.16021   1.16961   1.17419
 Alpha virt. eigenvalues --    1.18048   1.20582   1.20750   1.21408   1.22505
 Alpha virt. eigenvalues --    1.23912   1.24952   1.26082   1.27212   1.27391
 Alpha virt. eigenvalues --    1.29694   1.29887   1.31341   1.32532   1.33407
 Alpha virt. eigenvalues --    1.34130   1.34831   1.35902   1.36657   1.39385
 Alpha virt. eigenvalues --    1.39601   1.40276   1.40619   1.40690   1.41102
 Alpha virt. eigenvalues --    1.41167   1.41580   1.41938   1.42367   1.42697
 Alpha virt. eigenvalues --    1.42814   1.44359   1.44672   1.46352   1.46990
 Alpha virt. eigenvalues --    1.47927   1.50036   1.51441   1.52540   1.53952
 Alpha virt. eigenvalues --    1.54619   1.64541   1.65224   1.66746   1.70077
 Alpha virt. eigenvalues --    1.73129   1.73697   1.75053   1.77121   1.77408
 Alpha virt. eigenvalues --    1.78280   1.78716   1.79030   1.80150   1.81274
 Alpha virt. eigenvalues --    1.81537   1.81816   1.82183   1.82521   1.84142
 Alpha virt. eigenvalues --    1.84960   1.86132   1.86716   1.87290   1.88044
 Alpha virt. eigenvalues --    1.89434   1.89777   1.90527   1.91343   1.92426
 Alpha virt. eigenvalues --    1.92665   1.93370   1.93616   1.94835   1.95224
 Alpha virt. eigenvalues --    1.96470   1.96668   1.97002   1.97696   1.97808
 Alpha virt. eigenvalues --    1.98342   1.98622   1.99283   1.99496   2.00041
 Alpha virt. eigenvalues --    2.00298   2.00740   2.00980   2.03699   2.03814
 Alpha virt. eigenvalues --    2.04952   2.06651   2.07204   2.07807   2.08570
 Alpha virt. eigenvalues --    2.09025   2.10268   2.11014   2.12250   2.14204
 Alpha virt. eigenvalues --    2.16224   2.16646   2.18389   2.23147   2.24147
 Alpha virt. eigenvalues --    2.24594   2.25329   2.26026   2.26672   2.27397
 Alpha virt. eigenvalues --    2.28033   2.28605   2.29482   2.30184   2.30773
 Alpha virt. eigenvalues --    2.31837   2.33038   2.34096   2.35130   2.35651
 Alpha virt. eigenvalues --    2.35934   2.36258   2.36809   2.37340   2.37398
 Alpha virt. eigenvalues --    2.39035   2.39429   2.39736   2.39953   2.40693
 Alpha virt. eigenvalues --    2.41423   2.41796   2.41981   2.42335   2.42852
 Alpha virt. eigenvalues --    2.44874   2.44951   2.45324   2.45816   2.46492
 Alpha virt. eigenvalues --    2.46656   2.47244   2.47327   2.48237   2.49008
 Alpha virt. eigenvalues --    2.49662   2.49818   2.50611   2.51420   2.51927
 Alpha virt. eigenvalues --    2.52467   2.52612   2.53919   2.54674   2.55028
 Alpha virt. eigenvalues --    2.55913   2.57212   2.57565   2.58555   2.59506
 Alpha virt. eigenvalues --    2.59777   2.60173   2.60555   2.60797   2.64007
 Alpha virt. eigenvalues --    2.64676   2.65541   2.65962   2.66688   2.67108
 Alpha virt. eigenvalues --    2.67701   2.68653   2.70402   2.71881   2.72811
 Alpha virt. eigenvalues --    2.73553   2.75975   2.76643   2.77523   2.78877
 Alpha virt. eigenvalues --    2.79470   2.80777   2.81249   2.82961   2.83223
 Alpha virt. eigenvalues --    2.85810   2.87534   2.88482   2.89447   2.96859
 Alpha virt. eigenvalues --    2.98426   2.98822   2.99469   3.00169   3.05657
 Alpha virt. eigenvalues --    3.06131   3.06347   3.06950   3.07589   3.09201
 Alpha virt. eigenvalues --    3.15682   3.18817   3.18998   3.21292   3.21940
 Alpha virt. eigenvalues --    3.23894   3.24109   3.24958   3.25378   3.25719
 Alpha virt. eigenvalues --    3.25888   3.28307   3.28697   3.30716   3.31431
 Alpha virt. eigenvalues --    3.36344   3.36469   3.38160   3.38734   3.42619
 Alpha virt. eigenvalues --    3.43410   3.48669   3.49088   3.50672   3.51047
 Alpha virt. eigenvalues --    3.53450   3.54122   3.83262   3.83452   3.89463
 Alpha virt. eigenvalues --    3.89508   4.04425   4.04644   4.12385   4.13622
 Alpha virt. eigenvalues --    4.14043   4.14507   4.15173   4.15521   4.15957
 Alpha virt. eigenvalues --    4.17531   4.17955   4.21870   4.26979   4.29200
 Alpha virt. eigenvalues --    4.33054   4.41107   4.42753   4.44702   4.45890
 Alpha virt. eigenvalues --    4.47437   4.50598   4.51363   4.52674   4.63250
 Alpha virt. eigenvalues --    4.82791   4.83721   4.84261   4.88511
          Condensed to atoms (all electrons):
               1          2          3          4          5          6
     1  N    6.833425   0.296982  -0.070542   0.004633   0.000449  -0.000000
     2  C    0.296982   4.581740   0.539893  -0.026027  -0.028985   0.000669
     3  C   -0.070542   0.539893   4.954080   0.508901  -0.032092   0.005986
     4  C    0.004633  -0.026027   0.508901   4.908504   0.527733  -0.049779
     5  C    0.000449  -0.028985  -0.032092   0.527733   4.830412   0.337077
     6  C   -0.000000   0.000669   0.005986  -0.049779   0.337077   5.112886
     7  C    0.000000   0.000050   0.000147  -0.001669  -0.063586   0.326914
     8  C    0.000000   0.000001  -0.000108   0.000426  -0.000312  -0.050212
     9  C    0.000000   0.000000  -0.000005  -0.000098   0.000133   0.005934
    10  C   -0.000000  -0.000000  -0.000000   0.000003   0.000042   0.000532
    11  C    0.000000   0.000000   0.000001  -0.000102  -0.000081   0.006079
    12  C   -0.000000   0.000001   0.000038   0.000354  -0.000916  -0.044741
    13  C   -0.000000   0.000007  -0.000030   0.000940  -0.043815   0.564239
    14  C    0.000000   0.000009  -0.000070   0.000086  -0.011774  -0.045713
    15  C   -0.000000   0.000048   0.000015  -0.001090   0.001720  -0.008080
    16  C   -0.000000   0.000007   0.000008  -0.000065  -0.000453   0.000365
    17  C    0.000000  -0.000002  -0.000000   0.000005   0.000032   0.000041
    18  N   -0.000000   0.000000   0.000000  -0.000000   0.000000   0.000000
    19  C    0.000000   0.000000  -0.000000  -0.000001  -0.000112  -0.000049
    20  C   -0.000000   0.000003   0.000000   0.000028   0.000180   0.000498
    21  C    0.000000   0.000000   0.000002  -0.000148   0.005672  -0.045834
    22  C   -0.000000  -0.000000  -0.000000   0.000003   0.000009  -0.008284
    23  C    0.000000   0.000000  -0.000000   0.000000   0.000004   0.000355
    24  C    0.000000   0.000000   0.000000  -0.000000  -0.000000   0.000021
    25  C   -0.000000   0.000000   0.000000  -0.000000   0.000002  -0.000060
    26  C   -0.000000  -0.000000  -0.000000   0.000001  -0.000144   0.000925
    27  C    0.004553  -0.026180  -0.046438  -0.038431   0.536289  -0.043931
    28  C   -0.070853   0.536901  -0.048365  -0.045972  -0.034300   0.006065
    29  H    0.342644  -0.025140   0.005483  -0.000188   0.000001  -0.000000
    30  H    0.342928  -0.025497  -0.009351  -0.000061   0.000004  -0.000000
    31  H   -0.007407  -0.043734   0.363297  -0.032948   0.003780  -0.000196
    32  H   -0.000113   0.003922  -0.037697   0.364930  -0.043972  -0.008151
    33  H   -0.000000  -0.000013  -0.000028   0.000318   0.003010  -0.006927
    34  H    0.000000  -0.000000   0.000000   0.000001  -0.000002  -0.000195
    35  H    0.000000  -0.000000  -0.000000   0.000000   0.000000   0.000003
    36  H    0.000000  -0.000000   0.000000   0.000001   0.000001  -0.000184
    37  H   -0.000000   0.000000   0.000004  -0.000008   0.000079  -0.005626
    38  H   -0.000000  -0.000003   0.000160   0.001824   0.001209   0.003067
    39  H    0.000000  -0.000000  -0.000000  -0.000003  -0.000000  -0.000008
    40  H    0.000000  -0.000000  -0.000000   0.000000   0.000000   0.000000
    41  H    0.000000  -0.000000  -0.000000   0.000000  -0.000000   0.000000
    42  H   -0.000000   0.000000   0.000000  -0.000000  -0.000000  -0.000000
    43  H   -0.000000   0.000000  -0.000000   0.000001   0.000028   0.000519
    44  H   -0.000000   0.000000  -0.000000   0.000001  -0.000190   0.003151
    45  H   -0.000000  -0.000000   0.000000   0.000000  -0.000000  -0.000006
    46  H    0.000000   0.000000  -0.000000  -0.000000   0.000000   0.000000
    47  H    0.000000  -0.000000  -0.000000   0.000000  -0.000000   0.000001
    48  H   -0.000000  -0.000000  -0.000000  -0.000000  -0.000021   0.000495
    49  H   -0.000112   0.004068   0.000522   0.005686  -0.044439  -0.005721
    50  H   -0.007271  -0.043998   0.005119   0.000693   0.003842  -0.000188
               7          8          9         10         11         12
     1  N    0.000000   0.000000   0.000000  -0.000000   0.000000  -0.000000
     2  C    0.000050   0.000001   0.000000  -0.000000   0.000000   0.000001
     3  C    0.000147  -0.000108  -0.000005  -0.000000   0.000001   0.000038
     4  C   -0.001669   0.000426  -0.000098   0.000003  -0.000102   0.000354
     5  C   -0.063586  -0.000312   0.000133   0.000042  -0.000081  -0.000916
     6  C    0.326914  -0.050212   0.005934   0.000532   0.006079  -0.044741
     7  C    4.830376   0.528716  -0.022746  -0.033471  -0.025692   0.536579
     8  C    0.528716   4.911421   0.513472  -0.043110  -0.044205  -0.043760
     9  C   -0.022746   0.513472   4.850973   0.545044  -0.032305  -0.045567
    10  C   -0.033471  -0.043110   0.545044   4.828270   0.545635  -0.043083
    11  C   -0.025692  -0.044205  -0.032305   0.545635   4.861332   0.504901
    12  C    0.536579  -0.043760  -0.045567  -0.043083   0.504901   4.907580
    13  C   -0.046589   0.000699  -0.000059   0.000021   0.000361  -0.008137
    14  C    0.005744  -0.000153   0.000002  -0.000000   0.000004   0.000012
    15  C    0.000014   0.000003  -0.000000   0.000000   0.000000   0.000009
    16  C    0.000004   0.000000  -0.000000   0.000000   0.000000   0.000000
    17  C   -0.000000  -0.000000   0.000000   0.000000  -0.000000  -0.000000
    18  N    0.000000  -0.000000  -0.000000   0.000000  -0.000000  -0.000000
    19  C    0.000003  -0.000000   0.000000   0.000000  -0.000000  -0.000000
    20  C   -0.000155   0.000002  -0.000000  -0.000000   0.000000   0.000003
    21  C   -0.012406   0.000195  -0.000099   0.000022  -0.000366   0.001853
    22  C    0.001986  -0.001242   0.000003   0.000068  -0.000307   0.000643
    23  C   -0.000372  -0.000097   0.000007   0.000014   0.000012  -0.000295
    24  C    0.000022   0.000006  -0.000000  -0.000003   0.000014   0.000064
    25  C   -0.000092  -0.000000   0.000000  -0.000000   0.000007   0.000003
    26  C    0.000151   0.000026  -0.000000   0.000006  -0.000097  -0.001124
    27  C    0.000563   0.000525   0.000019   0.000001   0.000002  -0.000076
    28  C   -0.000121  -0.000070   0.000001   0.000000  -0.000000   0.000003
    29  H    0.000000   0.000000   0.000000  -0.000000  -0.000000   0.000000
    30  H    0.000000   0.000000   0.000000  -0.000000   0.000000   0.000000
    31  H   -0.000005   0.000001   0.000000  -0.000000  -0.000000  -0.000001
    32  H    0.003795   0.000354  -0.000049  -0.000013   0.000127   0.002543
    33  H   -0.045091   0.369125  -0.041907   0.004808   0.000281   0.005623
    34  H    0.003709  -0.036652   0.368977  -0.041218   0.004467   0.000846
    35  H    0.000542   0.004876  -0.041379   0.371879  -0.041319   0.004853
    36  H    0.003789   0.000806   0.004481  -0.041200   0.368539  -0.035884
    37  H   -0.045440   0.005760   0.000268   0.004906  -0.041483   0.369054
    38  H   -0.000207   0.000001  -0.000000   0.000000   0.000001   0.000024
[...]
   321    C   22  px     Ryd( 3p)     0.00292
   322    C   22  py     Val( 2p)     1.12383
   323    C   22  py     Ryd( 3p)     0.00341
   324    C   22  pz     Val( 2p)     1.08908
   325    C   22  pz     Ryd( 3p)     0.00356
   326    C   22  dxy    Ryd( 3d)     0.00049
   327    C   22  dxz    Ryd( 3d)     0.00049
   328    C   22  dyz    Ryd( 3d)     0.00059
   329    C   22  dx2y2  Ryd( 3d)     0.00057
   330    C   22  dz2    Ryd( 3d)     0.00048

   331    C   23  S      Cor( 1S)     1.99910
   332    C   23  S      Val( 2S)     0.96138
   333    C   23  S      Ryd( 3S)     0.00059
   334    C   23  S      Ryd( 4S)     0.00003
   335    C   23  px     Val( 2p)     1.10151
   336    C   23  px     Ryd( 3p)     0.00389
   337    C   23  py     Val( 2p)     1.05385
   338    C   23  py     Ryd( 3p)     0.00321
   339    C   23  pz     Val( 2p)     1.12364
   340    C   23  pz     Ryd( 3p)     0.00371
   341    C   23  dxy    Ryd( 3d)     0.00045
   342    C   23  dxz    Ryd( 3d)     0.00065
   343    C   23  dyz    Ryd( 3d)     0.00046
   344    C   23  dx2y2  Ryd( 3d)     0.00065
   345    C   23  dz2    Ryd( 3d)     0.00044

   346    C   24  S      Cor( 1S)     1.99910
   347    C   24  S      Val( 2S)     0.96131
   348    C   24  S      Ryd( 3S)     0.00054
   349    C   24  S      Ryd( 4S)     0.00003
   350    C   24  px     Val( 2p)     1.15219
   351    C   24  px     Ryd( 3p)     0.00409
   352    C   24  py     Val( 2p)     1.09558
   353    C   24  py     Ryd( 3p)     0.00366
   354    C   24  pz     Val( 2p)     1.05673
   355    C   24  pz     Ryd( 3p)     0.00363
   356    C   24  dxy    Ryd( 3d)     0.00060
   357    C   24  dxz    Ryd( 3d)     0.00047
   358    C   24  dyz    Ryd( 3d)     0.00043
   359    C   24  dx2y2  Ryd( 3d)     0.00045
   360    C   24  dz2    Ryd( 3d)     0.00056

   361    C   25  S      Cor( 1S)     1.99911
   362    C   25  S      Val( 2S)     0.96152
   363    C   25  S      Ryd( 3S)     0.00059
   364    C   25  S      Ryd( 4S)     0.00003
   365    C   25  px     Val( 2p)     1.05740
   366    C   25  px     Ryd( 3p)     0.00368
   367    C   25  py     Val( 2p)     1.12077
   368    C   25  py     Ryd( 3p)     0.00353
   369    C   25  pz     Val( 2p)     1.09481
   370    C   25  pz     Ryd( 3p)     0.00347
   371    C   25  dxy    Ryd( 3d)     0.00051
   372    C   25  dxz    Ryd( 3d)     0.00048
   373    C   25  dyz    Ryd( 3d)     0.00062
   374    C   25  dx2y2  Ryd( 3d)     0.00057
   375    C   25  dz2    Ryd( 3d)     0.00048

   376    C   26  S      Cor( 1S)     1.99903
   377    C   26  S      Val( 2S)     0.95133
   378    C   26  S      Ryd( 3S)     0.00071
   379    C   26  S      Ryd( 4S)     0.00005
   380    C   26  px     Val( 2p)     1.11143
   381    C   26  px     Ryd( 3p)     0.00350
   382    C   26  py     Val( 2p)     1.05200
   383    C   26  py     Ryd( 3p)     0.00284
   384    C   26  pz     Val( 2p)     1.12107
   385    C   26  pz     Ryd( 3p)     0.00364
   386    C   26  dxy    Ryd( 3d)     0.00046
   387    C   26  dxz    Ryd( 3d)     0.00064
   388    C   26  dyz    Ryd( 3d)     0.00048
   389    C   26  dx2y2  Ryd( 3d)     0.00057
   390    C   26  dz2    Ryd( 3d)     0.00042

   391    C   27  S      Cor( 1S)     1.99904
   392    C   27  S      Val( 2S)     0.95398
   393    C   27  S      Ryd( 3S)     0.00073
   394    C   27  S      Ryd( 4S)     0.00005
   395    C   27  px     Val( 2p)     1.03890
   396    C   27  px     Ryd( 3p)     0.00302
   397    C   27  py     Val( 2p)     1.11093
   398    C   27  py     Ryd( 3p)     0.00337
   399    C   27  pz     Val( 2p)     1.08877
   400    C   27  pz     Ryd( 3p)     0.00374
   401    C   27  dxy    Ryd( 3d)     0.00048
   402    C   27  dxz    Ryd( 3d)     0.00052
   403    C   27  dyz    Ryd( 3d)     0.00062
   404    C   27  dx2y2  Ryd( 3d)     0.00061
   405    C   27  dz2    Ryd( 3d)     0.00047

   406    C   28  S      Cor( 1S)     1.99904
   407    C   28  S      Val( 2S)     0.95730
   408    C   28  S      Ryd( 3S)     0.00065
   409    C   28  S      Ryd( 4S)     0.00004
   410    C   28  px     Val( 2p)     1.12499
   411    C   28  px     Ryd( 3p)     0.00375
   412    C   28  py     Val( 2p)     1.05499
   413    C   28  py     Ryd( 3p)     0.00276
   414    C   28  pz     Val( 2p)     1.12894
   415    C   28  pz     Ryd( 3p)     0.00323
   416    C   28  dxy    Ryd( 3d)     0.00041
   417    C   28  dxz    Ryd( 3d)     0.00061
   418    C   28  dyz    Ryd( 3d)     0.00049
   419    C   28  dx2y2  Ryd( 3d)     0.00059
   420    C   28  dz2    Ryd( 3d)     0.00041

   421    H   29  S      Val( 1S)     0.57372
   422    H   29  S      Ryd( 2S)     0.00109
   423    H   29  px     Ryd( 2p)     0.00047
   424    H   29  py     Ryd( 2p)     0.00039
   425    H   29  pz     Ryd( 2p)     0.00038

   426    H   30  S      Val( 1S)     0.57394
   427    H   30  S      Ryd( 2S)     0.00112
   428    H   30  px     Ryd( 2p)     0.00026
   429    H   30  py     Ryd( 2p)     0.00042
   430    H   30  pz     Ryd( 2p)     0.00055

   431    H   31  S      Val( 1S)     0.74815
   432    H   31  S      Ryd( 2S)     0.00091
   433    H   31  px     Ryd( 2p)     0.00008
   434    H   31  py     Ryd( 2p)     0.00028
   435    H   31  pz     Ryd( 2p)     0.00023

   436    H   32  S      Val( 1S)     0.74560
   437    H   32  S      Ryd( 2S)     0.00103
   438    H   32  px     Ryd( 2p)     0.00024
   439    H   32  py     Ryd( 2p)     0.00009
   440    H   32  pz     Ryd( 2p)     0.00026

   441    H   33  S      Val( 1S)     0.75861
   442    H   33  S      Ryd( 2S)     0.00102
   443    H   33  px     Ryd( 2p)     0.00023
   444    H   33  py     Ryd( 2p)     0.00010
   445    H   33  pz     Ryd( 2p)     0.00028

   446    H   34  S      Val( 1S)     0.75808
   447    H   34  S      Ryd( 2S)     0.00085
   448    H   34  px     Ryd( 2p)     0.00009
   449    H   34  py     Ryd( 2p)     0.00029
   450    H   34  pz     Ryd( 2p)     0.00022

   451    H   35  S      Val( 1S)     0.76050
   452    H   35  S      Ryd( 2S)     0.00083
   453    H   35  px     Ryd( 2p)     0.00032
   454    H   35  py     Ryd( 2p)     0.00020
   455    H   35  pz     Ryd( 2p)     0.00009

   456    H   36  S      Val( 1S)     0.75877
   457    H   36  S      Ryd( 2S)     0.00087
   458    H   36  px     Ryd( 2p)     0.00022
   459    H   36  py     Ryd( 2p)     0.00010
   460    H   36  pz     Ryd( 2p)     0.00028

   461    H   37  S      Val( 1S)     0.75691
   462    H   37  S      Ryd( 2S)     0.00107
   463    H   37  px     Ryd( 2p)     0.00009
   464    H   37  py     Ryd( 2p)     0.00030
   465    H   37  pz     Ryd( 2p)     0.00021

   466    H   38  S      Val( 1S)     0.74579
   467    H   38  S      Ryd( 2S)     0.00101
   468    H   38  px     Ryd( 2p)     0.00008
   469    H   38  py     Ryd( 2p)     0.00029
   470    H   38  pz     Ryd( 2p)     0.00022

   471    H   39  S      Val( 1S)     0.74932
   472    H   39  S      Ryd( 2S)     0.00097
   473    H   39  px     Ryd( 2p)     0.00022
   474    H   39  py     Ryd( 2p)     0.00010
   475    H   39  pz     Ryd( 2p)     0.00028

   476    H   40  S      Val( 1S)     0.57393
   477    H   40  S      Ryd( 2S)     0.00115
   478    H   40  px     Ryd( 2p)     0.00038
   479    H   40  py     Ryd( 2p)     0.00026
   480    H   40  pz     Ryd( 2p)     0.00060

   481    H   41  S      Val( 1S)     0.57427
   482    H   41  S      Ryd( 2S)     0.00113
   483    H   41  px     Ryd( 2p)     0.00030
   484    H   41  py     Ryd( 2p)     0.00060
   485    H   41  pz     Ryd( 2p)     0.00034

   486    H   42  S      Val( 1S)     0.74813
   487    H   42  S      Ryd( 2S)     0.00091
   488    H   42  px     Ryd( 2p)     0.00008
   489    H   42  py     Ryd( 2p)     0.00028
   490    H   42  pz     Ryd( 2p)     0.00023

   491    H   43  S      Val( 1S)     0.74566
   492    H   43  S      Ryd( 2S)     0.00103
   493    H   43  px     Ryd( 2p)     0.00024
   494    H   43  py     Ryd( 2p)     0.00009
   495    H   43  pz     Ryd( 2p)     0.00026

   496    H   44  S      Val( 1S)     0.75685
   497    H   44  S      Ryd( 2S)     0.00107
   498    H   44  px     Ryd( 2p)     0.00009
   499    H   44  py     Ryd( 2p)     0.00030
   500    H   44  pz     Ryd( 2p)     0.00021

   501    H   45  S      Val( 1S)     0.75873
   502    H   45  S      Ryd( 2S)     0.00087
   503    H   45  px     Ryd( 2p)     0.00022
   504    H   45  py     Ryd( 2p)     0.00010
   505    H   45  pz     Ryd( 2p)     0.00028

   506    H   46  S      Val( 1S)     0.76046
   507    H   46  S      Ryd( 2S)     0.00083
   508    H   46  px     Ryd( 2p)     0.00032
   509    H   46  py     Ryd( 2p)     0.00020
   510    H   46  pz     Ryd( 2p)     0.00009

   511    H   47  S      Val( 1S)     0.75809
   512    H   47  S      Ryd( 2S)     0.00085
   513    H   47  px     Ryd( 2p)     0.00009
   514    H   47  py     Ryd( 2p)     0.00029
   515    H   47  pz     Ryd( 2p)     0.00022

   516    H   48  S      Val( 1S)     0.75866
   517    H   48  S      Ryd( 2S)     0.00102
   518    H   48  px     Ryd( 2p)     0.00023
   519    H   48  py     Ryd( 2p)     0.00010
   520    H   48  pz     Ryd( 2p)     0.00028

   521    H   49  S      Val( 1S)     0.74567
   522    H   49  S      Ryd( 2S)     0.00101
   523    H   49  px     Ryd( 2p)     0.00008
   524    H   49  py     Ryd( 2p)     0.00029
   525    H   49  pz     Ryd( 2p)     0.00022

   526    H   50  S      Val( 1S)     0.74900
   527    H   50  S      Ryd( 2S)     0.00097
   528    H   50  px     Ryd( 2p)     0.00021
   529    H   50  py     Ryd( 2p)     0.00009
   530    H   50  pz     Ryd( 2p)     0.00028

 WARNING:  1 low occupancy (<1.9990e) core orbital  found on  C    2
           1 low occupancy (<1.9990e) core orbital  found on  C    6
           1 low occupancy (<1.9990e) core orbital  found on  C   13
           1 low occupancy (<1.9990e) core orbital  found on  C   17


 Summary of Natural Population Analysis:                  
                                                          
                                       Natural Population 
                Natural  -----------------------------------------------
    Atom  No    Charge         Core      Valence    Rydberg      Total
 -----------------------------------------------------------------------
      N    1   -0.81053      1.99950     5.79965    0.01138     7.81053
      C    2    0.18112      1.99899     3.80258    0.01731     5.81888
      C    3   -0.27139      1.99904     4.25940    0.01295     6.27139
      C    4   -0.20990      1.99904     4.19759    0.01327     6.20990
      C    5   -0.04564      1.99900     4.02983    0.01680     6.04564
      C    6   -0.07706      1.99888     4.05947    0.01870     6.07706
      C    7   -0.07532      1.99901     4.05913    0.01717     6.07532
      C    8   -0.24817      1.99903     4.23584    0.01331     6.24817
      C    9   -0.24757      1.99911     4.23450    0.01397     6.24757
      C   10   -0.27951      1.99910     4.26595    0.01446     6.27951
      C   11   -0.25358      1.99910     4.24039    0.01408     6.25358
      C   12   -0.23018      1.99903     4.21792    0.01324     6.23018
      C   13   -0.07691      1.99888     4.05933    0.01870     6.07691
      C   14   -0.04623      1.99900     4.03043    0.01680     6.04623
      C   15   -0.20540      1.99904     4.19275    0.01361     6.20540
      C   16   -0.27851      1.99904     4.26654    0.01293     6.27851
      C   17    0.18071      1.99899     3.80296    0.01734     5.81929
      N   18   -0.81094      1.99950     5.80007    0.01137     7.81094
      C   19   -0.27142      1.99904     4.25945    0.01294     6.27142
      C   20   -0.21003      1.99905     4.19772    0.01326     6.21003
      C   21   -0.07520      1.99901     4.05902    0.01718     6.07520
      C   22   -0.23003      1.99903     4.21777    0.01324     6.23003
      C   23   -0.25357      1.99910     4.24039    0.01408     6.25357
      C   24   -0.27937      1.99910     4.26581    0.01446     6.27937
      C   25   -0.24758      1.99911     4.23450    0.01397     6.24758
      C   26   -0.24817      1.99903     4.23583    0.01331     6.24817
      C   27   -0.20523      1.99904     4.19258    0.01360     6.20523
      C   28   -0.27818      1.99904     4.26621    0.01293     6.27818
      H   29    0.42395      0.00000     0.57372    0.00233     0.57605
      H   30    0.42370      0.00000     0.57394    0.00236     0.57630
      H   31    0.25035      0.00000     0.74815    0.00150     0.74965
      H   32    0.25277      0.00000     0.74560    0.00163     0.74723
      H   33    0.23977      0.00000     0.75861    0.00162     0.76023
      H   34    0.24047      0.00000     0.75808    0.00145     0.75953
      H   35    0.23806      0.00000     0.76050    0.00144     0.76194
      H   36    0.23975      0.00000     0.75877    0.00148     0.76025
      H   37    0.24142      0.00000     0.75691    0.00167     0.75858
      H   38    0.25260      0.00000     0.74579    0.00160     0.74740
      H   39    0.24912      0.00000     0.74932    0.00156     0.75088
      H   40    0.42368      0.00000     0.57393    0.00239     0.57632
      H   41    0.42336      0.00000     0.57427    0.00237     0.57664
      H   42    0.25038      0.00000     0.74813    0.00150     0.74962
      H   43    0.25272      0.00000     0.74566    0.00163     0.74728
      H   44    0.24149      0.00000     0.75685    0.00167     0.75851
      H   45    0.23979      0.00000     0.75873    0.00148     0.76021
      H   46    0.23809      0.00000     0.76046    0.00144     0.76191
      H   47    0.24046      0.00000     0.75809    0.00145     0.75954
      H   48    0.23971      0.00000     0.75866    0.00163     0.76029
      H   49    0.25273      0.00000     0.74567    0.00160     0.74727
      H   50    0.24945      0.00000     0.74900    0.00156     0.75055
 =======================================================================
   * Total *   -0.00000     55.97383   135.58246    0.44371   192.00000

                                 Natural Population      
 --------------------------------------------------------
   Core                      55.97383 ( 99.9533% of  56)
   Valence                  135.58246 ( 99.6930% of 136)
   Natural Minimal Basis    191.55629 ( 99.7689% of 192)
   Natural Rydberg Basis      0.44371 (  0.2311% of 192)
 --------------------------------------------------------

    Atom  No          Natural Electron Configuration
 ----------------------------------------------------------------------------
      N    1      [core]2S( 1.36)2p( 4.44)3p( 0.01)
      C    2      [core]2S( 0.85)2p( 2.95)3p( 0.01)
      C    3      [core]2S( 0.96)2p( 3.30)3p( 0.01)
      C    4      [core]2S( 0.95)2p( 3.24)3p( 0.01)
      C    5      [core]2S( 0.88)2p( 3.15)3p( 0.01)
      C    6      [core]2S( 0.85)2p( 3.21)3p( 0.01)
      C    7      [core]2S( 0.88)2p( 3.18)3p( 0.01)
      C    8      [core]2S( 0.95)2p( 3.28)3p( 0.01)
      C    9      [core]2S( 0.96)2p( 3.27)3p( 0.01)
      C   10      [core]2S( 0.96)2p( 3.30)3p( 0.01)
      C   11      [core]2S( 0.96)2p( 3.28)3p( 0.01)
      C   12      [core]2S( 0.95)2p( 3.27)3p( 0.01)
      C   13      [core]2S( 0.85)2p( 3.21)3p( 0.01)
      C   14      [core]2S( 0.88)2p( 3.15)3p( 0.01)
      C   15      [core]2S( 0.95)2p( 3.24)3p( 0.01)
      C   16      [core]2S( 0.96)2p( 3.31)3p( 0.01)
      C   17      [core]2S( 0.85)2p( 2.95)3p( 0.01)
      N   18      [core]2S( 1.36)2p( 4.44)3p( 0.01)
      C   19      [core]2S( 0.96)2p( 3.30)3p( 0.01)
      C   20      [core]2S( 0.95)2p( 3.24)3p( 0.01)
      C   21      [core]2S( 0.88)2p( 3.18)3p( 0.01)
      C   22      [core]2S( 0.95)2p( 3.27)3p( 0.01)
      C   23      [core]2S( 0.96)2p( 3.28)3p( 0.01)
      C   24      [core]2S( 0.96)2p( 3.30)3p( 0.01)
      C   25      [core]2S( 0.96)2p( 3.27)3p( 0.01)
      C   26      [core]2S( 0.95)2p( 3.28)3p( 0.01)
      C   27      [core]2S( 0.95)2p( 3.24)3p( 0.01)
      C   28      [core]2S( 0.96)2p( 3.31)3p( 0.01)
      H   29            1S( 0.57)
      H   30            1S( 0.57)
      H   31            1S( 0.75)
      H   32            1S( 0.75)
      H   33            1S( 0.76)
      H   34            1S( 0.76)
      H   35            1S( 0.76)
      H   36            1S( 0.76)
      H   37            1S( 0.76)
      H   38            1S( 0.75)
      H   39            1S( 0.75)
      H   40            1S( 0.57)
      H   41            1S( 0.57)
      H   42            1S( 0.75)
      H   43            1S( 0.75)
      H   44            1S( 0.76)
      H   45            1S( 0.76)
      H   46            1S( 0.76)
      H   47            1S( 0.76)
      H   48            1S( 0.76)
      H   49            1S( 0.75)
      H   50            1S( 0.75)


 NBO analysis skipped by request.
 1\1\GINC-DRG2-W010\SP\RB3LYP TD-FC\6-31G(d,p)\C26H22N2\QDUEZ\17-Jul-20
 24\0\\# TD(NStates=10, Root=1) B3LYP/6-31G** SCRF=(Solvent=water) volu
 me pop=NPA density=current Geom=AllCheck Guess=Read\\FZIHVNZJLMYTFH-QP
 LCGJKRSA-N_conf_3\\0,1\N,0,4.2840029788,-2.3664496098,-3.2075014594\C,
 0,3.3735590651,-1.7334114335,-2.364306482\C,0,3.6629557522,-1.53984304
 09,-1.0005999424\C,0,2.7815986687,-0.8436553755,-0.1802917266\C,0,1.56
 57991045,-0.3284087918,-0.6661376221\C,0,0.6425019025,0.4388911721,0.2
 185899728\C,0,1.3066108165,1.4667896222,1.0792102551\C,0,2.2281602981,
 2.3769939672,0.5303492379\C,0,2.8687479851,3.3222459491,1.3308082827\C
 ,0,2.6201917777,3.3643550329,2.7053990885\C,0,1.7249525588,2.452494596
 ,3.2694750682\C,0,1.076241745,1.5151320281,2.4652169234\C,0,-0.7095557
 618,0.2266434092,0.2490540644\C,0,-1.3578531195,-0.9700690733,-0.36036
 67254\C,0,-0.8755245951,-2.2711723171,-0.1284481796\C,0,-1.5032449787,
 -3.3905840309,-0.6625545964\C,0,-2.6526943403,-3.2570529926,-1.4647529
 242\N,0,-3.2463252743,-4.3688242263,-2.0580426569\C,0,-3.1509417938,-1
 .9610093171,-1.6946006639\C,0,-2.5202655356,-0.8504257079,-1.144032246
 4\C,0,-1.6518887059,1.1884367194,0.9012172764\C,0,-1.6210407108,2.5598
 691576,0.5936498671\C,0,-2.5250979049,3.4479107092,1.1770851475\C,0,-3
 .482091068,2.9842421705,2.0827835491\C,0,-3.5332370173,1.6220409173,2.
 3907719219\C,0,-2.6362206944,0.7342143688,1.7977156022\C,0,1.291607085
 7,-0.5204220806,-2.0325814075\C,0,2.1695633951,-1.2033791058,-2.866268
 0264\H,0,3.8822277941,-2.7795694265,-4.0393126525\H,0,4.919409857,-3.0
 062138007,-2.7482553345\H,0,4.5878099071,-1.9361730418,-0.5890527235\H
 ,0,3.0364474145,-0.7065402283,0.8666872372\H,0,2.434378062,2.344625996
 4,-0.5353528162\H,0,3.5652924684,4.0246084581,0.8816889368\H,0,3.12465
 80458,4.0949931883,3.3308345236\H,0,1.5353642732,2.4660356596,4.339111
 2612\H,0,0.3858434553,0.8065694217,2.9113903983\H,0,0.0046917566,-2.40
 61223809,0.4920080597\H,0,-1.1095794049,-4.3822215971,-0.4538922761\H,
 0,-3.0818933853,-5.2472953034,-1.5834145486\H,0,-4.2230692125,-4.25632
 41108,-2.2975463311\H,0,-4.0401929633,-1.8311290644,-2.306196894\H,0,-
 2.9361447651,0.1354314564,-1.3311173934\H,0,-0.8835635127,2.9266955764
 ,-0.1130035244\H,0,-2.4856546163,4.502379493,0.9186546812\H,0,-4.18543
 80447,3.6752505136,2.5380835022\H,0,-4.2751938178,1.2497600888,3.09156
 34023\H,0,-2.6890729238,-0.3241891148,2.0349882179\H,0,0.3717408914,-0
 .1220653386,-2.4486096944\H,0,1.9314270878,-1.3240591615,-3.9200976292
 \\Version=ES64L-G16RevA.03\State=1-A\HF=-1113.5700186\RMSD=7.274e-09\D
 ipole=0.0289195,-4.2076339,-2.3516304\Quadrupole=3.3666312,6.184609,-9
 .5512402,2.0701141,-2.4150823,8.1324223\PG=C01 [X(C26H22N2)]\\@


 The arm of the moral universe is long, but it bends toward justice.
 -- Martin Luther King, Jr.
 Job cpu time:       0 days  4 hours 20 minutes 22.1 seconds.
 Elapsed time:       0 days  1 hours 27 minutes  0.6 seconds.
 File lengths (MBytes):  RWF=   2158 Int=      0 D2E=      0 Chk=    135 Scr=      1
 Normal termination of Gaussian 16 at Wed Jul 17 22:49:58 2024.
