 Entering Gaussian System, Link 0=g16
 Initial command:
 /opt/sw/arch/manual/gaussian/G16_A03/g16/l1.exe "/scratch/1380819/Gau-26581.inp" -scrdir="/scratch/1380819/"
 Entering Link 1 = /opt/sw/arch/manual/gaussian/G16_A03/g16/l1.exe PID=     26582.
  
 Copyright (c) 1988,1990,1992,1993,1995,1998,2003,2009,2016,
            Gaussian, Inc.  All Rights Reserved.
  
 This is part of the Gaussian(R) 16 program.  It is based on
 the Gaussian(R) 09 system (copyright 2009, Gaussian, Inc.),
 the Gaussian(R) 03 system (copyright 2003, Gaussian, Inc.),
 the Gaussian(R) 98 system (copyright 1998, Gaussian, Inc.),
 the Gaussian(R) 94 system (copyright 1995, Gaussian, Inc.),
 the Gaussian 92(TM) system (copyright 1992, Gaussian, Inc.),
 the Gaussian 90(TM) system (copyright 1990, Gaussian, Inc.),
 the Gaussian 88(TM) system (copyright 1988, Gaussian, Inc.),
 the Gaussian 86(TM) system (copyright 1986, Carnegie Mellon
 University), and the Gaussian 82(TM) system (copyright 1983,
 Carnegie Mellon University). Gaussian is a federally registered
 trademark of Gaussian, Inc.
  
 This software contains proprietary and confidential information,
 including trade secrets, belonging to Gaussian, Inc.
  
 This software is provided under written license and may be
 used, copied, transmitted, or stored only in accord with that
 written license.
  
 The following legend is applicable only to US Government
 contracts under FAR:
  
                    RESTRICTED RIGHTS LEGEND
  
 Use, reproduction and disclosure by the US Government is
 subject to restrictions as set forth in subparagraphs (a)
 and (c) of the Commercial Computer Software - Restricted
 Rights clause in FAR 52.227-19.
  
 Gaussian, Inc.
 340 Quinnipiac St., Bldg. 40, Wallingford CT 06492
  
  
 ---------------------------------------------------------------
 Warning -- This program may not be used in any manner that
 competes with the business of Gaussian, Inc. or will provide
 assistance to any competitor of Gaussian, Inc.  The licensee
 of this program is prohibited from giving any competitor of
 Gaussian, Inc. access to this program.  By using this program,
 the user acknowledges that Gaussian, Inc. is engaged in the
 business of creating and licensing software in the field of
 computational chemistry and represents and warrants to the
 licensee that it is not a competitor of Gaussian, Inc. and that
 it will not use this program in any manner prohibited above.
 ---------------------------------------------------------------
  

 Cite this work as:
 Gaussian 16, Revision A.03,
 M. J. Frisch, G. W. Trucks, H. B. Schlegel, G. E. Scuseria, 
 M. A. Robb, J. R. Cheeseman, G. Scalmani, V. Barone, 
 G. A. Petersson, H. Nakatsuji, X. Li, M. Caricato, A. V. Marenich, 
 J. Bloino, B. G. Janesko, R. Gomperts, B. Mennucci, H. P. Hratchian, 
 J. V. Ortiz, A. F. Izmaylov, J. L. Sonnenberg, D. Williams-Young, 
 F. Ding, F. Lipparini, F. Egidi, J. Goings, B. Peng, A. Petrone, 
 T. Henderson, D. Ranasinghe, V. G. Zakrzewski, J. Gao, N. Rega, 
 G. Zheng, W. Liang, M. Hada, M. Ehara, K. Toyota, R. Fukuda, 
 J. Hasegawa, M. Ishida, T. Nakajima, Y. Honda, O. Kitao, H. Nakai, 
 T. Vreven, K. Throssell, J. A. Montgomery, Jr., J. E. Peralta, 
 F. Ogliaro, M. J. Bearpark, J. J. Heyd, E. N. Brothers, K. N. Kudin, 
 V. N. Staroverov, T. A. Keith, R. Kobayashi, J. Normand, 
 K. Raghavachari, A. P. Rendell, J. C. Burant, S. S. Iyengar, 
 J. Tomasi, M. Cossi, J. M. Millam, M. Klene, C. Adamo, R. Cammi, 
 J. W. Ochterski, R. L. Martin, K. Morokuma, O. Farkas, 
 J. B. Foresman, and D. J. Fox, Gaussian, Inc., Wallingford CT, 2016.
 
 ******************************************
 Gaussian 16:  ES64L-G16RevA.03 25-Dec-2016
                17-Jul-2024 
 ******************************************
 %nprocshared=8
 Will use up to    8 processors via shared memory.
 %mem=16GB
 %Chk=FZIHVNZJLMYTFH-QPLCGJKRSA-N_conf_1_0.chk
 -------------------------------------------------------
 # opt=CalcFc B3LYP/6-31G** SCRF=(Solvent=water) scf=xqc
 -------------------------------------------------------
 1/10=4,18=20,19=15,26=3,38=1/1,3;
 2/9=110,12=2,17=6,18=5,40=1/2;
 3/5=1,6=6,7=101,11=2,25=1,30=1,70=2201,71=2,72=1,74=-5,140=1/1,2,3;
 4//1;
 5/5=2,8=3,13=1,38=5,53=1/2,8;
 8/6=4,10=90,11=11/1;
 11/6=1,8=1,9=11,15=111,16=1/1,2,10;
 10/6=1,13=1/2;
 6/7=2,8=2,9=2,10=2,28=1/1;
 7/10=1,18=20,25=1/1,2,3,16;
 1/10=4,18=20,19=15,26=3/3(2);
 2/9=110/2;
 99//99;
 2/9=110/2;
 3/5=1,6=6,7=101,11=2,25=1,30=1,70=2205,71=1,72=1,74=-5/1,2,3;
 4/5=5,16=3,69=1/1;
 5/5=2,8=3,13=1,38=5,53=1/2,8;
 7//1,2,3,16;
 1/18=20,19=15,26=3/3(-5);
 2/9=110/2;
 6/7=2,8=2,9=2,10=2,19=2,28=1/1;
 99/9=1/99;
 ----------------------------------
 FZIHVNZJLMYTFH-QPLCGJKRSA-N_conf_1
 ----------------------------------
 Symbolic Z-matrix:
 Charge =  0 Multiplicity = 1
 N                    -2.59446   5.16379   0.05409 
 C                    -2.02996   3.88621  -0.04867 
 C                    -1.71087   3.356    -1.30035 
 C                    -1.25068   2.04087  -1.42363 
 C                    -1.1358    1.22095  -0.29496 
 C                    -0.66324  -0.18888  -0.44248 
 C                    -1.49654  -1.13345  -1.24697 
 C                    -1.02845  -1.66393  -2.45754 
 C                    -1.82831  -2.52827  -3.20761 
 C                    -3.10675  -2.85933  -2.76172 
 C                    -3.58875  -2.32454  -1.56817 
 C                    -2.78931  -1.46191  -0.81554 
 C                     0.5021   -0.60384   0.14483 
 C                     1.3855    0.36119   0.8665 
 C                     1.58285   0.22769   2.24584 
 C                     2.42251   1.11228   2.93045 
 C                     3.11832   2.11071   2.24573 
 N                     3.86226   3.06329   2.95227 
 C                     2.88454   2.27225   0.87856 
 C                     2.04845   1.3899    0.18666 
 C                     0.92501  -2.03587   0.08404 
 C                     2.09646  -2.38779  -0.60091 
 C                     2.51643  -3.71865  -0.64698 
 C                     1.77454  -4.7071   -0.00233 
 C                     0.61577  -4.36646   0.69347 
 C                     0.19546  -3.03593   0.7424 
 C                    -1.53227   1.72755   0.94847 
 C                    -1.98828   3.04449   1.0645 
 H                    -2.49237   5.57588   0.9764 
 H                    -2.30069   5.79675  -0.68293 
 H                    -1.81694   3.96277  -2.1952 
 H                    -0.99382   1.65893  -2.40842 
 H                    -0.03567  -1.40971  -2.81983 
 H                    -1.45249  -2.94221  -4.1393 
 H                    -3.72905  -3.53146  -3.34654 
 H                    -4.58824  -2.57573  -1.22361 
 H                    -3.1801   -1.04661   0.11024 
 H                     1.07299  -0.55656   2.79972 
 H                     2.5299    1.00941   4.00661 
 H                     4.24117   2.71661   3.82774 
 H                     4.56254   3.53361   2.38789 
 H                     3.35326   3.08768   0.33497 
 H                     1.90467   1.52345  -0.88234 
 H                     2.68676  -1.62581  -1.10387 
 H                     3.42321  -3.98256  -1.1844 
 H                     2.10068  -5.74308  -0.03994 
 H                     0.03744  -5.13572   1.19793 
 H                    -0.70769  -2.78344   1.29219 
 H                    -1.49478   1.09996   1.83497 
 H                    -2.30732   3.40665   2.03777 
 

 GradGradGradGradGradGradGradGradGradGradGradGradGradGradGradGradGradGrad
 Berny optimization.
 Initialization pass.
                           ----------------------------
                           !    Initial Parameters    !
                           ! (Angstroms and Degrees)  !
 --------------------------                            --------------------------
 ! Name  Definition              Value          Derivative Info.                !
 --------------------------------------------------------------------------------
 ! R1    R(1,2)                  1.4005         calculate D2E/DX2 analytically  !
 ! R2    R(1,29)                 1.0153         calculate D2E/DX2 analytically  !
 ! R3    R(1,30)                 1.0149         calculate D2E/DX2 analytically  !
 ! R4    R(2,3)                  1.3963         calculate D2E/DX2 analytically  !
 ! R5    R(2,28)                 1.3962         calculate D2E/DX2 analytically  !
 ! R6    R(3,4)                  1.3988         calculate D2E/DX2 analytically  !
 ! R7    R(3,31)                 1.0864         calculate D2E/DX2 analytically  !
 ! R8    R(4,5)                  1.3998         calculate D2E/DX2 analytically  !
 ! R9    R(4,32)                 1.087          calculate D2E/DX2 analytically  !
 ! R10   R(5,6)                  1.4942         calculate D2E/DX2 analytically  !
 ! R11   R(5,27)                 1.4            calculate D2E/DX2 analytically  !
 ! R12   R(6,7)                  1.4946         calculate D2E/DX2 analytically  !
 ! R13   R(6,13)                 1.3694         calculate D2E/DX2 analytically  !
 ! R14   R(7,8)                  1.4021         calculate D2E/DX2 analytically  !
 ! R15   R(7,12)                 1.4019         calculate D2E/DX2 analytically  !
 ! R16   R(8,9)                  1.3962         calculate D2E/DX2 analytically  !
 ! R17   R(8,33)                 1.087          calculate D2E/DX2 analytically  !
 ! R18   R(9,10)                 1.3939         calculate D2E/DX2 analytically  !
 ! R19   R(9,34)                 1.0866         calculate D2E/DX2 analytically  !
 ! R20   R(10,11)                1.3939         calculate D2E/DX2 analytically  !
 ! R21   R(10,35)                1.0867         calculate D2E/DX2 analytically  !
 ! R22   R(11,12)                1.3963         calculate D2E/DX2 analytically  !
 ! R23   R(11,36)                1.0866         calculate D2E/DX2 analytically  !
 ! R24   R(12,37)                1.0873         calculate D2E/DX2 analytically  !
 ! R25   R(13,14)                1.4942         calculate D2E/DX2 analytically  !
 ! R26   R(13,21)                1.4944         calculate D2E/DX2 analytically  !
 ! R27   R(14,15)                1.3998         calculate D2E/DX2 analytically  !
 ! R28   R(14,20)                1.4            calculate D2E/DX2 analytically  !
 ! R29   R(15,16)                1.3987         calculate D2E/DX2 analytically  !
 ! R30   R(15,38)                1.0871         calculate D2E/DX2 analytically  !
 ! R31   R(16,17)                1.3964         calculate D2E/DX2 analytically  !
 ! R32   R(16,39)                1.0864         calculate D2E/DX2 analytically  !
 ! R33   R(17,18)                1.4            calculate D2E/DX2 analytically  !
 ! R34   R(17,19)                1.3964         calculate D2E/DX2 analytically  !
 ! R35   R(18,40)                1.015          calculate D2E/DX2 analytically  !
 ! R36   R(18,41)                1.0149         calculate D2E/DX2 analytically  !
 ! R37   R(19,20)                1.3987         calculate D2E/DX2 analytically  !
 ! R38   R(19,42)                1.0863         calculate D2E/DX2 analytically  !
 ! R39   R(20,43)                1.0869         calculate D2E/DX2 analytically  !
 ! R40   R(21,22)                1.4019         calculate D2E/DX2 analytically  !
 ! R41   R(21,26)                1.4021         calculate D2E/DX2 analytically  !
 ! R42   R(22,23)                1.3963         calculate D2E/DX2 analytically  !
 ! R43   R(22,44)                1.0872         calculate D2E/DX2 analytically  !
 ! R44   R(23,24)                1.3939         calculate D2E/DX2 analytically  !
 ! R45   R(23,45)                1.0866         calculate D2E/DX2 analytically  !
 ! R46   R(24,25)                1.3939         calculate D2E/DX2 analytically  !
 ! R47   R(24,46)                1.0868         calculate D2E/DX2 analytically  !
 ! R48   R(25,26)                1.3962         calculate D2E/DX2 analytically  !
 ! R49   R(25,47)                1.0866         calculate D2E/DX2 analytically  !
 ! R50   R(26,48)                1.0871         calculate D2E/DX2 analytically  !
 ! R51   R(27,28)                1.3985         calculate D2E/DX2 analytically  !
 ! R52   R(27,49)                1.0868         calculate D2E/DX2 analytically  !
 ! R53   R(28,50)                1.0864         calculate D2E/DX2 analytically  !
 ! A1    A(2,1,29)             113.3509         calculate D2E/DX2 analytically  !
 ! A2    A(2,1,30)             113.513          calculate D2E/DX2 analytically  !
 ! A3    A(29,1,30)            112.1737         calculate D2E/DX2 analytically  !
 ! A4    A(1,2,3)              120.2831         calculate D2E/DX2 analytically  !
 ! A5    A(1,2,28)             120.2307         calculate D2E/DX2 analytically  !
 ! A6    A(3,2,28)             118.618          calculate D2E/DX2 analytically  !
 ! A7    A(2,3,4)              120.7441         calculate D2E/DX2 analytically  !
 ! A8    A(2,3,31)             120.2652         calculate D2E/DX2 analytically  !
 ! A9    A(4,3,31)             118.9906         calculate D2E/DX2 analytically  !
 ! A10   A(3,4,5)              120.4426         calculate D2E/DX2 analytically  !
 ! A11   A(3,4,32)             119.2046         calculate D2E/DX2 analytically  !
 ! A12   A(5,4,32)             120.3492         calculate D2E/DX2 analytically  !
 ! A13   A(4,5,6)              119.9357         calculate D2E/DX2 analytically  !
 ! A14   A(4,5,27)             118.7473         calculate D2E/DX2 analytically  !
 ! A15   A(6,5,27)             121.2432         calculate D2E/DX2 analytically  !
 ! A16   A(5,6,7)              118.2366         calculate D2E/DX2 analytically  !
 ! A17   A(5,6,13)             120.8447         calculate D2E/DX2 analytically  !
 ! A18   A(7,6,13)             120.9187         calculate D2E/DX2 analytically  !
 ! A19   A(6,7,8)              121.1782         calculate D2E/DX2 analytically  !
 ! A20   A(6,7,12)             119.7734         calculate D2E/DX2 analytically  !
 ! A21   A(8,7,12)             119.007          calculate D2E/DX2 analytically  !
 ! A22   A(7,8,9)              120.4495         calculate D2E/DX2 analytically  !
 ! A23   A(7,8,33)             120.2774         calculate D2E/DX2 analytically  !
 ! A24   A(9,8,33)             119.2724         calculate D2E/DX2 analytically  !
 ! A25   A(8,9,10)             120.0407         calculate D2E/DX2 analytically  !
 ! A26   A(8,9,34)             119.8896         calculate D2E/DX2 analytically  !
 ! A27   A(10,9,34)            120.0697         calculate D2E/DX2 analytically  !
 ! A28   A(9,10,11)            119.9973         calculate D2E/DX2 analytically  !
 ! A29   A(9,10,35)            119.997          calculate D2E/DX2 analytically  !
 ! A30   A(11,10,35)           120.0053         calculate D2E/DX2 analytically  !
 ! A31   A(10,11,12)           120.0395         calculate D2E/DX2 analytically  !
 ! A32   A(10,11,36)           120.059          calculate D2E/DX2 analytically  !
 ! A33   A(12,11,36)           119.9012         calculate D2E/DX2 analytically  !
 ! A34   A(7,12,11)            120.4535         calculate D2E/DX2 analytically  !
 ! A35   A(7,12,37)            120.2633         calculate D2E/DX2 analytically  !
 ! A36   A(11,12,37)           119.2832         calculate D2E/DX2 analytically  !
 ! A37   A(6,13,14)            120.97           calculate D2E/DX2 analytically  !
 ! A38   A(6,13,21)            120.9148         calculate D2E/DX2 analytically  !
 ! A39   A(14,13,21)           118.1151         calculate D2E/DX2 analytically  !
 ! A40   A(13,14,15)           119.8479         calculate D2E/DX2 analytically  !
 ! A41   A(13,14,20)           121.3339         calculate D2E/DX2 analytically  !
 ! A42   A(15,14,20)           118.8059         calculate D2E/DX2 analytically  !
 ! A43   A(14,15,16)           120.441          calculate D2E/DX2 analytically  !
 ! A44   A(14,15,38)           120.3152         calculate D2E/DX2 analytically  !
 ! A45   A(16,15,38)           119.2376         calculate D2E/DX2 analytically  !
 ! A46   A(15,16,17)           120.7537         calculate D2E/DX2 analytically  !
 ! A47   A(15,16,39)           118.9687         calculate D2E/DX2 analytically  !
 ! A48   A(17,16,39)           120.2771         calculate D2E/DX2 analytically  !
 ! A49   A(16,17,18)           120.2529         calculate D2E/DX2 analytically  !
 ! A50   A(16,17,19)           118.6451         calculate D2E/DX2 analytically  !
 ! A51   A(18,17,19)           120.289          calculate D2E/DX2 analytically  !
 ! A52   A(17,18,40)           113.6572         calculate D2E/DX2 analytically  !
 ! A53   A(17,18,41)           113.6592         calculate D2E/DX2 analytically  !
 ! A54   A(40,18,41)           112.3548         calculate D2E/DX2 analytically  !
 ! A55   A(17,19,20)           120.7595         calculate D2E/DX2 analytically  !
 ! A56   A(17,19,42)           120.2997         calculate D2E/DX2 analytically  !
 ! A57   A(20,19,42)           118.9408         calculate D2E/DX2 analytically  !
 ! A58   A(14,20,19)           120.4239         calculate D2E/DX2 analytically  !
 ! A59   A(14,20,43)           120.3495         calculate D2E/DX2 analytically  !
 ! A60   A(19,20,43)           119.2169         calculate D2E/DX2 analytically  !
 ! A61   A(13,21,22)           119.7952         calculate D2E/DX2 analytically  !
 ! A62   A(13,21,26)           121.1412         calculate D2E/DX2 analytically  !
 ! A63   A(22,21,26)           119.0239         calculate D2E/DX2 analytically  !
 ! A64   A(21,22,23)           120.445          calculate D2E/DX2 analytically  !
 ! A65   A(21,22,44)           120.2511         calculate D2E/DX2 analytically  !
 ! A66   A(23,22,44)           119.3038         calculate D2E/DX2 analytically  !
 ! A67   A(22,23,24)           120.0355         calculate D2E/DX2 analytically  !
 ! A68   A(22,23,45)           119.9204         calculate D2E/DX2 analytically  !
 ! A69   A(24,23,45)           120.044          calculate D2E/DX2 analytically  !
 ! A70   A(23,24,25)           120.0017         calculate D2E/DX2 analytically  !
 ! A71   A(23,24,46)           120.0164         calculate D2E/DX2 analytically  !
 ! A72   A(25,24,46)           119.9817         calculate D2E/DX2 analytically  !
 ! A73   A(24,25,26)           120.0422         calculate D2E/DX2 analytically  !
 ! A74   A(24,25,47)           120.0792         calculate D2E/DX2 analytically  !
 ! A75   A(26,25,47)           119.8786         calculate D2E/DX2 analytically  !
 ! A76   A(21,26,25)           120.4399         calculate D2E/DX2 analytically  !
 ! A77   A(21,26,48)           120.2729         calculate D2E/DX2 analytically  !
 ! A78   A(25,26,48)           119.2863         calculate D2E/DX2 analytically  !
 ! A79   A(5,27,28)            120.451          calculate D2E/DX2 analytically  !
 ! A80   A(5,27,49)            120.3808         calculate D2E/DX2 analytically  !
 ! A81   A(28,27,49)           119.1673         calculate D2E/DX2 analytically  !
 ! A82   A(2,28,27)            120.7503         calculate D2E/DX2 analytically  !
 ! A83   A(2,28,50)            120.3006         calculate D2E/DX2 analytically  !
 ! A84   A(27,28,50)           118.9487         calculate D2E/DX2 analytically  !
 ! D1    D(29,1,2,3)          -160.12           calculate D2E/DX2 analytically  !
 ! D2    D(29,1,2,28)           30.6921         calculate D2E/DX2 analytically  !
 ! D3    D(30,1,2,3)           -30.615          calculate D2E/DX2 analytically  !
 ! D4    D(30,1,2,28)          160.197          calculate D2E/DX2 analytically  !
 ! D5    D(1,2,3,4)           -174.6682         calculate D2E/DX2 analytically  !
 ! D6    D(1,2,3,31)             5.3604         calculate D2E/DX2 analytically  !
 ! D7    D(28,2,3,4)            -5.308          calculate D2E/DX2 analytically  !
 ! D8    D(28,2,3,31)          174.7207         calculate D2E/DX2 analytically  !
 ! D9    D(1,2,28,27)          174.5129         calculate D2E/DX2 analytically  !
 ! D10   D(1,2,28,50)           -5.738          calculate D2E/DX2 analytically  !
 ! D11   D(3,2,28,27)            5.147          calculate D2E/DX2 analytically  !
 ! D12   D(3,2,28,50)         -175.104          calculate D2E/DX2 analytically  !
 ! D13   D(2,3,4,5)              1.7024         calculate D2E/DX2 analytically  !
 ! D14   D(2,3,4,32)          -178.9894         calculate D2E/DX2 analytically  !
 ! D15   D(31,3,4,5)          -178.3259         calculate D2E/DX2 analytically  !
 ! D16   D(31,3,4,32)            0.9823         calculate D2E/DX2 analytically  !
 ! D17   D(3,4,5,6)            179.0458         calculate D2E/DX2 analytically  !
 ! D18   D(3,4,5,27)             2.1286         calculate D2E/DX2 analytically  !
 ! D19   D(32,4,5,6)            -0.2545         calculate D2E/DX2 analytically  !
 ! D20   D(32,4,5,27)         -177.1717         calculate D2E/DX2 analytically  !
 ! D21   D(4,5,6,7)            -63.0782         calculate D2E/DX2 analytically  !
 ! D22   D(4,5,6,13)           116.9602         calculate D2E/DX2 analytically  !
 ! D23   D(27,5,6,7)           113.7604         calculate D2E/DX2 analytically  !
 ! D24   D(27,5,6,13)          -66.2013         calculate D2E/DX2 analytically  !
 ! D25   D(4,5,27,28)           -2.289          calculate D2E/DX2 analytically  !
 ! D26   D(4,5,27,49)          177.358          calculate D2E/DX2 analytically  !
 ! D27   D(6,5,27,28)         -179.1642         calculate D2E/DX2 analytically  !
 ! D28   D(6,5,27,49)            0.4828         calculate D2E/DX2 analytically  !
 ! D29   D(5,6,7,8)            113.69           calculate D2E/DX2 analytically  !
 ! D30   D(5,6,7,12)           -63.9443         calculate D2E/DX2 analytically  !
 ! D31   D(13,6,7,8)           -66.3484         calculate D2E/DX2 analytically  !
 ! D32   D(13,6,7,12)          116.0173         calculate D2E/DX2 analytically  !
 ! D33   D(5,6,13,14)           -4.463          calculate D2E/DX2 analytically  !
 ! D34   D(5,6,13,21)          175.4263         calculate D2E/DX2 analytically  !
 ! D35   D(7,6,13,14)          175.5764         calculate D2E/DX2 analytically  !
 ! D36   D(7,6,13,21)           -4.5343         calculate D2E/DX2 analytically  !
 ! D37   D(6,7,8,9)           -178.9625         calculate D2E/DX2 analytically  !
 ! D38   D(6,7,8,33)             1.3291         calculate D2E/DX2 analytically  !
 ! D39   D(12,7,8,9)            -1.3105         calculate D2E/DX2 analytically  !
 ! D40   D(12,7,8,33)          178.9812         calculate D2E/DX2 analytically  !
 ! D41   D(6,7,12,11)          178.8794         calculate D2E/DX2 analytically  !
 ! D42   D(6,7,12,37)           -1.1189         calculate D2E/DX2 analytically  !
 ! D43   D(8,7,12,11)            1.1937         calculate D2E/DX2 analytically  !
 ! D44   D(8,7,12,37)         -178.8046         calculate D2E/DX2 analytically  !
 ! D45   D(7,8,9,10)             0.6359         calculate D2E/DX2 analytically  !
 ! D46   D(7,8,9,34)          -179.366          calculate D2E/DX2 analytically  !
 ! D47   D(33,8,9,10)         -179.6528         calculate D2E/DX2 analytically  !
 ! D48   D(33,8,9,34)            0.3453         calculate D2E/DX2 analytically  !
 ! D49   D(8,9,10,11)            0.1746         calculate D2E/DX2 analytically  !
 ! D50   D(8,9,10,35)          179.9457         calculate D2E/DX2 analytically  !
 ! D51   D(34,9,10,11)        -179.8235         calculate D2E/DX2 analytically  !
 ! D52   D(34,9,10,35)          -0.0523         calculate D2E/DX2 analytically  !
 ! D53   D(9,10,11,12)          -0.291          calculate D2E/DX2 analytically  !
 ! D54   D(9,10,11,36)         179.5141         calculate D2E/DX2 analytically  !
 ! D55   D(35,10,11,12)        179.9379         calculate D2E/DX2 analytically  !
 ! D56   D(35,10,11,36)         -0.257          calculate D2E/DX2 analytically  !
 ! D57   D(10,11,12,7)          -0.4021         calculate D2E/DX2 analytically  !
 ! D58   D(10,11,12,37)        179.5962         calculate D2E/DX2 analytically  !
 ! D59   D(36,11,12,7)         179.7925         calculate D2E/DX2 analytically  !
 ! D60   D(36,11,12,37)         -0.2091         calculate D2E/DX2 analytically  !
 ! D61   D(6,13,14,15)         115.0939         calculate D2E/DX2 analytically  !
 ! D62   D(6,13,14,20)         -66.1998         calculate D2E/DX2 analytically  !
 ! D63   D(21,13,14,15)        -64.7984         calculate D2E/DX2 analytically  !
 ! D64   D(21,13,14,20)        113.9078         calculate D2E/DX2 analytically  !
 ! D65   D(6,13,21,22)         115.6563         calculate D2E/DX2 analytically  !
 ! D66   D(6,13,21,26)         -66.6562         calculate D2E/DX2 analytically  !
 ! D67   D(14,13,21,22)        -64.4513         calculate D2E/DX2 analytically  !
 ! D68   D(14,13,21,26)        113.2362         calculate D2E/DX2 analytically  !
 ! D69   D(13,14,15,16)        179.0691         calculate D2E/DX2 analytically  !
 ! D70   D(13,14,15,38)         -1.8404         calculate D2E/DX2 analytically  !
 ! D71   D(20,14,15,16)          0.3302         calculate D2E/DX2 analytically  !
 ! D72   D(20,14,15,38)        179.4207         calculate D2E/DX2 analytically  !
 ! D73   D(13,14,20,19)       -179.1742         calculate D2E/DX2 analytically  !
 ! D74   D(13,14,20,43)          1.9699         calculate D2E/DX2 analytically  !
 ! D75   D(15,14,20,19)         -0.4548         calculate D2E/DX2 analytically  !
 ! D76   D(15,14,20,43)       -179.3107         calculate D2E/DX2 analytically  !
 ! D77   D(14,15,16,17)         -2.4737         calculate D2E/DX2 analytically  !
 ! D78   D(14,15,16,39)        177.7709         calculate D2E/DX2 analytically  !
 ! D79   D(38,15,16,17)        178.426          calculate D2E/DX2 analytically  !
 ! D80   D(38,15,16,39)         -1.3294         calculate D2E/DX2 analytically  !
 ! D81   D(15,16,17,18)        174.352          calculate D2E/DX2 analytically  !
 ! D82   D(15,16,17,19)          4.6455         calculate D2E/DX2 analytically  !
 ! D83   D(39,16,17,18)         -5.8958         calculate D2E/DX2 analytically  !
 ! D84   D(39,16,17,19)       -175.6023         calculate D2E/DX2 analytically  !
 ! D85   D(16,17,18,40)         30.2736         calculate D2E/DX2 analytically  !
 ! D86   D(16,17,18,41)        160.4596         calculate D2E/DX2 analytically  !
 ! D87   D(19,17,18,40)       -160.19           calculate D2E/DX2 analytically  !
 ! D88   D(19,17,18,41)        -30.004          calculate D2E/DX2 analytically  !
 ! D89   D(16,17,19,20)         -4.7713         calculate D2E/DX2 analytically  !
 ! D90   D(16,17,19,42)        175.3434         calculate D2E/DX2 analytically  !
 ! D91   D(18,17,19,20)       -174.474          calculate D2E/DX2 analytically  !
 ! D92   D(18,17,19,42)          5.6407         calculate D2E/DX2 analytically  !
 ! D93   D(17,19,20,14)          2.7263         calculate D2E/DX2 analytically  !
 ! D94   D(17,19,20,43)       -178.4049         calculate D2E/DX2 analytically  !
 ! D95   D(42,19,20,14)       -177.3869         calculate D2E/DX2 analytically  !
 ! D96   D(42,19,20,43)          1.4819         calculate D2E/DX2 analytically  !
 ! D97   D(13,21,22,23)        178.9057         calculate D2E/DX2 analytically  !
 ! D98   D(13,21,22,44)         -1.2103         calculate D2E/DX2 analytically  !
 ! D99   D(26,21,22,23)          1.1693         calculate D2E/DX2 analytically  !
 ! D100  D(26,21,22,44)       -178.9468         calculate D2E/DX2 analytically  !
 ! D101  D(13,21,26,25)       -178.9765         calculate D2E/DX2 analytically  !
 ! D102  D(13,21,26,48)          1.3745         calculate D2E/DX2 analytically  !
 ! D103  D(22,21,26,25)         -1.2715         calculate D2E/DX2 analytically  !
 ! D104  D(22,21,26,48)        179.0794         calculate D2E/DX2 analytically  !
 ! D105  D(21,22,23,24)         -0.4084         calculate D2E/DX2 analytically  !
 ! D106  D(21,22,23,45)        179.7031         calculate D2E/DX2 analytically  !
 ! D107  D(44,22,23,24)        179.7066         calculate D2E/DX2 analytically  !
 ! D108  D(44,22,23,45)         -0.1819         calculate D2E/DX2 analytically  !
 ! D109  D(22,23,24,25)         -0.2677         calculate D2E/DX2 analytically  !
 ! D110  D(22,23,24,46)        179.8864         calculate D2E/DX2 analytically  !
 ! D111  D(45,23,24,25)        179.6206         calculate D2E/DX2 analytically  !
 ! D112  D(45,23,24,46)         -0.2252         calculate D2E/DX2 analytically  !
 ! D113  D(23,24,25,26)          0.1657         calculate D2E/DX2 analytically  !
 ! D114  D(23,24,25,47)       -179.8913         calculate D2E/DX2 analytically  !
 ! D115  D(46,24,25,26)       -179.9884         calculate D2E/DX2 analytically  !
 ! D116  D(46,24,25,47)         -0.0454         calculate D2E/DX2 analytically  !
 ! D117  D(24,25,26,21)          0.6132         calculate D2E/DX2 analytically  !
 ! D118  D(24,25,26,48)       -179.7343         calculate D2E/DX2 analytically  !
 ! D119  D(47,25,26,21)       -179.3298         calculate D2E/DX2 analytically  !
 ! D120  D(47,25,26,48)          0.3226         calculate D2E/DX2 analytically  !
 ! D121  D(5,27,28,2)           -1.3783         calculate D2E/DX2 analytically  !
 ! D122  D(5,27,28,50)         178.8693         calculate D2E/DX2 analytically  !
 ! D123  D(49,27,28,2)         178.9704         calculate D2E/DX2 analytically  !
 ! D124  D(49,27,28,50)         -0.782          calculate D2E/DX2 analytically  !
 --------------------------------------------------------------------------------
 Trust Radius=3.00D-01 FncErr=1.00D-07 GrdErr=1.00D-06 EigMax=2.50D+02 EigMin=1.00D-04
 Number of steps in this run=    271 maximum allowed number of steps=    300.
 GradGradGradGradGradGradGradGradGradGradGradGradGradGradGradGradGradGrad

                          Input orientation:                          
 ---------------------------------------------------------------------
 Center     Atomic      Atomic             Coordinates (Angstroms)
 Number     Number       Type             X           Y           Z
 ---------------------------------------------------------------------
      1          7           0       -2.594457    5.163790    0.054085
      2          6           0       -2.029960    3.886207   -0.048670
      3          6           0       -1.710872    3.356002   -1.300354
      4          6           0       -1.250685    2.040873   -1.423628
      5          6           0       -1.135801    1.220950   -0.294965
      6          6           0       -0.663243   -0.188883   -0.442480
      7          6           0       -1.496540   -1.133455   -1.246967
      8          6           0       -1.028454   -1.663930   -2.457541
      9          6           0       -1.828312   -2.528267   -3.207614
     10          6           0       -3.106750   -2.859333   -2.761721
     11          6           0       -3.588748   -2.324543   -1.568171
     12          6           0       -2.789308   -1.461913   -0.815537
     13          6           0        0.502100   -0.603840    0.144831
     14          6           0        1.385504    0.361191    0.866496
     15          6           0        1.582846    0.227685    2.245838
     16          6           0        2.422506    1.112281    2.930451
     17          6           0        3.118324    2.110712    2.245729
     18          7           0        3.862262    3.063289    2.952273
     19          6           0        2.884543    2.272246    0.878564
     20          6           0        2.048451    1.389901    0.186659
     21          6           0        0.925006   -2.035872    0.084035
     22          6           0        2.096462   -2.387786   -0.600908
     23          6           0        2.516431   -3.718652   -0.646975
     24          6           0        1.774536   -4.707096   -0.002329
     25          6           0        0.615765   -4.366460    0.693470
     26          6           0        0.195463   -3.035934    0.742400
     27          6           0       -1.532268    1.727553    0.948467
     28          6           0       -1.988284    3.044486    1.064499
     29          1           0       -2.492369    5.575880    0.976404
     30          1           0       -2.300692    5.796750   -0.682927
     31          1           0       -1.816940    3.962766   -2.195198
     32          1           0       -0.993817    1.658933   -2.408420
     33          1           0       -0.035666   -1.409711   -2.819826
     34          1           0       -1.452491   -2.942213   -4.139299
     35          1           0       -3.729046   -3.531457   -3.346544
     36          1           0       -4.588235   -2.575731   -1.223606
     37          1           0       -3.180097   -1.046613    0.110241
     38          1           0        1.072993   -0.556557    2.799721
     39          1           0        2.529902    1.009412    4.006611
     40          1           0        4.241165    2.716607    3.827740
     41          1           0        4.562541    3.533608    2.387891
     42          1           0        3.353261    3.087680    0.334965
     43          1           0        1.904671    1.523450   -0.882338
     44          1           0        2.686760   -1.625809   -1.103865
     45          1           0        3.423209   -3.982558   -1.184405
     46          1           0        2.100685   -5.743083   -0.039936
     47          1           0        0.037436   -5.135721    1.197929
     48          1           0       -0.707685   -2.783444    1.292195
     49          1           0       -1.494784    1.099961    1.834966
     50          1           0       -2.307322    3.406649    2.037766
 ---------------------------------------------------------------------
                    Distance matrix (angstroms):
                    1          2          3          4          5
     1  N    0.000000
     2  C    1.400512   0.000000
     3  C    2.425556   1.396297   0.000000
     4  C    3.707016   2.429615   1.398761   0.000000
     5  C    4.218472   2.822016   2.428984   1.399769   0.000000
     6  C    5.712028   4.316173   3.794691   2.505903   1.494222
     7  C    6.523301   5.188203   4.494887   3.188732   2.565085
     8  C    7.441666   6.132674   5.196585   3.852783   3.607048
     9  C    8.390077   7.152975   6.186765   4.938958   4.797887
    10  C    8.518316   7.349995   6.535630   5.408095   5.159286
    11  C    7.726284   6.581194   5.988884   4.954220   4.495389
    12  C    6.685368   5.455921   4.960885   3.873841   3.194187
    13  C    6.546942   5.158419   4.760898   3.539325   2.491184
    14  C    6.290077   4.992861   4.822000   3.874983   2.906055
    15  C    6.827794   5.630446   5.762849   4.978105   3.851402
    16  C    7.061028   6.032767   6.326042   5.771708   4.803817
    17  C    6.838162   5.909440   6.119362   5.705900   5.034321
    18  N    7.382467   6.663418   7.016433   6.807060   6.238541
    19  C    6.249818   5.255185   5.200005   4.738537   4.318050
    20  C    5.984681   4.787521   4.495472   3.728416   3.224897
    21  C    8.013904   6.619702   6.159277   4.860713   3.872655
    22  C    8.914036   7.529629   6.926480   5.611888   4.854287
    23  C   10.271827   8.880400   8.267268   6.925784   6.153241
    24  C   10.794706   9.397936   8.879555   7.530415   6.610403
    25  C   10.076706   8.698111   8.308128   7.001404   5.938361
    26  C    8.688665   7.313982   6.975945   5.705874   4.579241
    27  C    3.706196   2.429355   2.782255   2.409210   1.399984
    28  C    2.424836   1.396200   2.401359   2.782456   2.429023
    29  H    1.015338   2.029679   3.274480   4.449517   4.735195
    30  H    1.014949   2.031195   2.585798   3.969605   4.737661
    31  H    2.665758   2.158430   1.086351   2.147007   3.404760
    32  H    4.572746   3.406282   2.149889   1.087049   2.163026
    33  H    7.616934   6.301051   5.275142   3.915631   3.808621
    34  H    9.197600   7.980854   6.913312   5.678622   5.675484
    35  H    9.405259   8.293648   7.463043   6.394587   6.214694
    36  H    8.093691   7.048538   6.593221   5.700201   5.215022
    37  H    6.238207   5.067620   4.850919   3.950691   3.079802
    38  H    7.328784   6.122075   6.314162   5.475655   4.197068
    39  H    7.690278   6.746376   7.187108   6.696584   5.655588
    40  H    8.182598   7.464686   7.882444   7.628492   6.938693
    41  H    7.702386   7.037203   7.279451   7.109819   6.709486
    42  H    6.305908   5.455629   5.328387   5.038330   4.902364
    43  H    5.862688   4.664647   4.074940   3.242991   3.111427
    44  H    8.679329   7.330975   6.648023   5.389831   4.834286
    45  H   11.018251   9.640768   8.956936   7.627859   6.975111
    46  H   11.874892  10.477858   9.945349   8.586982   7.683595
    47  H   10.691827   9.339343   9.022603   7.748247   6.634190
    48  H    8.261438   6.930409   6.739473   5.562786   4.328687
    49  H    4.571162   3.405534   3.868675   3.400490   2.163356
    50  H    2.665517   2.158732   3.391366   3.868213   3.404611
                    6          7          8          9         10
     6  C    0.000000
     7  C    1.494591   0.000000
     8  C    2.523810   1.402141   0.000000
     9  C    3.804743   2.428932   1.396230   0.000000
    10  C    4.298943   2.804623   2.416780   1.393855   0.000000
    11  C    3.792994   2.428826   2.789712   2.414211   1.393873
    12  C    2.505979   1.401879   2.416112   2.789742   2.416854
    13  C    1.369360   2.492420   3.199801   4.513660   5.153551
    14  C    2.492662   3.873870   4.580124   5.939356   6.611813
    15  C    3.527818   4.851290   5.702533   6.997958   7.523141
    16  C    4.753055   6.152485   6.974735   8.306556   8.873962
    17  C    5.178306   6.634796   7.318774   8.702200   9.408903
    18  N    6.525424   7.997689   8.690903  10.079302  10.783983
    19  C    4.515429   5.942270   6.475695   7.871009   8.687944
    20  C    3.200258   4.581437   5.077895   6.473207   7.302398
    21  C    2.492213   2.906856   3.227067   4.319510   5.003146
    22  C    3.532173   3.860105   3.706232   4.713651   5.653750
    23  C    4.755146   4.811151   4.479535   5.181764   6.068834
    24  C    5.152742   5.001997   4.810996   5.291660   5.903848
    25  C    4.514243   4.321973   4.464974   4.956907   5.297820
    26  C    3.201096   3.231081   3.690527   4.467214   4.818160
    27  C    2.522432   3.606463   4.832896   5.955893   6.106063
    28  C    3.805442   4.799987   5.957787   7.023682   7.123623
    29  H    6.212199   7.137943   8.145543   9.144625   9.246829
    30  H    6.210221   6.999467   7.773647   8.712238   8.938617
    31  H    4.651798   5.193579   5.687728   6.569522   6.966031
    32  H    2.718202   3.065801   3.323407   4.343700   5.000403
    33  H    2.745186   2.164337   1.086971   2.148285   3.396519
    34  H    4.676560   3.411617   2.154559   1.086568   2.154337
    35  H    5.385679   3.891365   3.401643   2.153714   1.086748
    36  H    4.659696   3.411639   3.876341   3.399370   2.154303
    37  H    2.715835   2.164237   3.406487   3.876956   3.396983
    38  H    3.696156   4.828146   5.768983   6.956528   7.328210
    39  H    5.605934   6.957313   7.848179   9.140801   9.620257
    40  H    7.122490   8.573033   9.298535  10.669745  11.335959
    41  H    7.012613   8.467947   9.041672  10.435468  11.234154
    42  H    5.241430   6.621258   7.040974   8.422435   9.310648
    43  H    3.117649   4.331320   4.609108   5.979839   6.917745
    44  H    3.704687   4.214604   3.954328   5.062219   6.151002
    45  H    5.625079   5.685529   5.178244   5.812642   6.811015
    46  H    6.216951   5.970395   5.681180   5.983831   6.545342
    47  H    5.258622   4.934444   5.152855   5.448729   5.544969
    48  H    3.121349   3.129233   3.926414   4.644265   4.711210
    49  H    2.745786   3.806109   5.126615   6.221165   6.277258
    50  H    4.667168   5.662100   6.895945   7.935155   7.933264
                   11         12         13         14         15
    11  C    0.000000
    12  C    1.396314   0.000000
    13  C    4.757124   3.534397   0.000000
    14  C    6.154994   4.856130   1.494151   0.000000
    15  C    6.914183   5.598437   2.504732   1.399769   0.000000
    16  C    8.257392   6.915338   3.793772   2.428872   1.398653
    17  C    8.899559   7.552160   4.315924   2.822371   2.429709
    18  N   10.246009   8.883536   5.711414   4.217360   3.706134
    19  C    8.307856   7.000464   3.806083   2.428867   2.782819
    20  C    6.975280   5.704484   2.523480   1.399972   2.409928
    21  C    4.815298   3.864555   1.494410   2.563242   3.198412
    22  C    5.767254   4.977354   2.506109   3.196186   3.899802
    23  C    6.329720   5.768201   3.792959   4.496076   4.981318
    24  C    6.073981   5.658727   4.298542   5.156911   5.426147
    25  C    5.192531   4.723136   3.804107   4.793027   4.944822
    26  C    4.490554   3.716661   2.523133   3.601674   3.851801
    27  C    5.194426   3.855457   3.196855   3.222897   3.692792
    28  C    6.190227   4.948111   4.511993   4.315290   4.699245
    29  H    8.372191   7.268408   6.917174   6.499459   6.842662
    30  H    8.270317   7.276298   7.036219   6.747893   7.394188
    31  H    6.562219   5.681206   5.630948   5.709725   6.725487
    32  H    4.827812   3.937098   3.725184   4.250927   5.509064
    33  H    3.876590   3.406236   3.118943   4.329524   5.564315
    34  H    3.399384   3.876308   5.257583   6.635109   7.748000
    35  H    2.153819   3.401782   6.217977   7.685118   8.580332
    36  H    1.086644   2.154820   5.627831   6.977077   7.614357
    37  H    2.148759   1.087315   3.708884   4.837205   5.373104
    38  H    6.628430   5.367227   2.715989   2.162703   1.087094
    39  H    8.923639   7.593059   4.650582   3.404432   2.146702
    40  H   10.762741   9.404659   6.210459   4.740438   3.970366
    41  H   10.789433   9.448113   6.215864   4.740510   4.452851
    42  H    9.005863   7.730045   4.668253   3.404164   3.868511
    43  H    6.742037   5.563298   2.747297   2.163053   3.401185
    44  H    6.331336   5.486102   2.715953   3.086058   3.984291
    45  H    7.215527   6.714543   4.659987   5.217910   5.734078
    46  H    6.811135   6.545380   5.385297   6.212508   6.414280
    47  H    5.357541   5.053849   4.675776   5.669495   5.679132
    48  H    4.085683   3.243783   2.744212   3.801499   3.901650
    49  H    5.262438   3.906937   3.122025   3.127263   3.225134
    50  H    6.891400   5.663615   5.249769   4.927845   5.028172
                   16         17         18         19         20
    16  C    0.000000
    17  C    1.396379   0.000000
    18  N    2.424831   1.400018   0.000000
    19  C    2.401924   1.396383   2.425273   0.000000
    20  C    2.783053   2.429808   3.706583   1.398684   0.000000
    21  C    4.500606   5.165048   6.546426   4.799056   3.606741
    22  C    4.982697   5.420704   6.742207   4.952354   3.859208
    23  C    6.012047   6.535403   7.794906   6.193031   5.197236
    24  C    6.548757   7.303564   8.571298   7.121749   6.106072
    25  C    6.187487   7.115200   8.416834   7.018121   5.953581
    26  C    5.191818   6.106643   7.451810   5.952014   4.830158
    27  C    4.466213   4.843316   5.907655   4.450820   3.676399
    28  C    5.164326   5.323973   6.147596   4.937141   4.450110
    29  H    6.920839   6.715538   7.113263   6.311477   6.226167
    30  H    7.570294   7.178415   7.659536   6.461195   6.252323
    31  H    7.236742   6.892660   7.717438   5.865988   5.218632
    32  H    6.361889   6.226950   7.368225   5.120751   4.007768
    33  H    6.743050   6.928266   8.277601   5.980177   4.606551
    34  H    9.024183   9.337718  10.705281   8.436788   7.052496
    35  H    9.940148  10.487806  11.865653   9.760843   8.371544
    36  H    8.944725   9.663855  10.983961   9.152290   7.858796
    37  H    6.633519   7.362006   8.635002   6.955933   5.768895
    38  H    2.150185   3.406555   4.572371   3.869714   3.401222
    39  H    1.086387   2.158659   2.665562   3.391931   3.868928
    40  H    2.585830   2.032398   1.014987   3.276510   4.452597
    41  H    3.276728   2.032388   1.014947   2.585493   3.970082
    42  H    3.391910   2.158860   2.666454   1.086337   2.146387
    43  H    3.869699   3.406263   4.572472   2.149795   1.086858
    44  H    4.882895   5.036627   6.310443   4.377668   3.341765
    45  H    6.625015   6.999051   8.182226   6.608221   5.712538
    46  H    7.478153   8.242691   9.466184   8.105774   7.136773
    47  H    6.908525   7.943586   9.215790   7.942669   6.902940
    48  H    5.259150   6.284930   7.604247   6.215722   5.122041
    49  H    4.067603   4.740370   5.813860   4.633299   3.918608
    50  H    5.332193   5.582145   6.246438   5.439309   5.144572
                   21         22         23         24         25
    21  C    0.000000
    22  C    1.401892   0.000000
    23  C    2.428736   1.396316   0.000000
    24  C    2.804389   2.416844   1.393915   0.000000
    25  C    2.428720   2.789808   2.414328   1.393887   0.000000
    26  C    1.402070   2.416272   2.789867   2.416791   1.396190
    27  C    4.576987   5.701251   6.971266   7.296827   6.466534
    28  C    5.937896   6.997736   8.304314   8.682394   7.863895
    29  H    8.391278   9.325516  10.682310  11.176046  10.420684
    30  H    8.505488   9.291304  10.665310  11.287227  10.662599
    31  H    6.978312   7.627974   8.954288   9.637110   9.145406
    32  H    4.852402   5.403042   6.659050   7.347066   6.965474
    33  H    3.122079   3.228962   4.070096   4.699773   4.637885
    34  H    4.930568   5.042090   5.343362   5.535615   5.446266
    35  H    5.972089   6.540875   6.806518   6.546397   5.991354
    36  H    5.691854   6.716268   7.219075   6.820491   5.827822
    37  H    4.222700   5.490588   6.337476   6.161185   5.076427
    38  H    3.096001   3.995643   4.895107   5.056740   4.377294
    39  H    5.218816   5.740911   6.634051   7.022866   6.598547
    40  H    6.899152   7.089958   8.025606   8.710056   8.552018
    41  H    7.039781   7.076536   8.123561   9.021936   8.992172
    42  H    5.675401   5.695273   6.927528   7.960193   7.949000
    43  H    3.816070   3.926035   5.282923   6.293732   6.231812
    44  H    2.164032   1.087210   2.148896   3.397038   3.876932
    45  H    3.411678   2.155000   1.086611   2.154154   3.399344
    46  H    3.891144   3.401870   2.153987   1.086763   2.153593
    47  H    3.411393   3.876409   3.399584   2.154496   1.086603
    48  H    2.164300   3.406410   3.876844   3.396712   2.148471
    49  H    4.330657   5.567307   6.743064   6.912744   5.969857
    50  H    6.624654   7.741537   9.013675   9.308943   8.412656
                   26         27         28         29         30
    26  C    0.000000
    27  C    5.071324   0.000000
    28  C    6.468694   1.398473   0.000000
    29  H    9.024552   3.966383   2.582599   0.000000
    30  H    9.288630   4.450875   3.275065   1.684904   0.000000
    31  H    7.852455   3.867796   3.390902   3.621795   2.425794
    32  H    5.777874   3.400490   3.869094   5.389357   4.669773
    33  H    3.922687   5.126624   6.224191   8.321371   7.850462
    34  H    5.153205   6.906406   7.950292   9.990479   9.435858
    35  H    5.689181   7.136535   8.107440  10.156812   9.805636
    36  H    5.192373   5.707459   6.601667   8.699509   8.696184
    37  H    3.968807   3.333761   4.366706   6.714210   6.945076
    38  H    3.339152   3.928319   5.034871   7.324143   7.992190
    39  H    5.698202   5.135095   5.762947   7.433571   8.261053
    40  H    7.679763   6.526942   6.822686   7.851499   8.522282
    41  H    8.058405   6.517704   6.701038   7.478965   7.852114
    42  H    6.901908   5.108300   5.391306   6.385450   6.351563
    43  H    5.133142   3.899494   4.610728   6.261874   5.998828
    44  H    3.406422   5.766914   6.954817   9.111268   8.952443
    45  H    3.876470   7.855652   9.149927  11.446698  11.342371
    46  H    3.401555   8.365745   9.755040  12.257569  12.367428
    47  H    2.154434   7.044909   8.428353  11.008514  11.336816
    48  H    1.087061   4.598607   5.971311   8.553544   8.947542
    49  H    4.599594   1.086810   2.149032   4.665421   5.389721
    50  H    7.031983   2.146309   1.086368   2.422043   3.621435
                   31         32         33         34         35
    31  H    0.000000
    32  H    2.455737   0.000000
    33  H    5.694436   3.240969   0.000000
    34  H    7.182694   4.937293   2.469204   0.000000
    35  H    7.819535   5.941523   4.291887   2.481607   0.000000
    36  H    7.167706   5.679437   4.963205   4.297495   2.481629
    37  H    5.680416   4.294584   4.313303   4.963518   4.292453
    38  H    7.329748   6.025349   5.791053   7.760117   8.347825
    39  H    8.128946   7.347863   7.683393   9.890937  10.670652
    40  H    8.633037   8.210567   8.916721  11.309893  12.411000
    41  H    7.866807   7.575758   8.526442  10.987314  12.310536
    42  H    5.822240   5.335219   6.454769   8.914813  10.369453
    43  H    4.639424   3.278492   4.015245   6.466875   7.960098
    44  H    7.259923   5.102748   3.225340   5.299073   7.058588
    45  H    9.571261   7.268752   4.610636   5.795357   7.485525
    46  H   10.686273   8.365135   5.574037   6.105301   7.057670
    47  H    9.886076   7.761222   5.480041   5.959645   6.116558
    48  H    7.674875   5.788881   4.387193   5.484621   5.586237
    49  H    4.953953   4.309262   5.485851   7.213377   7.300001
    50  H    4.297409   4.954632   7.207908   8.899152   8.896595
                   36         37         38         39         40
    36  H    0.000000
    37  H    2.469859   0.000000
    38  H    7.232823   5.055911   0.000000
    39  H    9.532906   7.212006   2.455896   0.000000
    40  H   11.466615   9.113549   4.669876   2.423826   0.000000
    41  H   11.580312   9.279793   5.392216   3.622628   1.686398
    42  H    9.877789   7.734833   4.955311   4.298616   3.622920
    43  H    7.686194   5.783191   4.309950   4.955498   5.391443
    44  H    7.337727   6.019097   4.357238   5.752039   6.752295
    45  H    8.134122   7.341630   5.756236   7.257025   8.406513
    46  H    7.494988   7.068666   6.001654   7.883842   9.544995
    47  H    5.815000   5.315675   4.960530   7.201649   9.286889
    48  H    4.629370   3.244444   3.225287   5.677657   7.821169
    49  H    5.695175   3.228427   3.204417   4.574094   6.283773
    50  H    7.185261   4.930378   5.264419   5.746462   6.823698
                   41         42         43         44         45
    41  H    0.000000
    42  H    2.423987   0.000000
    43  H    4.668983   2.455006   0.000000
    44  H    6.506189   4.973071   3.252471   0.000000
    45  H    8.399531   7.231988   5.719557   2.470448   0.000000
    46  H    9.900104   8.927030   7.317825   4.292712   2.481597
    47  H    9.851388   8.908632   7.222093   4.963533   4.297529
    48  H    8.299457   7.202616   5.486559   4.313175   4.963437
    49  H    6.551300   5.450189   4.372570   5.792396   7.689945
    50  H    6.879951   5.919753   5.460249   7.754762   9.890488
                   46         47         48         49         50
    46  H    0.000000
    47  H    2.481570   0.000000
    48  H    4.291966   2.469271   0.000000
    49  H    7.954238   6.452694   3.999371   0.000000
    50  H   10.366531   8.898051   6.436767   2.454008   0.000000
 Stoichiometry    C26H22N2
 Framework group  C1[X(C26H22N2)]
 Deg. of freedom   144
 Full point group                 C1      NOp   1
 Largest Abelian subgroup         C1      NOp   1
 Largest concise Abelian subgroup C1      NOp   1
                         Standard orientation:                         
 ---------------------------------------------------------------------
 Center     Atomic      Atomic             Coordinates (Angstroms)
 Number     Number       Type             X           Y           Z
 ---------------------------------------------------------------------
      1          7           0       -4.394837   -3.753305    0.167184
      2          6           0       -3.267894   -2.925621    0.087350
      3          6           0       -2.402883   -3.017316   -1.004893
      4          6           0       -1.217278   -2.276050   -1.042280
      5          6           0       -0.860099   -1.454771    0.033489
      6          6           0        0.419472   -0.684339   -0.009296
      7          6           0        1.703060   -1.447901   -0.065650
      8          6           0        2.530197   -1.394825   -1.196591
      9          6           0        3.715538   -2.131310   -1.241489
     10          6           0        4.077821   -2.936829   -0.163194
     11          6           0        3.254731   -3.010262    0.959309
     12          6           0        2.070168   -2.272540    1.006948
     13          6           0        0.415315    0.684954    0.003627
     14          6           0       -0.867187    1.450373   -0.038933
     15          6           0       -1.244470    2.238938    1.054308
     16          6           0       -2.432772    2.975818    1.020018
     17          6           0       -3.237645    2.980065   -0.121050
     18          7           0       -4.480864    3.623644   -0.104903
     19          6           0       -2.884561    2.156937   -1.192347
     20          6           0       -1.696441    1.419362   -1.166451
     21          6           0        1.694014    1.456084    0.063201
     22          6           0        2.063028    2.277183   -1.011474
     23          6           0        3.243480    3.021256   -0.960591
     24          6           0        4.060194    2.957740    0.167213
     25          6           0        3.695880    2.155474    1.247289
     26          6           0        2.514824    1.412422    1.199056
     27          6           0       -1.687900   -1.425548    1.162137
     28          6           0       -2.873390   -2.166836    1.190975
     29          1           0       -5.106710   -3.403853    0.801244
     30          1           0       -4.778212   -4.003842   -0.738562
     31          1           0       -2.643527   -3.668116   -1.840780
     32          1           0       -0.570270   -2.353913   -1.912334
     33          1           0        2.256970   -0.775143   -2.046795
     34          1           0        4.354858   -2.075419   -2.118287
     35          1           0        5.000143   -3.510452   -0.199261
     36          1           0        3.532260   -3.644035    1.797226
     37          1           0        1.434027   -2.344124    1.885843
     38          1           0       -0.623667    2.273723    1.946029
     39          1           0       -2.720777    3.550835    1.895600
     40          1           0       -4.518781    4.420637    0.522444
     41          1           0       -4.838155    3.842659   -1.029290
     42          1           0       -3.531087    2.081817   -2.062111
     43          1           0       -1.433397    0.806917   -2.024927
     44          1           0        1.432499    2.339343   -1.894987
     45          1           0        3.523710    3.651214   -1.800440
     46          1           0        4.979812    3.535559    0.205730
     47          1           0        4.330707    2.106393    2.127796
     48          1           0        2.240377    0.794228    2.050065
     49          1           0       -1.414009   -0.830579    2.029404
     50          1           0       -3.488082   -2.140974    2.086342
 ---------------------------------------------------------------------
 Rotational constants (GHZ):           0.2109736           0.1607097           0.1024142
 Standard basis: 6-31G(d,p) (6D, 7F)
 There are   530 symmetry adapted cartesian basis functions of A   symmetry.
 There are   530 symmetry adapted basis functions of A   symmetry.
   530 basis functions,   938 primitive gaussians,   530 cartesian basis functions
    96 alpha electrons       96 beta electrons
       nuclear repulsion energy      2403.0851020243 Hartrees.
 NAtoms=   50 NActive=   50 NUniq=   50 SFac= 1.00D+00 NAtFMM=   60 NAOKFM=F Big=F
 Integral buffers will be    131072 words long.
 Raffenetti 2 integral format.
 Two-electron integral symmetry is turned on.
 Force inversion solution in PCM.
 ------------------------------------------------------------------------------
 Polarizable Continuum Model (PCM)
 =================================
 Model                : PCM.
 Atomic radii         : UFF (Universal Force Field).
 Polarization charges : Total charges.
 Charge compensation  : None.
 Solution method      : Matrix inversion.
 Cavity type          : Scaled VdW (van der Waals Surface) (Alpha=1.100).
 Cavity algorithm     : GePol (No added spheres)
                        Default sphere list used, NSphG=   50.
                        Lebedev-Laikov grids with approx.  5.0 points / Ang**2.
                        Smoothing algorithm: York/Karplus (Gamma=1.0000).
                        Polarization charges: spherical gaussians, with
                                              point-specific exponents (IZeta= 3).
                        Self-potential: point-specific (ISelfS= 7).
                        Self-field    : sphere-specific E.n sum rule (ISelfD= 2).
 1st derivatives      : Analytical E(r).r(x)/FMM algorithm (CHGder, D1EAlg=3).
                        Cavity 1st derivative terms included.
 2nd derivatives      : Analytical E(r).r(xy)/FMM algorithm (CHGder, D2EAlg=3).
                        Cavity 2nd derivative terms included.
 Solvent              : Water, Eps=  78.355300 Eps(inf)=   1.777849
 ------------------------------------------------------------------------------
 One-electron integrals computed using PRISM.
 NBasis=   530 RedAO= T EigKep=  4.27D-04  NBF=   530
 NBsUse=   530 1.00D-06 EigRej= -1.00D+00 NBFU=   530
 ExpMin= 1.61D-01 ExpMax= 4.17D+03 ExpMxC= 6.27D+02 IAcc=3 IRadAn=         5 AccDes= 0.00D+00
 Harris functional with IExCor=  402 and IRadAn=       5 diagonalized for initial guess.
 HarFok:  IExCor=  402 AccDes= 0.00D+00 IRadAn=         5 IDoV= 1 UseB2=F ITyADJ=14
 ICtDFT=  3500011 ScaDFX=  1.000000  1.000000  1.000000  1.000000
 FoFCou: FMM=F IPFlag=           0 FMFlag=      100000 FMFlg1=           0
         NFxFlg=           0 DoJE=T BraDBF=F KetDBF=T FulRan=T
         wScrn=  0.000000 ICntrl=       500 IOpCl=  0 I1Cent=   200000004 NGrid=           0
         NMat0=    1 NMatS0=      1 NMatT0=    0 NMatD0=    1 NMtDS0=    0 NMtDT0=    0
 Petite list used in FoFCou.
 Requested convergence on RMS density matrix=1.00D-08 within  32 cycles.
 Requested convergence on MAX density matrix=1.00D-06.
 Requested convergence on             energy=1.00D-06.
 No special actions if energy rises.
 Inv3:  Mode=1 IEnd=    38815227.
 Iteration    1 A*A^-1 deviation from unit magnitude is 4.11D-15 for   1908.
 Iteration    1 A*A^-1 deviation from orthogonality  is 2.66D-15 for   3218    119.
 Iteration    1 A^-1*A deviation from unit magnitude is 3.33D-15 for    106.
 Iteration    1 A^-1*A deviation from orthogonality  is 2.94D-15 for   2730   2055.
 Error on total polarization charges =  0.01195
 SCF Done:  E(RB3LYP) =  -1113.56126543     A.U. after   12 cycles
            NFock= 12  Conv=0.71D-08     -V/T= 2.0098
 QCSCF skips out because SCF is already converged.
 DoSCS=F DFT=T ScalE2(SS,OS)=  1.000000  1.000000
 Range of M.O.s used for correlation:     1   530
 NBasis=   530 NAE=    96 NBE=    96 NFC=     0 NFV=     0
 NROrb=    530 NOA=    96 NOB=    96 NVA=   434 NVB=   434
 Symmetrizing basis deriv contribution to polar:
 IMax=3 JMax=2 DiffMx= 0.00D+00
 G2DrvN: will do    51 centers at a time, making    1 passes.
 Calling FoFCou, ICntrl=  3107 FMM=F I1Cent=   0 AccDes= 0.00D+00.
 NEqPCM:  Using equilibrium solvation (IEInf=0, Eps=  78.3553, EpsInf=   1.7778)
 G2PCM: DoFxE=T DoFxN=T DoGrad=T DoDP/DQ/DG/TGxP=FFFF NFrqRd=   0 IEInf=0 SqF1=F DoCFld=F IF1Alg=4.
 End of G2Drv F.D. properties file   721 does not exist.
 End of G2Drv F.D. properties file   722 does not exist.
 End of G2Drv F.D. properties file   788 does not exist.
          IDoAtm=11111111111111111111111111111111111111111111111111
 NEqPCM:  Using equilibrium solvation (IEInf=0, Eps=  78.3553, EpsInf=   1.7778)
          Differentiating once with respect to nuclear coordinates.
 CalDSu exits because no D1Ps are significant.
          There are   153 degrees of freedom in the 1st order CPHF.  IDoFFX=6 NUNeed=     0.
    147 vectors produced by pass  0 Test12= 4.17D-14 1.00D-09 XBig12= 1.42D-01 8.80D-02.
 AX will form   147 AO Fock derivatives at one time.
    147 vectors produced by pass  1 Test12= 4.17D-14 1.00D-09 XBig12= 1.94D-02 2.61D-02.
    147 vectors produced by pass  2 Test12= 4.17D-14 1.00D-09 XBig12= 1.75D-04 2.14D-03.
    147 vectors produced by pass  3 Test12= 4.17D-14 1.00D-09 XBig12= 6.28D-07 6.75D-05.
    147 vectors produced by pass  4 Test12= 4.17D-14 1.00D-09 XBig12= 1.02D-09 2.69D-06.
    104 vectors produced by pass  5 Test12= 4.17D-14 1.00D-09 XBig12= 1.44D-12 1.04D-07.
     17 vectors produced by pass  6 Test12= 4.17D-14 1.00D-09 XBig12= 1.80D-15 3.64D-09.
 InvSVY:  IOpt=1 It=  1 EMax= 6.11D-16
 Solved reduced A of dimension   856 with   153 vectors.
 End of Minotr F.D. properties file   721 does not exist.
 End of Minotr F.D. properties file   722 does not exist.
 End of Minotr F.D. properties file   788 does not exist.

 **********************************************************************

            Population analysis using the SCF density.

 **********************************************************************

 Orbital symmetries:
       Occupied  (A) (A) (A) (A) (A) (A) (A) (A) (A) (A) (A) (A)
                 (A) (A) (A) (A) (A) (A) (A) (A) (A) (A) (A) (A)
                 (A) (A) (A) (A) (A) (A) (A) (A) (A) (A) (A) (A)
                 (A) (A) (A) (A) (A) (A) (A) (A) (A) (A) (A) (A)
                 (A) (A) (A) (A) (A) (A) (A) (A) (A) (A) (A) (A)
                 (A) (A) (A) (A) (A) (A) (A) (A) (A) (A) (A) (A)
                 (A) (A) (A) (A) (A) (A) (A) (A) (A) (A) (A) (A)
                 (A) (A) (A) (A) (A) (A) (A) (A) (A) (A) (A) (A)
       Virtual   (A) (A) (A) (A) (A) (A) (A) (A) (A) (A) (A) (A)
                 (A) (A) (A) (A) (A) (A) (A) (A) (A) (A) (A) (A)
                 (A) (A) (A) (A) (A) (A) (A) (A) (A) (A) (A) (A)
                 (A) (A) (A) (A) (A) (A) (A) (A) (A) (A) (A) (A)
                 (A) (A) (A) (A) (A) (A) (A) (A) (A) (A) (A) (A)
                 (A) (A) (A) (A) (A) (A) (A) (A) (A) (A) (A) (A)
                 (A) (A) (A) (A) (A) (A) (A) (A) (A) (A) (A) (A)
                 (A) (A) (A) (A) (A) (A) (A) (A) (A) (A) (A) (A)
                 (A) (A) (A) (A) (A) (A) (A) (A) (A) (A) (A) (A)
                 (A) (A) (A) (A) (A) (A) (A) (A) (A) (A) (A) (A)
                 (A) (A) (A) (A) (A) (A) (A) (A) (A) (A) (A) (A)
                 (A) (A) (A) (A) (A) (A) (A) (A) (A) (A) (A) (A)
                 (A) (A) (A) (A) (A) (A) (A) (A) (A) (A) (A) (A)
                 (A) (A) (A) (A) (A) (A) (A) (A) (A) (A) (A) (A)
                 (A) (A) (A) (A) (A) (A) (A) (A) (A) (A) (A) (A)
                 (A) (A) (A) (A) (A) (A) (A) (A) (A) (A) (A) (A)
                 (A) (A) (A) (A) (A) (A) (A) (A) (A) (A) (A) (A)
                 (A) (A) (A) (A) (A) (A) (A) (A) (A) (A) (A) (A)
                 (A) (A) (A) (A) (A) (A) (A) (A) (A) (A) (A) (A)
                 (A) (A) (A) (A) (A) (A) (A) (A) (A) (A) (A) (A)
                 (A) (A) (A) (A) (A) (A) (A) (A) (A) (A) (A) (A)
                 (A) (A) (A) (A) (A) (A) (A) (A) (A) (A) (A) (A)
                 (A) (A) (A) (A) (A) (A) (A) (A) (A) (A) (A) (A)
                 (A) (A) (A) (A) (A) (A) (A) (A) (A) (A) (A) (A)
                 (A) (A) (A) (A) (A) (A) (A) (A) (A) (A) (A) (A)
                 (A) (A) (A) (A) (A) (A) (A) (A) (A) (A) (A) (A)
                 (A) (A) (A) (A) (A) (A) (A) (A) (A) (A) (A) (A)
                 (A) (A) (A) (A) (A) (A) (A) (A) (A) (A) (A) (A)
                 (A) (A) (A) (A) (A) (A) (A) (A) (A) (A) (A) (A)
                 (A) (A) (A) (A) (A) (A) (A) (A) (A) (A) (A) (A)
                 (A) (A) (A) (A) (A) (A) (A) (A) (A) (A) (A) (A)
                 (A) (A) (A) (A) (A) (A) (A) (A) (A) (A) (A) (A)
                 (A) (A) (A) (A) (A) (A) (A) (A) (A) (A) (A) (A)
                 (A) (A) (A) (A) (A) (A) (A) (A) (A) (A) (A) (A)
                 (A) (A) (A) (A) (A) (A) (A) (A) (A) (A) (A) (A)
                 (A) (A) (A) (A) (A) (A) (A) (A) (A) (A) (A) (A)
                 (A) (A)
 The electronic state is 1-A.
 Alpha  occ. eigenvalues --  -14.33566 -14.33559 -10.22475 -10.22458 -10.19740
 Alpha  occ. eigenvalues --  -10.19730 -10.19620 -10.19552 -10.18921 -10.18920
 Alpha  occ. eigenvalues --  -10.18895 -10.18894 -10.18813 -10.18808 -10.18799
 Alpha  occ. eigenvalues --  -10.18796 -10.18770 -10.18768 -10.18711 -10.18706
 Alpha  occ. eigenvalues --  -10.18686 -10.18682 -10.18620 -10.18618 -10.18152
 Alpha  occ. eigenvalues --  -10.18145 -10.18106 -10.18097  -0.91343  -0.91321
 Alpha  occ. eigenvalues --   -0.86830  -0.85238  -0.84210  -0.83394  -0.79824
 Alpha  occ. eigenvalues --   -0.75813  -0.74314  -0.74265  -0.74062  -0.74056
 Alpha  occ. eigenvalues --   -0.73588  -0.72360  -0.68850  -0.63055  -0.61269
 Alpha  occ. eigenvalues --   -0.61142  -0.60200  -0.60125  -0.59727  -0.58872
 Alpha  occ. eigenvalues --   -0.57608  -0.54275  -0.52158  -0.51233  -0.51124
 Alpha  occ. eigenvalues --   -0.50301  -0.50077  -0.49090  -0.47576  -0.46003
 Alpha  occ. eigenvalues --   -0.45245  -0.44980  -0.44304  -0.43530  -0.43166
 Alpha  occ. eigenvalues --   -0.42881  -0.42633  -0.41958  -0.41770  -0.41593
 Alpha  occ. eigenvalues --   -0.41285  -0.40963  -0.40881  -0.38372  -0.37983
 Alpha  occ. eigenvalues --   -0.37345  -0.36323  -0.35912  -0.35399  -0.34877
 Alpha  occ. eigenvalues --   -0.34630  -0.34173  -0.33990  -0.33821  -0.31954
 Alpha  occ. eigenvalues --   -0.30788  -0.30289  -0.26343  -0.25638  -0.25158
 Alpha  occ. eigenvalues --   -0.24948  -0.24817  -0.24596  -0.23010  -0.20828
 Alpha  occ. eigenvalues --   -0.18889
 Alpha virt. eigenvalues --   -0.02747  -0.01204  -0.00530  -0.00334   0.00320
 Alpha virt. eigenvalues --    0.00630   0.00680   0.02828   0.04832   0.09173
 Alpha virt. eigenvalues --    0.09456   0.09553   0.10359   0.10840   0.11860
 Alpha virt. eigenvalues --    0.12263   0.13509   0.14106   0.14886   0.15184
 Alpha virt. eigenvalues --    0.15463   0.15783   0.16211   0.16421   0.17039
 Alpha virt. eigenvalues --    0.17347   0.17612   0.18002   0.18705   0.19011
 Alpha virt. eigenvalues --    0.19152   0.19868   0.20324   0.20553   0.21661
 Alpha virt. eigenvalues --    0.24445   0.24902   0.25790   0.27373   0.27627
 Alpha virt. eigenvalues --    0.29346   0.29470   0.30577   0.30917   0.31567
 Alpha virt. eigenvalues --    0.32357   0.32879   0.33687   0.33802   0.34300
 Alpha virt. eigenvalues --    0.34421   0.34576   0.35546   0.35627   0.36391
 Alpha virt. eigenvalues --    0.37050   0.43224   0.45120   0.46348   0.46815
 Alpha virt. eigenvalues --    0.47116   0.47965   0.49215   0.50182   0.51471
 Alpha virt. eigenvalues --    0.52167   0.52249   0.52915   0.53230   0.53481
 Alpha virt. eigenvalues --    0.53872   0.54424   0.54700   0.55003   0.55213
 Alpha virt. eigenvalues --    0.55535   0.55977   0.57244   0.57287   0.58174
 Alpha virt. eigenvalues --    0.58290   0.58833   0.58988   0.59412   0.59464
 Alpha virt. eigenvalues --    0.59879   0.60042   0.60076   0.60126   0.60620
 Alpha virt. eigenvalues --    0.60716   0.60805   0.61326   0.61609   0.61708
 Alpha virt. eigenvalues --    0.61845   0.62261   0.62579   0.63189   0.64772
 Alpha virt. eigenvalues --    0.64995   0.65622   0.65894   0.66474   0.66759
 Alpha virt. eigenvalues --    0.67327   0.68111   0.69558   0.70203   0.70826
 Alpha virt. eigenvalues --    0.71200   0.71913   0.72819   0.75429   0.75805
 Alpha virt. eigenvalues --    0.76108   0.76570   0.77688   0.78940   0.79689
 Alpha virt. eigenvalues --    0.80991   0.81850   0.82005   0.82382   0.82620
 Alpha virt. eigenvalues --    0.82733   0.82853   0.82968   0.83286   0.84230
 Alpha virt. eigenvalues --    0.84763   0.85082   0.85368   0.85838   0.86006
 Alpha virt. eigenvalues --    0.86591   0.87185   0.87375   0.88283   0.88536
 Alpha virt. eigenvalues --    0.89176   0.89285   0.89295   0.89921   0.90158
 Alpha virt. eigenvalues --    0.90956   0.91694   0.93122   0.94848   0.95558
 Alpha virt. eigenvalues --    0.96108   0.96834   0.98211   0.98953   0.99294
 Alpha virt. eigenvalues --    0.99757   1.00797   1.00945   1.01053   1.02030
 Alpha virt. eigenvalues --    1.02331   1.05625   1.05958   1.06736   1.06989
 Alpha virt. eigenvalues --    1.09529   1.09775   1.11249   1.13323   1.13713
 Alpha virt. eigenvalues --    1.14957   1.15011   1.15942   1.16538   1.17456
 Alpha virt. eigenvalues --    1.18262   1.20869   1.21088   1.21816   1.23196
 Alpha virt. eigenvalues --    1.23418   1.24850   1.25925   1.26609   1.27367
 Alpha virt. eigenvalues --    1.29271   1.29725   1.31092   1.32654   1.33986
 Alpha virt. eigenvalues --    1.34124   1.35028   1.36057   1.36773   1.39400
 Alpha virt. eigenvalues --    1.39985   1.40428   1.40594   1.40674   1.41142
 Alpha virt. eigenvalues --    1.41174   1.41710   1.41956   1.42302   1.42687
 Alpha virt. eigenvalues --    1.42849   1.44212   1.44341   1.46083   1.47175
 Alpha virt. eigenvalues --    1.48466   1.50920   1.52073   1.52460   1.54183
 Alpha virt. eigenvalues --    1.54677   1.64916   1.65489   1.66977   1.68908
 Alpha virt. eigenvalues --    1.73323   1.73913   1.75462   1.77101   1.77430
 Alpha virt. eigenvalues --    1.78268   1.78659   1.79171   1.80361   1.80748
 Alpha virt. eigenvalues --    1.81584   1.81784   1.82251   1.82476   1.84176
 Alpha virt. eigenvalues --    1.85310   1.85860   1.86680   1.87396   1.88257
 Alpha virt. eigenvalues --    1.89506   1.89705   1.90803   1.91685   1.92444
 Alpha virt. eigenvalues --    1.93041   1.93251   1.93497   1.94744   1.95121
 Alpha virt. eigenvalues --    1.96467   1.96743   1.97031   1.97550   1.98070
 Alpha virt. eigenvalues --    1.98257   1.98543   1.99162   1.99838   2.00155
 Alpha virt. eigenvalues --    2.00348   2.00918   2.01070   2.03180   2.03906
 Alpha virt. eigenvalues --    2.05073   2.06579   2.07016   2.07586   2.08738
 Alpha virt. eigenvalues --    2.09006   2.10587   2.11165   2.12087   2.14082
 Alpha virt. eigenvalues --    2.16325   2.16672   2.18502   2.23045   2.24238
 Alpha virt. eigenvalues --    2.24610   2.25263   2.26020   2.26439   2.27504
 Alpha virt. eigenvalues --    2.28128   2.28617   2.29440   2.30056   2.30785
 Alpha virt. eigenvalues --    2.31785   2.33213   2.34008   2.35256   2.35671
 Alpha virt. eigenvalues --    2.35967   2.36536   2.36840   2.37406   2.37498
 Alpha virt. eigenvalues --    2.39168   2.39625   2.39880   2.40506   2.40866
 Alpha virt. eigenvalues --    2.41358   2.41827   2.42097   2.42404   2.42924
 Alpha virt. eigenvalues --    2.44836   2.44967   2.45123   2.45998   2.46475
 Alpha virt. eigenvalues --    2.46704   2.47172   2.47359   2.48286   2.49041
 Alpha virt. eigenvalues --    2.49610   2.49800   2.50695   2.51191   2.52020
 Alpha virt. eigenvalues --    2.52280   2.52375   2.54166   2.54618   2.55120
 Alpha virt. eigenvalues --    2.55692   2.57314   2.57382   2.58755   2.59499
 Alpha virt. eigenvalues --    2.59900   2.60212   2.60520   2.60905   2.64093
 Alpha virt. eigenvalues --    2.64685   2.65662   2.66041   2.66426   2.67038
 Alpha virt. eigenvalues --    2.67591   2.68499   2.70592   2.71774   2.72909
 Alpha virt. eigenvalues --    2.73504   2.76178   2.76791   2.78095   2.78885
 Alpha virt. eigenvalues --    2.79302   2.80599   2.81114   2.83003   2.83580
 Alpha virt. eigenvalues --    2.85817   2.87531   2.88496   2.89292   2.97254
 Alpha virt. eigenvalues --    2.98603   2.98789   3.00101   3.00362   3.05589
 Alpha virt. eigenvalues --    3.06287   3.06436   3.07056   3.07773   3.08884
 Alpha virt. eigenvalues --    3.15160   3.18711   3.18937   3.21423   3.22210
 Alpha virt. eigenvalues --    3.23974   3.24219   3.24914   3.25471   3.25822
 Alpha virt. eigenvalues --    3.25903   3.28540   3.28721   3.30840   3.31156
 Alpha virt. eigenvalues --    3.36435   3.36469   3.38172   3.38728   3.42612
 Alpha virt. eigenvalues --    3.43464   3.48887   3.49077   3.50857   3.51053
 Alpha virt. eigenvalues --    3.53722   3.53939   3.83338   3.83466   3.89551
 Alpha virt. eigenvalues --    3.89616   4.04352   4.04560   4.12011   4.13667
 Alpha virt. eigenvalues --    4.14053   4.14508   4.15179   4.15677   4.15768
 Alpha virt. eigenvalues --    4.17493   4.17529   4.21681   4.26969   4.29304
 Alpha virt. eigenvalues --    4.32898   4.41051   4.42741   4.45282   4.45364
 Alpha virt. eigenvalues --    4.47395   4.51304   4.51704   4.53595   4.64155
 Alpha virt. eigenvalues --    4.83298   4.83798   4.84171   4.88542
          Condensed to atoms (all electrons):
               1          2          3          4          5          6
     1  N    6.832789   0.297331  -0.070673   0.004591   0.000454  -0.000000
     2  C    0.297331   4.580133   0.539130  -0.026270  -0.029047   0.000681
     3  C   -0.070673   0.539130   4.955401   0.508994  -0.032269   0.006062
     4  C    0.004591  -0.026270   0.508994   4.900086   0.531342  -0.049864
     5  C    0.000454  -0.029047  -0.032269   0.531342   4.832174   0.333489
     6  C   -0.000000   0.000681   0.006062  -0.049864   0.333489   5.119186
     7  C   -0.000000   0.000052   0.000107  -0.000510  -0.063568   0.326485
     8  C   -0.000000   0.000001   0.000027   0.000549  -0.000778  -0.045424
     9  C    0.000000   0.000000   0.000001  -0.000080  -0.000099   0.006179
    10  C   -0.000000  -0.000000   0.000000   0.000001   0.000040   0.000545
    11  C    0.000000   0.000000  -0.000003  -0.000076   0.000118   0.006044
    12  C    0.000000   0.000001  -0.000083   0.000249  -0.000289  -0.050065
    13  C   -0.000000   0.000008   0.000017   0.000100  -0.045754   0.571647
    14  C   -0.000000   0.000012  -0.000091  -0.000053  -0.011931  -0.046704
    15  C   -0.000000   0.000004   0.000001   0.000048   0.000038   0.000089
    16  C    0.000000  -0.000000  -0.000000  -0.000001  -0.000128  -0.000017
    17  C    0.000000  -0.000002  -0.000000   0.000009   0.000033   0.000045
    18  N   -0.000000   0.000000   0.000000  -0.000000   0.000000   0.000000
    19  C   -0.000000   0.000011   0.000004  -0.000086  -0.000474   0.000382
    20  C   -0.000000   0.000063   0.000016  -0.000914   0.002178  -0.008074
    21  C    0.000000   0.000000   0.000002  -0.000141   0.005771  -0.047232
    22  C   -0.000000  -0.000000  -0.000000   0.000001  -0.000139   0.000395
    23  C   -0.000000   0.000000   0.000000  -0.000000   0.000002  -0.000032
    24  C    0.000000   0.000000   0.000000  -0.000000  -0.000000   0.000023
    25  C    0.000000   0.000000  -0.000000   0.000000   0.000004   0.000355
    26  C   -0.000000  -0.000000  -0.000000   0.000003   0.000000  -0.007954
    27  C    0.004541  -0.026304  -0.046929  -0.037023   0.539989  -0.044755
    28  C   -0.070712   0.538238  -0.048185  -0.046039  -0.034917   0.006212
    29  H    0.343098  -0.025125   0.005523  -0.000185   0.000002  -0.000000
    30  H    0.343146  -0.025119  -0.009319  -0.000060   0.000004  -0.000000
    31  H   -0.007352  -0.043890   0.363251  -0.032961   0.003818  -0.000203
    32  H   -0.000112   0.003921  -0.037920   0.365578  -0.043994  -0.007376
    33  H   -0.000000   0.000000   0.000005  -0.000002   0.000069  -0.005526
    34  H    0.000000  -0.000000   0.000000   0.000001   0.000001  -0.000187
    35  H   -0.000000  -0.000000  -0.000000  -0.000000   0.000000   0.000003
    36  H    0.000000  -0.000000   0.000000   0.000001  -0.000002  -0.000200
    37  H   -0.000000  -0.000010  -0.000021   0.000233   0.002672  -0.007168
    38  H   -0.000000   0.000000  -0.000000   0.000001   0.000024   0.000554
    39  H   -0.000000   0.000000   0.000000  -0.000000  -0.000000  -0.000000
    40  H    0.000000  -0.000000  -0.000000   0.000000  -0.000000   0.000000
    41  H    0.000000  -0.000000  -0.000000   0.000000  -0.000000   0.000000
    42  H    0.000000  -0.000000  -0.000000  -0.000005   0.000001  -0.000008
    43  H   -0.000000   0.000003   0.000160   0.001973   0.000674   0.002934
    44  H   -0.000000  -0.000000   0.000000  -0.000000  -0.000026   0.000567
    45  H    0.000000  -0.000000  -0.000000   0.000000  -0.000000   0.000001
    46  H    0.000000   0.000000  -0.000000  -0.000000   0.000000   0.000000
    47  H   -0.000000  -0.000000   0.000000   0.000000  -0.000000  -0.000006
    48  H   -0.000000   0.000000  -0.000000   0.000001  -0.000188   0.003008
    49  H   -0.000112   0.004046   0.000514   0.005680  -0.044626  -0.005395
    50  H   -0.007342  -0.043920   0.005125   0.000708   0.003900  -0.000193
               7          8          9         10         11         12
     1  N   -0.000000  -0.000000   0.000000  -0.000000   0.000000   0.000000
     2  C    0.000052   0.000001   0.000000  -0.000000   0.000000   0.000001
     3  C    0.000107   0.000027   0.000001   0.000000  -0.000003  -0.000083
     4  C   -0.000510   0.000549  -0.000080   0.000001  -0.000076   0.000249
     5  C   -0.063568  -0.000778  -0.000099   0.000040   0.000118  -0.000289
     6  C    0.326485  -0.045424   0.006179   0.000545   0.006044  -0.050065
     7  C    4.824303   0.538108  -0.025608  -0.033508  -0.023042   0.530242
     8  C    0.538108   4.907171   0.503781  -0.043057  -0.045646  -0.042963
     9  C   -0.025608   0.503781   4.862350   0.545825  -0.032102  -0.044410
    10  C   -0.033508  -0.043057   0.545825   4.828548   0.545091  -0.043297
    11  C   -0.023042  -0.045646  -0.032102   0.545091   4.849464   0.514394
    12  C    0.530242  -0.042963  -0.044410  -0.043297   0.514394   4.909249
    13  C   -0.047231  -0.008052   0.000356   0.000023  -0.000034   0.000398
    14  C    0.005735  -0.000001   0.000004  -0.000000   0.000002  -0.000139
    15  C   -0.000142   0.000003   0.000000  -0.000000  -0.000000   0.000001
    16  C    0.000003  -0.000000  -0.000000   0.000000   0.000000  -0.000000
    17  C   -0.000000  -0.000000  -0.000000   0.000000   0.000000  -0.000000
    18  N    0.000000  -0.000000  -0.000000   0.000000  -0.000000  -0.000000
    19  C    0.000004   0.000000   0.000000   0.000000  -0.000000   0.000000
    20  C    0.000008   0.000008   0.000000   0.000000  -0.000000   0.000003
    21  C   -0.012488   0.002236  -0.000360   0.000023  -0.000107   0.000092
    22  C    0.000080  -0.000932  -0.000109   0.000007  -0.000001   0.000041
    23  C   -0.000108   0.000015   0.000005  -0.000000   0.000000  -0.000001
    24  C    0.000023   0.000062   0.000014  -0.000003  -0.000000   0.000007
    25  C   -0.000356  -0.000281   0.000019   0.000014   0.000005  -0.000108
    26  C    0.002262   0.000512  -0.000277   0.000060   0.000017  -0.000890
    27  C   -0.000413  -0.000062   0.000003   0.000001   0.000021   0.000535
    28  C   -0.000108   0.000003  -0.000000   0.000000   0.000001  -0.000087
    29  H    0.000000   0.000000  -0.000000  -0.000000   0.000000   0.000000
    30  H    0.000000   0.000000   0.000000  -0.000000   0.000000   0.000000
    31  H   -0.000004  -0.000001  -0.000000  -0.000000   0.000000   0.000001
    32  H    0.002687   0.002094   0.000087  -0.000007  -0.000023   0.000241
    33  H   -0.045444   0.369431  -0.041613   0.004888   0.000269   0.005707
    34  H    0.003782  -0.035846   0.368426  -0.041210   0.004481   0.000811
    35  H    0.000544   0.004855  -0.041331   0.371905  -0.041479   0.004903
    36  H    0.003726   0.000853   0.004450  -0.041204   0.369056  -0.036740
    37  H   -0.044619   0.005636   0.000276   0.004817  -0.042058   0.368895
    38  H   -0.000026   0.000000  -0.000000  -0.000000   0.000000  -0.000000
[...]
   322    C   22  py     Val( 2p)     1.05198
   323    C   22  py     Ryd( 3p)     0.00284
   324    C   22  pz     Val( 2p)     1.12111
   325    C   22  pz     Ryd( 3p)     0.00364
   326    C   22  dxy    Ryd( 3d)     0.00046
   327    C   22  dxz    Ryd( 3d)     0.00064
   328    C   22  dyz    Ryd( 3d)     0.00048
   329    C   22  dx2y2  Ryd( 3d)     0.00057
   330    C   22  dz2    Ryd( 3d)     0.00042

   331    C   23  S      Cor( 1S)     1.99911
   332    C   23  S      Val( 2S)     0.96152
   333    C   23  S      Ryd( 3S)     0.00059
   334    C   23  S      Ryd( 4S)     0.00003
   335    C   23  px     Val( 2p)     1.05740
   336    C   23  px     Ryd( 3p)     0.00368
   337    C   23  py     Val( 2p)     1.12072
   338    C   23  py     Ryd( 3p)     0.00353
   339    C   23  pz     Val( 2p)     1.09485
   340    C   23  pz     Ryd( 3p)     0.00347
   341    C   23  dxy    Ryd( 3d)     0.00051
   342    C   23  dxz    Ryd( 3d)     0.00048
   343    C   23  dyz    Ryd( 3d)     0.00062
   344    C   23  dx2y2  Ryd( 3d)     0.00057
   345    C   23  dz2    Ryd( 3d)     0.00048

   346    C   24  S      Cor( 1S)     1.99910
   347    C   24  S      Val( 2S)     0.96131
   348    C   24  S      Ryd( 3S)     0.00054
   349    C   24  S      Ryd( 4S)     0.00003
   350    C   24  px     Val( 2p)     1.15218
   351    C   24  px     Ryd( 3p)     0.00409
   352    C   24  py     Val( 2p)     1.09559
   353    C   24  py     Ryd( 3p)     0.00366
   354    C   24  pz     Val( 2p)     1.05673
   355    C   24  pz     Ryd( 3p)     0.00364
   356    C   24  dxy    Ryd( 3d)     0.00060
   357    C   24  dxz    Ryd( 3d)     0.00047
   358    C   24  dyz    Ryd( 3d)     0.00043
   359    C   24  dx2y2  Ryd( 3d)     0.00045
   360    C   24  dz2    Ryd( 3d)     0.00056

   361    C   25  S      Cor( 1S)     1.99910
   362    C   25  S      Val( 2S)     0.96138
   363    C   25  S      Ryd( 3S)     0.00059
   364    C   25  S      Ryd( 4S)     0.00003
   365    C   25  px     Val( 2p)     1.10150
   366    C   25  px     Ryd( 3p)     0.00389
   367    C   25  py     Val( 2p)     1.05383
   368    C   25  py     Ryd( 3p)     0.00321
   369    C   25  pz     Val( 2p)     1.12368
   370    C   25  pz     Ryd( 3p)     0.00371
   371    C   25  dxy    Ryd( 3d)     0.00045
   372    C   25  dxz    Ryd( 3d)     0.00065
   373    C   25  dyz    Ryd( 3d)     0.00046
   374    C   25  dx2y2  Ryd( 3d)     0.00065
   375    C   25  dz2    Ryd( 3d)     0.00044

   376    C   26  S      Cor( 1S)     1.99903
   377    C   26  S      Val( 2S)     0.95202
   378    C   26  S      Ryd( 3S)     0.00067
   379    C   26  S      Ryd( 4S)     0.00005
   380    C   26  px     Val( 2p)     1.05284
   381    C   26  px     Ryd( 3p)     0.00292
   382    C   26  py     Val( 2p)     1.12379
   383    C   26  py     Ryd( 3p)     0.00341
   384    C   26  pz     Val( 2p)     1.08913
   385    C   26  pz     Ryd( 3p)     0.00357
   386    C   26  dxy    Ryd( 3d)     0.00049
   387    C   26  dxz    Ryd( 3d)     0.00049
   388    C   26  dyz    Ryd( 3d)     0.00059
   389    C   26  dx2y2  Ryd( 3d)     0.00057
   390    C   26  dz2    Ryd( 3d)     0.00048

   391    C   27  S      Cor( 1S)     1.99904
   392    C   27  S      Val( 2S)     0.95398
   393    C   27  S      Ryd( 3S)     0.00073
   394    C   27  S      Ryd( 4S)     0.00005
   395    C   27  px     Val( 2p)     1.03889
   396    C   27  px     Ryd( 3p)     0.00302
   397    C   27  py     Val( 2p)     1.11091
   398    C   27  py     Ryd( 3p)     0.00337
   399    C   27  pz     Val( 2p)     1.08879
   400    C   27  pz     Ryd( 3p)     0.00374
   401    C   27  dxy    Ryd( 3d)     0.00048
   402    C   27  dxz    Ryd( 3d)     0.00052
   403    C   27  dyz    Ryd( 3d)     0.00062
   404    C   27  dx2y2  Ryd( 3d)     0.00061
   405    C   27  dz2    Ryd( 3d)     0.00047

   406    C   28  S      Cor( 1S)     1.99904
   407    C   28  S      Val( 2S)     0.95730
   408    C   28  S      Ryd( 3S)     0.00065
   409    C   28  S      Ryd( 4S)     0.00004
   410    C   28  px     Val( 2p)     1.12498
   411    C   28  px     Ryd( 3p)     0.00375
   412    C   28  py     Val( 2p)     1.05499
   413    C   28  py     Ryd( 3p)     0.00276
   414    C   28  pz     Val( 2p)     1.12894
   415    C   28  pz     Ryd( 3p)     0.00323
   416    C   28  dxy    Ryd( 3d)     0.00041
   417    C   28  dxz    Ryd( 3d)     0.00061
   418    C   28  dyz    Ryd( 3d)     0.00049
   419    C   28  dx2y2  Ryd( 3d)     0.00059
   420    C   28  dz2    Ryd( 3d)     0.00041

   421    H   29  S      Val( 1S)     0.57371
   422    H   29  S      Ryd( 2S)     0.00109
   423    H   29  px     Ryd( 2p)     0.00047
   424    H   29  py     Ryd( 2p)     0.00039
   425    H   29  pz     Ryd( 2p)     0.00038

   426    H   30  S      Val( 1S)     0.57394
   427    H   30  S      Ryd( 2S)     0.00112
   428    H   30  px     Ryd( 2p)     0.00026
   429    H   30  py     Ryd( 2p)     0.00042
   430    H   30  pz     Ryd( 2p)     0.00055

   431    H   31  S      Val( 1S)     0.74815
   432    H   31  S      Ryd( 2S)     0.00091
   433    H   31  px     Ryd( 2p)     0.00008
   434    H   31  py     Ryd( 2p)     0.00028
   435    H   31  pz     Ryd( 2p)     0.00023

   436    H   32  S      Val( 1S)     0.74560
   437    H   32  S      Ryd( 2S)     0.00104
   438    H   32  px     Ryd( 2p)     0.00024
   439    H   32  py     Ryd( 2p)     0.00009
   440    H   32  pz     Ryd( 2p)     0.00026

   441    H   33  S      Val( 1S)     0.75691
   442    H   33  S      Ryd( 2S)     0.00107
   443    H   33  px     Ryd( 2p)     0.00009
   444    H   33  py     Ryd( 2p)     0.00030
   445    H   33  pz     Ryd( 2p)     0.00021

   446    H   34  S      Val( 1S)     0.75877
   447    H   34  S      Ryd( 2S)     0.00087
   448    H   34  px     Ryd( 2p)     0.00022
   449    H   34  py     Ryd( 2p)     0.00010
   450    H   34  pz     Ryd( 2p)     0.00028

   451    H   35  S      Val( 1S)     0.76050
   452    H   35  S      Ryd( 2S)     0.00083
   453    H   35  px     Ryd( 2p)     0.00032
   454    H   35  py     Ryd( 2p)     0.00020
   455    H   35  pz     Ryd( 2p)     0.00009

   456    H   36  S      Val( 1S)     0.75808
   457    H   36  S      Ryd( 2S)     0.00085
   458    H   36  px     Ryd( 2p)     0.00009
   459    H   36  py     Ryd( 2p)     0.00029
   460    H   36  pz     Ryd( 2p)     0.00022

   461    H   37  S      Val( 1S)     0.75861
   462    H   37  S      Ryd( 2S)     0.00102
   463    H   37  px     Ryd( 2p)     0.00023
   464    H   37  py     Ryd( 2p)     0.00010
   465    H   37  pz     Ryd( 2p)     0.00028

   466    H   38  S      Val( 1S)     0.74566
   467    H   38  S      Ryd( 2S)     0.00103
   468    H   38  px     Ryd( 2p)     0.00024
   469    H   38  py     Ryd( 2p)     0.00009
   470    H   38  pz     Ryd( 2p)     0.00026

   471    H   39  S      Val( 1S)     0.74813
   472    H   39  S      Ryd( 2S)     0.00091
   473    H   39  px     Ryd( 2p)     0.00008
   474    H   39  py     Ryd( 2p)     0.00028
   475    H   39  pz     Ryd( 2p)     0.00023

   476    H   40  S      Val( 1S)     0.57427
   477    H   40  S      Ryd( 2S)     0.00113
   478    H   40  px     Ryd( 2p)     0.00030
   479    H   40  py     Ryd( 2p)     0.00060
   480    H   40  pz     Ryd( 2p)     0.00034

   481    H   41  S      Val( 1S)     0.57393
   482    H   41  S      Ryd( 2S)     0.00115
   483    H   41  px     Ryd( 2p)     0.00038
   484    H   41  py     Ryd( 2p)     0.00026
   485    H   41  pz     Ryd( 2p)     0.00060

   486    H   42  S      Val( 1S)     0.74932
   487    H   42  S      Ryd( 2S)     0.00097
   488    H   42  px     Ryd( 2p)     0.00022
   489    H   42  py     Ryd( 2p)     0.00010
   490    H   42  pz     Ryd( 2p)     0.00028

   491    H   43  S      Val( 1S)     0.74579
   492    H   43  S      Ryd( 2S)     0.00101
   493    H   43  px     Ryd( 2p)     0.00008
   494    H   43  py     Ryd( 2p)     0.00029
   495    H   43  pz     Ryd( 2p)     0.00022

   496    H   44  S      Val( 1S)     0.75867
   497    H   44  S      Ryd( 2S)     0.00102
   498    H   44  px     Ryd( 2p)     0.00023
   499    H   44  py     Ryd( 2p)     0.00010
   500    H   44  pz     Ryd( 2p)     0.00028

   501    H   45  S      Val( 1S)     0.75809
   502    H   45  S      Ryd( 2S)     0.00085
   503    H   45  px     Ryd( 2p)     0.00009
   504    H   45  py     Ryd( 2p)     0.00029
   505    H   45  pz     Ryd( 2p)     0.00022

   506    H   46  S      Val( 1S)     0.76046
   507    H   46  S      Ryd( 2S)     0.00083
   508    H   46  px     Ryd( 2p)     0.00032
   509    H   46  py     Ryd( 2p)     0.00020
   510    H   46  pz     Ryd( 2p)     0.00009

   511    H   47  S      Val( 1S)     0.75873
   512    H   47  S      Ryd( 2S)     0.00087
   513    H   47  px     Ryd( 2p)     0.00022
   514    H   47  py     Ryd( 2p)     0.00010
   515    H   47  pz     Ryd( 2p)     0.00028

   516    H   48  S      Val( 1S)     0.75685
   517    H   48  S      Ryd( 2S)     0.00107
   518    H   48  px     Ryd( 2p)     0.00009
   519    H   48  py     Ryd( 2p)     0.00030
   520    H   48  pz     Ryd( 2p)     0.00021

   521    H   49  S      Val( 1S)     0.74567
   522    H   49  S      Ryd( 2S)     0.00101
   523    H   49  px     Ryd( 2p)     0.00008
   524    H   49  py     Ryd( 2p)     0.00029
   525    H   49  pz     Ryd( 2p)     0.00022

   526    H   50  S      Val( 1S)     0.74899
   527    H   50  S      Ryd( 2S)     0.00097
   528    H   50  px     Ryd( 2p)     0.00021
   529    H   50  py     Ryd( 2p)     0.00009
   530    H   50  pz     Ryd( 2p)     0.00028

 WARNING:  1 low occupancy (<1.9990e) core orbital  found on  C    2
           1 low occupancy (<1.9990e) core orbital  found on  C    6
           1 low occupancy (<1.9990e) core orbital  found on  C   13
           1 low occupancy (<1.9990e) core orbital  found on  C   17


 Summary of Natural Population Analysis:                  
                                                          
                                       Natural Population 
                Natural  -----------------------------------------------
    Atom  No    Charge         Core      Valence    Rydberg      Total
 -----------------------------------------------------------------------
      N    1   -0.81052      1.99950     5.79964    0.01138     7.81052
      C    2    0.18112      1.99899     3.80258    0.01731     5.81888
      C    3   -0.27138      1.99904     4.25939    0.01295     6.27138
      C    4   -0.20990      1.99904     4.19759    0.01327     6.20990
      C    5   -0.04562      1.99900     4.02982    0.01680     6.04562
      C    6   -0.07707      1.99888     4.05948    0.01870     6.07707
      C    7   -0.07531      1.99901     4.05913    0.01717     6.07531
      C    8   -0.23018      1.99903     4.21792    0.01324     6.23018
      C    9   -0.25359      1.99910     4.24040    0.01408     6.25359
      C   10   -0.27951      1.99910     4.26595    0.01446     6.27951
      C   11   -0.24757      1.99911     4.23449    0.01397     6.24757
      C   12   -0.24818      1.99903     4.23585    0.01331     6.24818
      C   13   -0.07692      1.99888     4.05934    0.01870     6.07692
      C   14   -0.04623      1.99900     4.03042    0.01680     6.04623
      C   15   -0.21004      1.99905     4.19773    0.01326     6.21004
      C   16   -0.27142      1.99904     4.25945    0.01294     6.27142
      C   17    0.18070      1.99899     3.80297    0.01734     5.81930
      N   18   -0.81094      1.99950     5.80007    0.01137     7.81094
      C   19   -0.27850      1.99904     4.26653    0.01293     6.27850
      C   20   -0.20541      1.99904     4.19275    0.01361     6.20541
      C   21   -0.07520      1.99901     4.05902    0.01718     6.07520
      C   22   -0.24817      1.99903     4.23584    0.01331     6.24817
      C   23   -0.24757      1.99911     4.23450    0.01397     6.24757
      C   24   -0.27937      1.99910     4.26581    0.01446     6.27937
      C   25   -0.25358      1.99910     4.24039    0.01408     6.25358
      C   26   -0.23003      1.99903     4.21777    0.01324     6.23003
      C   27   -0.20523      1.99904     4.19258    0.01360     6.20523
      C   28   -0.27817      1.99904     4.26620    0.01293     6.27817
      H   29    0.42395      0.00000     0.57371    0.00233     0.57605
      H   30    0.42370      0.00000     0.57394    0.00236     0.57630
      H   31    0.25035      0.00000     0.74815    0.00150     0.74965
      H   32    0.25277      0.00000     0.74560    0.00163     0.74723
      H   33    0.24142      0.00000     0.75691    0.00167     0.75858
      H   34    0.23975      0.00000     0.75877    0.00148     0.76025
      H   35    0.23806      0.00000     0.76050    0.00144     0.76194
      H   36    0.24047      0.00000     0.75808    0.00145     0.75953
      H   37    0.23976      0.00000     0.75861    0.00162     0.76024
      H   38    0.25272      0.00000     0.74566    0.00163     0.74728
      H   39    0.25038      0.00000     0.74813    0.00150     0.74962
      H   40    0.42336      0.00000     0.57427    0.00237     0.57664
      H   41    0.42368      0.00000     0.57393    0.00239     0.57632
      H   42    0.24912      0.00000     0.74932    0.00156     0.75088
      H   43    0.25260      0.00000     0.74579    0.00160     0.74740
      H   44    0.23971      0.00000     0.75867    0.00163     0.76029
      H   45    0.24046      0.00000     0.75809    0.00145     0.75954
      H   46    0.23809      0.00000     0.76046    0.00144     0.76191
      H   47    0.23979      0.00000     0.75873    0.00148     0.76021
      H   48    0.24148      0.00000     0.75685    0.00167     0.75852
      H   49    0.25273      0.00000     0.74567    0.00160     0.74727
      H   50    0.24945      0.00000     0.74899    0.00156     0.75055
 =======================================================================
   * Total *   -0.00000     55.97383   135.58245    0.44372   192.00000

                                 Natural Population      
 --------------------------------------------------------
   Core                      55.97383 ( 99.9533% of  56)
   Valence                  135.58245 ( 99.6930% of 136)
   Natural Minimal Basis    191.55628 ( 99.7689% of 192)
   Natural Rydberg Basis      0.44372 (  0.2311% of 192)
 --------------------------------------------------------

    Atom  No          Natural Electron Configuration
 ----------------------------------------------------------------------------
      N    1      [core]2S( 1.36)2p( 4.44)3p( 0.01)
      C    2      [core]2S( 0.85)2p( 2.95)3p( 0.01)
      C    3      [core]2S( 0.96)2p( 3.30)3p( 0.01)
      C    4      [core]2S( 0.95)2p( 3.24)3p( 0.01)
      C    5      [core]2S( 0.88)2p( 3.15)3p( 0.01)
      C    6      [core]2S( 0.85)2p( 3.21)3p( 0.01)
      C    7      [core]2S( 0.88)2p( 3.18)3p( 0.01)
      C    8      [core]2S( 0.95)2p( 3.27)3p( 0.01)
      C    9      [core]2S( 0.96)2p( 3.28)3p( 0.01)
      C   10      [core]2S( 0.96)2p( 3.30)3p( 0.01)
      C   11      [core]2S( 0.96)2p( 3.27)3p( 0.01)
      C   12      [core]2S( 0.95)2p( 3.28)3p( 0.01)
      C   13      [core]2S( 0.85)2p( 3.21)3p( 0.01)
      C   14      [core]2S( 0.88)2p( 3.15)3p( 0.01)
      C   15      [core]2S( 0.95)2p( 3.24)3p( 0.01)
      C   16      [core]2S( 0.96)2p( 3.30)3p( 0.01)
      C   17      [core]2S( 0.85)2p( 2.95)3p( 0.01)
      N   18      [core]2S( 1.36)2p( 4.44)3p( 0.01)
      C   19      [core]2S( 0.96)2p( 3.31)3p( 0.01)
      C   20      [core]2S( 0.95)2p( 3.24)3p( 0.01)
      C   21      [core]2S( 0.88)2p( 3.18)3p( 0.01)
      C   22      [core]2S( 0.95)2p( 3.28)3p( 0.01)
      C   23      [core]2S( 0.96)2p( 3.27)3p( 0.01)
      C   24      [core]2S( 0.96)2p( 3.30)3p( 0.01)
      C   25      [core]2S( 0.96)2p( 3.28)3p( 0.01)
      C   26      [core]2S( 0.95)2p( 3.27)3p( 0.01)
      C   27      [core]2S( 0.95)2p( 3.24)3p( 0.01)
      C   28      [core]2S( 0.96)2p( 3.31)3p( 0.01)
      H   29            1S( 0.57)
      H   30            1S( 0.57)
      H   31            1S( 0.75)
      H   32            1S( 0.75)
      H   33            1S( 0.76)
      H   34            1S( 0.76)
      H   35            1S( 0.76)
      H   36            1S( 0.76)
      H   37            1S( 0.76)
      H   38            1S( 0.75)
      H   39            1S( 0.75)
      H   40            1S( 0.57)
      H   41            1S( 0.57)
      H   42            1S( 0.75)
      H   43            1S( 0.75)
      H   44            1S( 0.76)
      H   45            1S( 0.76)
      H   46            1S( 0.76)
      H   47            1S( 0.76)
      H   48            1S( 0.76)
      H   49            1S( 0.75)
      H   50            1S( 0.75)


 NBO analysis skipped by request.
 1\1\GINC-DRG2-W002\SP\RB3LYP TD-FC\6-31G(d,p)\C26H22N2\QDUEZ\17-Jul-20
 24\0\\# TD(NStates=10, Root=1) B3LYP/6-31G** SCRF=(Solvent=water) volu
 me pop=NPA density=current Geom=AllCheck Guess=Read\\FZIHVNZJLMYTFH-QP
 LCGJKRSA-N_conf_1\\0,1\N,0,-2.9779706685,5.0307980814,0.2526323034\C,0
 ,-2.3635872965,3.7924529098,0.0804158396\C,0,-2.2269338466,3.223537684
 8,-1.1996525688\C,0,-1.6778640513,1.9554593954,-1.3573743087\C,0,-1.21
 91451538,1.2039731645,-0.2598611771\C,0,-0.656755821,-0.1652766023,-0.
 4411166691\C,0,-1.4439524606,-1.0521021066,-1.3533458369\C,0,-0.826914
 2879,-1.7357704854,-2.4155502308\C,0,-1.5706073377,-2.5335412819,-3.28
 54885313\C,0,-2.9503768883,-2.666164494,-3.1129512314\C,0,-3.580737435
 4,-1.984206019,-2.068619949\C,0,-2.8374147866,-1.1780280917,-1.2071436
 377\C,0,0.4905880848,-0.5879690986,0.1744666868\C,0,1.4464882602,0.343
 8746451,0.8390988792\C,0,1.9870561031,0.0537597724,2.105300432\C,0,2.9
 011067823,0.900090506,2.7237789706\C,0,3.3358253891,2.0767969306,2.085
 6715077\N,0,4.2081180953,2.956900196,2.7220346843\C,0,2.8191314533,2.3
 653135508,0.8080293623\C,0,1.8967348657,1.5170141126,0.2063941331\C,0,
 0.878562873,-2.0318259444,0.2303479187\C,0,2.180091186,-2.4401716044,-
 0.1134693527\C,0,2.55564009,-3.7811649453,-0.0407129207\C,0,1.64396031
 47,-4.7439762947,0.4007571809\C,0,0.3545479583,-4.351467245,0.76745069
 81\C,0,-0.0229094734,-3.0110481389,0.6829424856\C,0,-1.3690818471,1.77
 92365177,1.0152091574\C,0,-1.9276085272,3.0403719961,1.188025889\H,0,-
 2.7254017568,5.5202473998,1.1015437358\H,0,-2.9388861365,5.6435606101,
 -0.5516947822\H,0,-2.559157849,3.7822324326,-2.0710256657\H,0,-1.59103
 46149,1.5420951962,-2.3581268598\H,0,0.2439587509,-1.6335469448,-2.558
 9504945\H,0,-1.0721243866,-3.0469547782,-4.1029051351\H,0,-3.529663396
 ,-3.2879313236,-3.7892066057\H,0,-4.6537390193,-2.0775907866,-1.926695
 7911\H,0,-3.3364559849,-0.6437168082,-0.4041719882\H,0,1.6799628779,-0
 .8524120312,2.6195160718\H,0,3.2888816003,0.6517736021,3.7084904133\H,
 0,4.7980186395,2.5385600009,3.4298889606\H,0,4.7415178565,3.5543160406
 ,2.1034868808\H,0,3.1535051284,3.2581268049,0.2855959105\H,0,1.5216205
 047,1.7620802572,-0.782134914\H,0,2.8976298087,-1.6969410744,-0.448219
 24\H,0,3.5620695386,-4.0745374378,-0.3257284929\H,0,1.938021391,-5.787
 454193,0.4653309183\H,0,-0.3578664505,-5.0889622306,1.1263560993\H,0,-
 1.0248832579,-2.7128784509,0.9743828619\H,0,-1.0433160669,1.2227935343
 ,1.8882327068\H,0,-2.0386487509,3.4502730695,2.1887656955\\Version=ES6
 4L-G16RevA.03\State=1-A\HF=-1113.5700186\RMSD=1.917e-09\Dipole=1.55311
 4,4.3544199,1.3658291\Quadrupole=2.6430979,7.7900899,-10.4331878,2.270
 4091,7.0504457,1.8648587\PG=C01 [X(C26H22N2)]\\@


 ... THIS SEEMS PLAINLY ABSURD; BUT WHOEVER WISHES TO BECOME A 
 PHILOSOPHER MUST LEARN NOT TO BE FRIGHTENED BY ABSURDITIES.

                          -- BERTRAND RUSSELL
 Job cpu time:       0 days  3 hours 25 minutes 33.4 seconds.
 Elapsed time:       0 days  1 hours  8 minutes 41.9 seconds.
 File lengths (MBytes):  RWF=   2158 Int=      0 D2E=      0 Chk=    135 Scr=      1
 Normal termination of Gaussian 16 at Wed Jul 17 21:59:28 2024.
