 Entering Gaussian System, Link 0=g16
 Initial command:
 /opt/sw/arch/manual/gaussian/G16_A03/g16/l1.exe "/scratch/1380820/Gau-197999.inp" -scrdir="/scratch/1380820/"
 Entering Link 1 = /opt/sw/arch/manual/gaussian/G16_A03/g16/l1.exe PID=    198000.
  
 Copyright (c) 1988,1990,1992,1993,1995,1998,2003,2009,2016,
            Gaussian, Inc.  All Rights Reserved.
  
 This is part of the Gaussian(R) 16 program.  It is based on
 the Gaussian(R) 09 system (copyright 2009, Gaussian, Inc.),
 the Gaussian(R) 03 system (copyright 2003, Gaussian, Inc.),
 the Gaussian(R) 98 system (copyright 1998, Gaussian, Inc.),
 the Gaussian(R) 94 system (copyright 1995, Gaussian, Inc.),
 the Gaussian 92(TM) system (copyright 1992, Gaussian, Inc.),
 the Gaussian 90(TM) system (copyright 1990, Gaussian, Inc.),
 the Gaussian 88(TM) system (copyright 1988, Gaussian, Inc.),
 the Gaussian 86(TM) system (copyright 1986, Carnegie Mellon
 University), and the Gaussian 82(TM) system (copyright 1983,
 Carnegie Mellon University). Gaussian is a federally registered
 trademark of Gaussian, Inc.
  
 This software contains proprietary and confidential information,
 including trade secrets, belonging to Gaussian, Inc.
  
 This software is provided under written license and may be
 used, copied, transmitted, or stored only in accord with that
 written license.
  
 The following legend is applicable only to US Government
 contracts under FAR:
  
                    RESTRICTED RIGHTS LEGEND
  
 Use, reproduction and disclosure by the US Government is
 subject to restrictions as set forth in subparagraphs (a)
 and (c) of the Commercial Computer Software - Restricted
 Rights clause in FAR 52.227-19.
  
 Gaussian, Inc.
 340 Quinnipiac St., Bldg. 40, Wallingford CT 06492
  
  
 ---------------------------------------------------------------
 Warning -- This program may not be used in any manner that
 competes with the business of Gaussian, Inc. or will provide
 assistance to any competitor of Gaussian, Inc.  The licensee
 of this program is prohibited from giving any competitor of
 Gaussian, Inc. access to this program.  By using this program,
 the user acknowledges that Gaussian, Inc. is engaged in the
 business of creating and licensing software in the field of
 computational chemistry and represents and warrants to the
 licensee that it is not a competitor of Gaussian, Inc. and that
 it will not use this program in any manner prohibited above.
 ---------------------------------------------------------------
  

 Cite this work as:
 Gaussian 16, Revision A.03,
 M. J. Frisch, G. W. Trucks, H. B. Schlegel, G. E. Scuseria, 
 M. A. Robb, J. R. Cheeseman, G. Scalmani, V. Barone, 
 G. A. Petersson, H. Nakatsuji, X. Li, M. Caricato, A. V. Marenich, 
 J. Bloino, B. G. Janesko, R. Gomperts, B. Mennucci, H. P. Hratchian, 
 J. V. Ortiz, A. F. Izmaylov, J. L. Sonnenberg, D. Williams-Young, 
 F. Ding, F. Lipparini, F. Egidi, J. Goings, B. Peng, A. Petrone, 
 T. Henderson, D. Ranasinghe, V. G. Zakrzewski, J. Gao, N. Rega, 
 G. Zheng, W. Liang, M. Hada, M. Ehara, K. Toyota, R. Fukuda, 
 J. Hasegawa, M. Ishida, T. Nakajima, Y. Honda, O. Kitao, H. Nakai, 
 T. Vreven, K. Throssell, J. A. Montgomery, Jr., J. E. Peralta, 
 F. Ogliaro, M. J. Bearpark, J. J. Heyd, E. N. Brothers, K. N. Kudin, 
 V. N. Staroverov, T. A. Keith, R. Kobayashi, J. Normand, 
 K. Raghavachari, A. P. Rendell, J. C. Burant, S. S. Iyengar, 
 J. Tomasi, M. Cossi, J. M. Millam, M. Klene, C. Adamo, R. Cammi, 
 J. W. Ochterski, R. L. Martin, K. Morokuma, O. Farkas, 
 J. B. Foresman, and D. J. Fox, Gaussian, Inc., Wallingford CT, 2016.
 
 ******************************************
 Gaussian 16:  ES64L-G16RevA.03 25-Dec-2016
                17-Jul-2024 
 ******************************************
 %nprocshared=8
 Will use up to    8 processors via shared memory.
 %mem=16GB
 %Chk=FZIHVNZJLMYTFH-QPLCGJKRSA-N_conf_2_0.chk
 -------------------------------------------------------
 # opt=CalcFc B3LYP/6-31G** SCRF=(Solvent=water) scf=xqc
 -------------------------------------------------------
 1/10=4,18=20,19=15,26=3,38=1/1,3;
 2/9=110,12=2,17=6,18=5,40=1/2;
 3/5=1,6=6,7=101,11=2,25=1,30=1,70=2201,71=2,72=1,74=-5,140=1/1,2,3;
 4//1;
 5/5=2,8=3,13=1,38=5,53=1/2,8;
 8/6=4,10=90,11=11/1;
 11/6=1,8=1,9=11,15=111,16=1/1,2,10;
 10/6=1,13=1/2;
 6/7=2,8=2,9=2,10=2,28=1/1;
 7/10=1,18=20,25=1/1,2,3,16;
 1/10=4,18=20,19=15,26=3/3(2);
 2/9=110/2;
 99//99;
 2/9=110/2;
 3/5=1,6=6,7=101,11=2,25=1,30=1,70=2205,71=1,72=1,74=-5/1,2,3;
 4/5=5,16=3,69=1/1;
 5/5=2,8=3,13=1,38=5,53=1/2,8;
 7//1,2,3,16;
 1/18=20,19=15,26=3/3(-5);
 2/9=110/2;
 6/7=2,8=2,9=2,10=2,19=2,28=1/1;
 99/9=1/99;
 ----------------------------------
 FZIHVNZJLMYTFH-QPLCGJKRSA-N_conf_2
 ----------------------------------
 Symbolic Z-matrix:
 Charge =  0 Multiplicity = 1
 N                    -2.57701  -5.16285  -0.10328 
 C                    -2.21409  -3.81114  -0.11877 
 C                    -1.77216  -3.18652   1.04923 
 C                    -1.30031  -1.86991   1.02246 
 C                    -1.20703  -1.17445  -0.1888 
 C                    -0.7254    0.23929  -0.24203 
 C                    -1.68654   1.29248  -0.69093 
 C                    -2.82116   1.57417   0.08274 
 C                    -3.74005   2.53913  -0.33447 
 C                    -3.53742   3.22407  -1.53149 
 C                    -2.42      2.94188  -2.31558 
 C                    -1.50119   1.97583  -1.90107 
 C                     0.55822   0.5648    0.10687 
 C                     1.5531   -0.49013   0.46847 
 C                     2.09162  -0.52383   1.76045 
 C                     3.04124  -1.48993   2.10848 
 C                     3.50666  -2.40627   1.16352 
 N                     4.3659   -3.44172   1.54908 
 C                     2.93462  -2.40245  -0.11022 
 C                     1.98814  -1.4362   -0.46707 
 C                     1.00384   1.99129   0.1391 
 C                     1.98792   2.4331   -0.75626 
 C                     2.43103   3.75679  -0.72359 
 C                     1.90104   4.64714   0.20887 
 C                     0.93226   4.21484   1.11309 
 C                     0.48948   2.89107   1.08334 
 C                    -1.60539  -1.81767  -1.36691 
 C                    -2.08082  -3.13258  -1.33164 
 H                    -2.93866  -5.47862   0.79084 
 H                    -3.1695   -5.43649  -0.88027 
 H                    -1.79098  -3.71865   1.99622 
 H                    -0.98837  -1.40059   1.95176 
 H                    -2.99329   1.04312   1.01575 
 H                    -4.61424   2.75393   0.27411 
 H                    -4.252     3.97624  -1.85503 
 H                    -2.26202   3.47368  -3.24987 
 H                    -0.63651   1.76203  -2.52412 
 H                     1.76572   0.19298   2.50992 
 H                     3.41612  -1.51648   3.12775 
 H                     4.87989  -3.85475   0.77762 
 H                     4.96556  -3.2055    2.33283 
 H                     3.22054  -3.15306  -0.84177 
 H                     1.58014  -1.44173  -1.47437 
 H                     2.41292   1.7471   -1.48488 
 H                     3.19095   4.09134  -1.42454 
 H                     2.24503   5.67774   0.23286 
 H                     0.51988   4.90739   1.84178 
 H                    -0.26296   2.56562   1.79711 
 H                    -1.53554  -1.30491  -2.32291 
 H                    -2.34917  -3.62061  -2.26437 
 

 GradGradGradGradGradGradGradGradGradGradGradGradGradGradGradGradGradGrad
 Berny optimization.
 Initialization pass.
                           ----------------------------
                           !    Initial Parameters    !
                           ! (Angstroms and Degrees)  !
 --------------------------                            --------------------------
 ! Name  Definition              Value          Derivative Info.                !
 --------------------------------------------------------------------------------
 ! R1    R(1,2)                  1.3997         calculate D2E/DX2 analytically  !
 ! R2    R(1,29)                 1.0149         calculate D2E/DX2 analytically  !
 ! R3    R(1,30)                 1.0147         calculate D2E/DX2 analytically  !
 ! R4    R(2,3)                  1.3963         calculate D2E/DX2 analytically  !
 ! R5    R(2,28)                 1.3962         calculate D2E/DX2 analytically  !
 ! R6    R(3,4)                  1.3989         calculate D2E/DX2 analytically  !
 ! R7    R(3,31)                 1.0864         calculate D2E/DX2 analytically  !
 ! R8    R(4,5)                  1.3998         calculate D2E/DX2 analytically  !
 ! R9    R(4,32)                 1.0868         calculate D2E/DX2 analytically  !
 ! R10   R(5,6)                  1.4945         calculate D2E/DX2 analytically  !
 ! R11   R(5,27)                 1.4001         calculate D2E/DX2 analytically  !
 ! R12   R(6,7)                  1.4948         calculate D2E/DX2 analytically  !
 ! R13   R(6,13)                 1.3694         calculate D2E/DX2 analytically  !
 ! R14   R(7,8)                  1.4019         calculate D2E/DX2 analytically  !
 ! R15   R(7,12)                 1.4021         calculate D2E/DX2 analytically  !
 ! R16   R(8,9)                  1.3963         calculate D2E/DX2 analytically  !
 ! R17   R(8,33)                 1.0873         calculate D2E/DX2 analytically  !
 ! R18   R(9,10)                 1.3939         calculate D2E/DX2 analytically  !
 ! R19   R(9,34)                 1.0866         calculate D2E/DX2 analytically  !
 ! R20   R(10,11)                1.3939         calculate D2E/DX2 analytically  !
 ! R21   R(10,35)                1.0868         calculate D2E/DX2 analytically  !
 ! R22   R(11,12)                1.3962         calculate D2E/DX2 analytically  !
 ! R23   R(11,36)                1.0866         calculate D2E/DX2 analytically  !
 ! R24   R(12,37)                1.087          calculate D2E/DX2 analytically  !
 ! R25   R(13,14)                1.4945         calculate D2E/DX2 analytically  !
 ! R26   R(13,21)                1.4948         calculate D2E/DX2 analytically  !
 ! R27   R(14,15)                1.4001         calculate D2E/DX2 analytically  !
 ! R28   R(14,20)                1.3998         calculate D2E/DX2 analytically  !
 ! R29   R(15,16)                1.3987         calculate D2E/DX2 analytically  !
 ! R30   R(15,38)                1.0871         calculate D2E/DX2 analytically  !
 ! R31   R(16,17)                1.3962         calculate D2E/DX2 analytically  !
 ! R32   R(16,39)                1.0863         calculate D2E/DX2 analytically  !
 ! R33   R(17,18)                1.3997         calculate D2E/DX2 analytically  !
 ! R34   R(17,19)                1.3963         calculate D2E/DX2 analytically  !
 ! R35   R(18,40)                1.0149         calculate D2E/DX2 analytically  !
 ! R36   R(18,41)                1.0147         calculate D2E/DX2 analytically  !
 ! R37   R(19,20)                1.3989         calculate D2E/DX2 analytically  !
 ! R38   R(19,42)                1.0864         calculate D2E/DX2 analytically  !
 ! R39   R(20,43)                1.0868         calculate D2E/DX2 analytically  !
 ! R40   R(21,22)                1.4019         calculate D2E/DX2 analytically  !
 ! R41   R(21,26)                1.4021         calculate D2E/DX2 analytically  !
 ! R42   R(22,23)                1.3963         calculate D2E/DX2 analytically  !
 ! R43   R(22,44)                1.0873         calculate D2E/DX2 analytically  !
 ! R44   R(23,24)                1.3939         calculate D2E/DX2 analytically  !
 ! R45   R(23,45)                1.0866         calculate D2E/DX2 analytically  !
 ! R46   R(24,25)                1.3939         calculate D2E/DX2 analytically  !
 ! R47   R(24,46)                1.0868         calculate D2E/DX2 analytically  !
 ! R48   R(25,26)                1.3962         calculate D2E/DX2 analytically  !
 ! R49   R(25,47)                1.0866         calculate D2E/DX2 analytically  !
 ! R50   R(26,48)                1.087          calculate D2E/DX2 analytically  !
 ! R51   R(27,28)                1.3987         calculate D2E/DX2 analytically  !
 ! R52   R(27,49)                1.0871         calculate D2E/DX2 analytically  !
 ! R53   R(28,50)                1.0863         calculate D2E/DX2 analytically  !
 ! A1    A(2,1,29)             113.7431         calculate D2E/DX2 analytically  !
 ! A2    A(2,1,30)             113.788          calculate D2E/DX2 analytically  !
 ! A3    A(29,1,30)            112.4969         calculate D2E/DX2 analytically  !
 ! A4    A(1,2,3)              120.3188         calculate D2E/DX2 analytically  !
 ! A5    A(1,2,28)             120.2473         calculate D2E/DX2 analytically  !
 ! A6    A(3,2,28)             118.6236         calculate D2E/DX2 analytically  !
 ! A7    A(2,3,4)              120.7826         calculate D2E/DX2 analytically  !
 ! A8    A(2,3,31)             120.3015         calculate D2E/DX2 analytically  !
 ! A9    A(4,3,31)             118.9159         calculate D2E/DX2 analytically  !
 ! A10   A(3,4,5)              120.4403         calculate D2E/DX2 analytically  !
 ! A11   A(3,4,32)             119.1367         calculate D2E/DX2 analytically  !
 ! A12   A(5,4,32)             120.4118         calculate D2E/DX2 analytically  !
 ! A13   A(4,5,6)              121.4848         calculate D2E/DX2 analytically  !
 ! A14   A(4,5,27)             118.743          calculate D2E/DX2 analytically  !
 ! A15   A(6,5,27)             119.756          calculate D2E/DX2 analytically  !
 ! A16   A(5,6,7)              118.0325         calculate D2E/DX2 analytically  !
 ! A17   A(5,6,13)             121.1885         calculate D2E/DX2 analytically  !
 ! A18   A(7,6,13)             120.7789         calculate D2E/DX2 analytically  !
 ! A19   A(6,7,8)              119.7515         calculate D2E/DX2 analytically  !
 ! A20   A(6,7,12)             121.1706         calculate D2E/DX2 analytically  !
 ! A21   A(8,7,12)             119.0385         calculate D2E/DX2 analytically  !
 ! A22   A(7,8,9)              120.4378         calculate D2E/DX2 analytically  !
 ! A23   A(7,8,33)             120.2367         calculate D2E/DX2 analytically  !
 ! A24   A(9,8,33)             119.3254         calculate D2E/DX2 analytically  !
 ! A25   A(8,9,10)             120.034          calculate D2E/DX2 analytically  !
 ! A26   A(8,9,34)             119.9154         calculate D2E/DX2 analytically  !
 ! A27   A(10,9,34)            120.0505         calculate D2E/DX2 analytically  !
 ! A28   A(9,10,11)            120.006          calculate D2E/DX2 analytically  !
 ! A29   A(9,10,35)            120.0103         calculate D2E/DX2 analytically  !
 ! A30   A(11,10,35)           119.9835         calculate D2E/DX2 analytically  !
 ! A31   A(10,11,12)           120.0413         calculate D2E/DX2 analytically  !
 ! A32   A(10,11,36)           120.0751         calculate D2E/DX2 analytically  !
 ! A33   A(12,11,36)           119.8836         calculate D2E/DX2 analytically  !
 ! A34   A(7,12,11)            120.4305         calculate D2E/DX2 analytically  !
 ! A35   A(7,12,37)            120.2661         calculate D2E/DX2 analytically  !
 ! A36   A(11,12,37)           119.3026         calculate D2E/DX2 analytically  !
 ! A37   A(6,13,14)            121.1881         calculate D2E/DX2 analytically  !
 ! A38   A(6,13,21)            120.7802         calculate D2E/DX2 analytically  !
 ! A39   A(14,13,21)           118.0316         calculate D2E/DX2 analytically  !
 ! A40   A(13,14,15)           119.7559         calculate D2E/DX2 analytically  !
 ! A41   A(13,14,20)           121.4835         calculate D2E/DX2 analytically  !
 ! A42   A(15,14,20)           118.7445         calculate D2E/DX2 analytically  !
 ! A43   A(14,15,16)           120.489          calculate D2E/DX2 analytically  !
 ! A44   A(14,15,38)           120.3321         calculate D2E/DX2 analytically  !
 ! A45   A(16,15,38)           119.1734         calculate D2E/DX2 analytically  !
 ! A46   A(15,16,17)           120.7483         calculate D2E/DX2 analytically  !
 ! A47   A(15,16,39)           118.989          calculate D2E/DX2 analytically  !
 ! A48   A(17,16,39)           120.2625         calculate D2E/DX2 analytically  !
 ! A49   A(16,17,18)           120.2477         calculate D2E/DX2 analytically  !
 ! A50   A(16,17,19)           118.6236         calculate D2E/DX2 analytically  !
 ! A51   A(18,17,19)           120.3185         calculate D2E/DX2 analytically  !
 ! A52   A(17,18,40)           113.7403         calculate D2E/DX2 analytically  !
 ! A53   A(17,18,41)           113.7866         calculate D2E/DX2 analytically  !
 ! A54   A(40,18,41)           112.4933         calculate D2E/DX2 analytically  !
 ! A55   A(17,19,20)           120.7831         calculate D2E/DX2 analytically  !
 ! A56   A(17,19,42)           120.3009         calculate D2E/DX2 analytically  !
 ! A57   A(20,19,42)           118.916          calculate D2E/DX2 analytically  !
 ! A58   A(14,20,19)           120.4392         calculate D2E/DX2 analytically  !
 ! A59   A(14,20,43)           120.4113         calculate D2E/DX2 analytically  !
 ! A60   A(19,20,43)           119.1384         calculate D2E/DX2 analytically  !
 ! A61   A(13,21,22)           119.7516         calculate D2E/DX2 analytically  !
 ! A62   A(13,21,26)           121.1702         calculate D2E/DX2 analytically  !
 ! A63   A(22,21,26)           119.0388         calculate D2E/DX2 analytically  !
 ! A64   A(21,22,23)           120.4381         calculate D2E/DX2 analytically  !
 ! A65   A(21,22,44)           120.2361         calculate D2E/DX2 analytically  !
 ! A66   A(23,22,44)           119.3257         calculate D2E/DX2 analytically  !
 ! A67   A(22,23,24)           120.0337         calculate D2E/DX2 analytically  !
 ! A68   A(22,23,45)           119.9161         calculate D2E/DX2 analytically  !
 ! A69   A(24,23,45)           120.0501         calculate D2E/DX2 analytically  !
 ! A70   A(23,24,25)           120.0059         calculate D2E/DX2 analytically  !
 ! A71   A(23,24,46)           120.0096         calculate D2E/DX2 analytically  !
 ! A72   A(25,24,46)           119.9843         calculate D2E/DX2 analytically  !
 ! A73   A(24,25,26)           120.0417         calculate D2E/DX2 analytically  !
 ! A74   A(24,25,47)           120.0748         calculate D2E/DX2 analytically  !
 ! A75   A(26,25,47)           119.8836         calculate D2E/DX2 analytically  !
 ! A76   A(21,26,25)           120.4301         calculate D2E/DX2 analytically  !
 ! A77   A(21,26,48)           120.2668         calculate D2E/DX2 analytically  !
 ! A78   A(25,26,48)           119.3023         calculate D2E/DX2 analytically  !
 ! A79   A(5,27,28)            120.4897         calculate D2E/DX2 analytically  !
 ! A80   A(5,27,49)            120.3308         calculate D2E/DX2 analytically  !
 ! A81   A(28,27,49)           119.174          calculate D2E/DX2 analytically  !
 ! A82   A(2,28,27)            120.7484         calculate D2E/DX2 analytically  !
 ! A83   A(2,28,50)            120.2623         calculate D2E/DX2 analytically  !
 ! A84   A(27,28,50)           118.989          calculate D2E/DX2 analytically  !
 ! D1    D(29,1,2,3)            29.4226         calculate D2E/DX2 analytically  !
 ! D2    D(29,1,2,28)         -161.026          calculate D2E/DX2 analytically  !
 ! D3    D(30,1,2,3)           160.0185         calculate D2E/DX2 analytically  !
 ! D4    D(30,1,2,28)          -30.4301         calculate D2E/DX2 analytically  !
 ! D5    D(1,2,3,4)            174.5566         calculate D2E/DX2 analytically  !
 ! D6    D(1,2,3,31)            -5.5021         calculate D2E/DX2 analytically  !
 ! D7    D(28,2,3,4)             4.8376         calculate D2E/DX2 analytically  !
 ! D8    D(28,2,3,31)         -175.2212         calculate D2E/DX2 analytically  !
 ! D9    D(1,2,28,27)         -174.3234         calculate D2E/DX2 analytically  !
 ! D10   D(1,2,28,50)            5.8571         calculate D2E/DX2 analytically  !
 ! D11   D(3,2,28,27)           -4.5968         calculate D2E/DX2 analytically  !
 ! D12   D(3,2,28,50)          175.5836         calculate D2E/DX2 analytically  !
 ! D13   D(2,3,4,5)             -2.8668         calculate D2E/DX2 analytically  !
 ! D14   D(2,3,4,32)           178.3413         calculate D2E/DX2 analytically  !
 ! D15   D(31,3,4,5)           177.1911         calculate D2E/DX2 analytically  !
 ! D16   D(31,3,4,32)           -1.6008         calculate D2E/DX2 analytically  !
 ! D17   D(3,4,5,6)            179.0835         calculate D2E/DX2 analytically  !
 ! D18   D(3,4,5,27)             0.5515         calculate D2E/DX2 analytically  !
 ! D19   D(32,4,5,6)            -2.14           calculate D2E/DX2 analytically  !
 ! D20   D(32,4,5,27)          179.3279         calculate D2E/DX2 analytically  !
 ! D21   D(4,5,6,7)           -115.2914         calculate D2E/DX2 analytically  !
 ! D22   D(4,5,6,13)            64.8219         calculate D2E/DX2 analytically  !
 ! D23   D(27,5,6,7)            63.226          calculate D2E/DX2 analytically  !
 ! D24   D(27,5,6,13)         -116.6607         calculate D2E/DX2 analytically  !
 ! D25   D(4,5,27,28)           -0.3143         calculate D2E/DX2 analytically  !
 ! D26   D(4,5,27,49)         -179.4537         calculate D2E/DX2 analytically  !
 ! D27   D(6,5,27,28)         -178.8723         calculate D2E/DX2 analytically  !
 ! D28   D(6,5,27,49)            1.9883         calculate D2E/DX2 analytically  !
 ! D29   D(5,6,7,8)             65.0199         calculate D2E/DX2 analytically  !
 ! D30   D(5,6,7,12)          -112.6755         calculate D2E/DX2 analytically  !
 ! D31   D(13,6,7,8)          -115.0929         calculate D2E/DX2 analytically  !
 ! D32   D(13,6,7,12)           67.2118         calculate D2E/DX2 analytically  !
 ! D33   D(5,6,13,14)            4.0427         calculate D2E/DX2 analytically  !
 ! D34   D(5,6,13,21)         -175.8405         calculate D2E/DX2 analytically  !
 ! D35   D(7,6,13,14)         -175.841          calculate D2E/DX2 analytically  !
 ! D36   D(7,6,13,21)            4.2758         calculate D2E/DX2 analytically  !
 ! D37   D(6,7,8,9)           -178.9147         calculate D2E/DX2 analytically  !
 ! D38   D(6,7,8,33)             1.17           calculate D2E/DX2 analytically  !
 ! D39   D(12,7,8,9)            -1.1701         calculate D2E/DX2 analytically  !
 ! D40   D(12,7,8,33)          178.9146         calculate D2E/DX2 analytically  !
 ! D41   D(6,7,12,11)          178.9825         calculate D2E/DX2 analytically  !
 ! D42   D(6,7,12,37)           -1.3438         calculate D2E/DX2 analytically  !
 ! D43   D(8,7,12,11)            1.2711         calculate D2E/DX2 analytically  !
 ! D44   D(8,7,12,37)         -179.0552         calculate D2E/DX2 analytically  !
 ! D45   D(7,8,9,10)             0.4071         calculate D2E/DX2 analytically  !
 ! D46   D(7,8,9,34)          -179.7193         calculate D2E/DX2 analytically  !
 ! D47   D(33,8,9,10)         -179.6768         calculate D2E/DX2 analytically  !
 ! D48   D(33,8,9,34)            0.1968         calculate D2E/DX2 analytically  !
 ! D49   D(8,9,10,11)            0.2721         calculate D2E/DX2 analytically  !
 ! D50   D(8,9,10,35)         -179.8974         calculate D2E/DX2 analytically  !
 ! D51   D(34,9,10,11)        -179.6013         calculate D2E/DX2 analytically  !
 ! D52   D(34,9,10,35)           0.2291         calculate D2E/DX2 analytically  !
 ! D53   D(9,10,11,12)          -0.1714         calculate D2E/DX2 analytically  !
 ! D54   D(9,10,11,36)         179.8744         calculate D2E/DX2 analytically  !
 ! D55   D(35,10,11,12)        179.9981         calculate D2E/DX2 analytically  !
 ! D56   D(35,10,11,36)          0.0438         calculate D2E/DX2 analytically  !
 ! D57   D(10,11,12,7)          -0.6094         calculate D2E/DX2 analytically  !
 ! D58   D(10,11,12,37)        179.7138         calculate D2E/DX2 analytically  !
 ! D59   D(36,11,12,7)         179.345          calculate D2E/DX2 analytically  !
 ! D60   D(36,11,12,37)         -0.3318         calculate D2E/DX2 analytically  !
 ! D61   D(6,13,14,15)        -116.6295         calculate D2E/DX2 analytically  !
 ! D62   D(6,13,14,20)          64.8488         calculate D2E/DX2 analytically  !
 ! D63   D(21,13,14,15)         63.2568         calculate D2E/DX2 analytically  !
 ! D64   D(21,13,14,20)       -115.2648         calculate D2E/DX2 analytically  !
 ! D65   D(6,13,21,22)        -115.0842         calculate D2E/DX2 analytically  !
 ! D66   D(6,13,21,26)          67.221          calculate D2E/DX2 analytically  !
 ! D67   D(14,13,21,22)         65.0289         calculate D2E/DX2 analytically  !
 ! D68   D(14,13,21,26)       -112.6658         calculate D2E/DX2 analytically  !
 ! D69   D(13,14,15,16)       -178.8744         calculate D2E/DX2 analytically  !
 ! D70   D(13,14,15,38)          1.9869         calculate D2E/DX2 analytically  !
 ! D71   D(20,14,15,16)         -0.3123         calculate D2E/DX2 analytically  !
 ! D72   D(20,14,15,38)       -179.4509         calculate D2E/DX2 analytically  !
 ! D73   D(13,14,20,19)        179.0824         calculate D2E/DX2 analytically  !
 ! D74   D(13,14,20,43)         -2.141          calculate D2E/DX2 analytically  !
 ! D75   D(15,14,20,19)          0.5462         calculate D2E/DX2 analytically  !
 ! D76   D(15,14,20,43)        179.3228         calculate D2E/DX2 analytically  !
 ! D77   D(14,15,16,17)          2.3875         calculate D2E/DX2 analytically  !
 ! D78   D(14,15,16,39)       -177.7932         calculate D2E/DX2 analytically  !
 ! D79   D(38,15,16,17)       -178.464          calculate D2E/DX2 analytically  !
 ! D80   D(38,15,16,39)          1.3553         calculate D2E/DX2 analytically  !
 ! D81   D(15,16,17,18)       -174.3271         calculate D2E/DX2 analytically  !
 ! D82   D(15,16,17,19)         -4.6            calculate D2E/DX2 analytically  !
 ! D83   D(39,16,17,18)          5.8558         calculate D2E/DX2 analytically  !
 ! D84   D(39,16,17,19)        175.583          calculate D2E/DX2 analytically  !
 ! D85   D(16,17,18,40)       -160.9957         calculate D2E/DX2 analytically  !
 ! D86   D(16,17,18,41)        -30.4091         calculate D2E/DX2 analytically  !
 ! D87   D(19,17,18,40)         29.4523         calculate D2E/DX2 analytically  !
 ! D88   D(19,17,18,41)        160.0389         calculate D2E/DX2 analytically  !
 ! D89   D(16,17,19,20)          4.8376         calculate D2E/DX2 analytically  !
 ! D90   D(16,17,19,42)       -175.2181         calculate D2E/DX2 analytically  !
 ! D91   D(18,17,19,20)        174.5572         calculate D2E/DX2 analytically  !
 ! D92   D(18,17,19,42)         -5.4985         calculate D2E/DX2 analytically  !
 ! D93   D(17,19,20,14)         -2.8625         calculate D2E/DX2 analytically  !
 ! D94   D(17,19,20,43)        178.3455         calculate D2E/DX2 analytically  !
 ! D95   D(42,19,20,14)        177.1925         calculate D2E/DX2 analytically  !
 ! D96   D(42,19,20,43)         -1.5996         calculate D2E/DX2 analytically  !
 ! D97   D(13,21,22,23)       -178.9124         calculate D2E/DX2 analytically  !
 ! D98   D(13,21,22,44)          1.1747         calculate D2E/DX2 analytically  !
 ! D99   D(26,21,22,23)         -1.1684         calculate D2E/DX2 analytically  !
 ! D100  D(26,21,22,44)        178.9187         calculate D2E/DX2 analytically  !
 ! D101  D(13,21,26,25)        178.9813         calculate D2E/DX2 analytically  !
 ! D102  D(13,21,26,48)         -1.3423         calculate D2E/DX2 analytically  !
 ! D103  D(22,21,26,25)          1.2705         calculate D2E/DX2 analytically  !
 ! D104  D(22,21,26,48)       -179.0532         calculate D2E/DX2 analytically  !
 ! D105  D(21,22,23,24)          0.4064         calculate D2E/DX2 analytically  !
 ! D106  D(21,22,23,45)       -179.7212         calculate D2E/DX2 analytically  !
 ! D107  D(44,22,23,24)       -179.6799         calculate D2E/DX2 analytically  !
 ! D108  D(44,22,23,45)          0.1925         calculate D2E/DX2 analytically  !
 ! D109  D(22,23,24,25)          0.2707         calculate D2E/DX2 analytically  !
 ! D110  D(22,23,24,46)       -179.8987         calculate D2E/DX2 analytically  !
 ! D111  D(45,23,24,25)       -179.6015         calculate D2E/DX2 analytically  !
 ! D112  D(45,23,24,46)          0.2291         calculate D2E/DX2 analytically  !
 ! D113  D(23,24,25,26)         -0.1689         calculate D2E/DX2 analytically  !
 ! D114  D(23,24,25,47)        179.872          calculate D2E/DX2 analytically  !
 ! D115  D(46,24,25,26)       -179.9995         calculate D2E/DX2 analytically  !
 ! D116  D(46,24,25,47)          0.0414         calculate D2E/DX2 analytically  !
 ! D117  D(24,25,26,21)         -0.6108         calculate D2E/DX2 analytically  !
 ! D118  D(24,25,26,48)        179.7097         calculate D2E/DX2 analytically  !
 ! D119  D(47,25,26,21)        179.3483         calculate D2E/DX2 analytically  !
 ! D120  D(47,25,26,48)         -0.3311         calculate D2E/DX2 analytically  !
 ! D121  D(5,27,28,2)            2.3852         calculate D2E/DX2 analytically  !
 ! D122  D(5,27,28,50)        -177.7929         calculate D2E/DX2 analytically  !
 ! D123  D(49,27,28,2)        -178.4656         calculate D2E/DX2 analytically  !
 ! D124  D(49,27,28,50)          1.3563         calculate D2E/DX2 analytically  !
 --------------------------------------------------------------------------------
 Trust Radius=3.00D-01 FncErr=1.00D-07 GrdErr=1.00D-06 EigMax=2.50D+02 EigMin=1.00D-04
 Number of steps in this run=    271 maximum allowed number of steps=    300.
 GradGradGradGradGradGradGradGradGradGradGradGradGradGradGradGradGradGrad

                          Input orientation:                          
 ---------------------------------------------------------------------
 Center     Atomic      Atomic             Coordinates (Angstroms)
 Number     Number       Type             X           Y           Z
 ---------------------------------------------------------------------
      1          7           0       -2.577006   -5.162850   -0.103276
      2          6           0       -2.214093   -3.811141   -0.118771
      3          6           0       -1.772159   -3.186523    1.049231
      4          6           0       -1.300313   -1.869911    1.022462
      5          6           0       -1.207033   -1.174449   -0.188803
      6          6           0       -0.725402    0.239293   -0.242031
      7          6           0       -1.686542    1.292477   -0.690928
      8          6           0       -2.821156    1.574169    0.082742
      9          6           0       -3.740047    2.539130   -0.334467
     10          6           0       -3.537419    3.224074   -1.531494
     11          6           0       -2.420005    2.941884   -2.315576
     12          6           0       -1.501191    1.975830   -1.901066
     13          6           0        0.558224    0.564801    0.106869
     14          6           0        1.553104   -0.490134    0.468471
     15          6           0        2.091619   -0.523830    1.760446
     16          6           0        3.041244   -1.489935    2.108477
     17          6           0        3.506663   -2.406275    1.163517
     18          7           0        4.365896   -3.441716    1.549075
     19          6           0        2.934621   -2.402453   -0.110224
     20          6           0        1.988142   -1.436196   -0.467067
     21          6           0        1.003840    1.991290    0.139099
     22          6           0        1.987917    2.433101   -0.756256
     23          6           0        2.431032    3.756789   -0.723592
     24          6           0        1.901044    4.647136    0.208868
     25          6           0        0.932262    4.214843    1.113091
     26          6           0        0.489481    2.891073    1.083335
     27          6           0       -1.605392   -1.817672   -1.366911
     28          6           0       -2.080825   -3.132583   -1.331638
     29          1           0       -2.938658   -5.478622    0.790843
     30          1           0       -3.169504   -5.436490   -0.880267
     31          1           0       -1.790984   -3.718653    1.996223
     32          1           0       -0.988371   -1.400587    1.951757
     33          1           0       -2.993294    1.043115    1.015751
     34          1           0       -4.614241    2.753932    0.274110
     35          1           0       -4.251998    3.976243   -1.855028
     36          1           0       -2.262023    3.473678   -3.249873
     37          1           0       -0.636507    1.762026   -2.524116
     38          1           0        1.765717    0.192979    2.509923
     39          1           0        3.416124   -1.516485    3.127745
     40          1           0        4.879891   -3.854746    0.777617
     41          1           0        4.965555   -3.205500    2.332825
     42          1           0        3.220537   -3.153055   -0.841768
     43          1           0        1.580141   -1.441734   -1.474370
     44          1           0        2.412925    1.747096   -1.484882
     45          1           0        3.190946    4.091343   -1.424545
     46          1           0        2.245029    5.677740    0.232863
     47          1           0        0.519883    4.907389    1.841780
     48          1           0       -0.262962    2.565617    1.797105
     49          1           0       -1.535543   -1.304906   -2.322912
     50          1           0       -2.349168   -3.620605   -2.264366
 ---------------------------------------------------------------------
                    Distance matrix (angstroms):
                    1          2          3          4          5
     1  N    0.000000
     2  C    1.399665   0.000000
     3  C    2.425266   1.396310   0.000000
     4  C    3.706842   2.430181   1.398865   0.000000
     5  C    4.217995   2.823335   2.429103   1.399833   0.000000
     6  C    5.712340   4.317106   3.807791   2.525511   1.494479
     7  C    6.542897   5.162615   4.805926   3.617399   2.562769
     8  C    6.744007   5.423163   4.969777   3.880428   3.199067
     9  C    7.792728   6.534601   6.210500   5.218544   4.497561
    10  C    8.561699   7.296659   7.132464   6.121766   5.155630
    11  C    8.402716   7.104344   7.021325   5.962347   4.789432
    12  C    7.439770   6.097035   5.952106   4.834986   3.597587
    13  C    6.532979   5.185125   4.515658   3.196920   2.495705
    14  C    6.262505   5.056254   4.320321   3.217558   2.918673
    15  C    6.840323   5.733848   4.746003   3.723138   3.886384
    16  C    7.067311   6.161752   5.212415   4.491429   4.839926
    17  C    6.798125   6.028678   5.337398   4.838864   5.056194
    18  N    7.341421   6.798120   6.163660   5.903713   6.262448
    19  C    6.164241   5.337951   4.910487   4.416022   4.320586
    20  C    5.904309   4.839468   4.416183   3.636034   3.217932
    21  C    8.003931   6.640014   5.945104   4.582393   3.875226
    22  C    8.886133   7.553398   6.998437   5.700193   4.852228
    23  C   10.248180   8.900369   8.307786   6.973622   6.151311
    24  C   10.788242   9.411915   8.692804   7.306334   6.611288
    25  C   10.086408   8.708240   7.880240   6.482039   5.942724
    26  C    8.699257   7.326257   6.484856   5.086653   4.585299
    27  C    3.705539   2.429463   2.781961   2.409338   1.400131
    28  C    2.424263   1.396155   2.401400   2.783043   2.429789
    29  H    1.014866   2.032950   2.584802   3.969964   4.741744
    30  H    1.014716   2.033334   3.276871   4.453621   4.742827
    31  H    2.666727   2.158883   1.086421   2.146349   3.404161
    32  H    4.571820   3.405913   2.149056   1.086812   2.163550
    33  H    6.319772   5.045602   4.402514   3.369266   3.091807
    34  H    8.183409   7.001089   6.630780   5.737776   5.220683
    35  H    9.455012   8.234743   8.117237   7.153314   6.211099
    36  H    9.197277   7.929356   7.942326   6.908811   5.664648
    37  H    7.588142   6.271734   6.208595   5.119552   3.795006
    38  H    7.373802   6.227511   5.105999   3.983541   4.241488
    39  H    7.723540   6.892362   5.833312   5.177056   5.700005
    40  H    7.621838   7.150525   6.691044   6.495725   6.720759
    41  H    8.164315   7.610812   6.858919   6.539263   6.970267
    42  H    6.180303   5.521865   5.338915   5.055680   4.893324
    43  H    5.745300   4.674178   4.544311   3.835951   3.080984
    44  H    8.634558   7.359996   6.948184   5.758268   4.829010
    45  H   10.984312   9.662750   9.149826   7.854667   6.971215
    46  H   11.869431  10.490294   9.766238   8.376153   7.684206
    47  H   10.713714   9.345113   8.449438   7.065139   6.640350
    48  H    8.288271   6.938337   5.993672   4.620614   4.338570
    49  H    4.571122   3.405860   3.868827   3.400896   2.163183
    50  H    2.664721   2.158270   3.391356   3.868884   3.405307
                    6          7          8          9         10
     6  C    0.000000
     7  C    1.494823   0.000000
     8  C    2.505905   1.401879   0.000000
     9  C    3.792873   2.428599   1.396272   0.000000
    10  C    4.298729   2.804169   2.416811   1.393943   0.000000
    11  C    3.804638   2.428578   2.789892   2.414439   1.393927
    12  C    2.523848   1.402056   2.416430   2.789985   2.416800
    13  C    1.369446   2.490978   3.526984   4.750568   5.150753
    14  C    2.495690   3.875205   4.852246   6.151309   6.611250
    15  C    3.539475   4.856203   5.599255   6.912216   7.521285
    16  C    4.764739   6.158770   6.918097   8.257558   8.874124
    17  C    5.185072   6.639964   7.553364   8.900326   9.411855
    18  N    6.532933   8.003888   8.886111  10.248150  10.788191
    19  C    4.515746   5.945156   6.998552   8.307872   8.692820
    20  C    3.197065   4.582475   5.700346   6.973734   7.306364
    21  C    2.490990   2.900938   3.848085   4.798839   4.993362
    22  C    3.526942   3.847978   4.956699   5.744451   5.635244
    23  C    4.750554   4.798783   5.744518   6.302090   6.046396
    24  C    5.150787   4.993410   5.635442   6.046554   5.884798
    25  C    4.515441   4.318893   4.703501   5.170485   5.287107
    26  C    3.203823   3.230882   3.700776   4.474700   4.812915
    27  C    2.504165   3.183798   3.883834   4.960285   5.401761
    28  C    3.793937   4.488555   4.970119   5.992971   6.524469
    29  H    6.217707   7.043523   7.089222   8.135902   9.027108
    30  H    6.212526   6.893042   7.085060   8.014608   8.692803
    31  H    4.670180   5.687101   5.721593   6.956351   7.980995
    32  H    2.751557   3.837164   3.962511   5.321647   6.325992
    33  H    2.715048   2.163917   1.087269   2.149137   3.397220
    34  H    4.659709   3.411535   2.154905   1.086610   2.154248
    35  H    5.385484   3.890924   3.401797   2.153948   1.086764
    36  H    4.676491   3.411307   3.876479   3.399636   2.154476
    37  H    2.744909   2.164169   3.406419   3.876908   3.396790
    38  H    3.712287   4.834505   5.370130   6.626343   7.324195
    39  H    5.620532   6.964893   7.597884   8.924445   9.619416
    40  H    7.015707   8.471634   9.447862  10.789890  11.238007
    41  H    7.133265   8.580517   9.409622  10.765814  11.339001
    42  H    5.238143   6.623061   7.726799   9.006002   9.317375
    43  H    3.108060   4.331387   5.558029   6.741741   6.925493
    44  H    3.696923   4.200318   5.466530   6.309504   6.131087
    45  H    5.619111   5.671132   6.689802   7.185840   6.784872
    46  H    6.214957   5.961641   6.521354   6.781878   6.524579
    47  H    5.261571   4.934623   5.036577   5.337762   5.538431
    48  H    3.127893   3.136522   3.235176   4.078532   4.715422
    49  H    2.714948   3.071250   3.965987   4.856992   5.014531
    50  H    4.650297   5.201265   5.719910   6.603135   6.985605
                   11         12         13         14         15
    11  C    0.000000
    12  C    1.396172   0.000000
    13  C    4.515375   3.203747   0.000000
    14  C    5.942664   4.585238   1.494467   0.000000
    15  C    6.998563   5.706422   2.504144   1.400119   0.000000
    16  C    8.308941   6.980092   3.793911   2.429770   1.398667
    17  C    8.708174   7.326194   4.317070   2.823310   2.429458
    18  N   10.086344   8.699195   5.712312   4.217979   3.705546
    19  C    7.880199   6.484822   3.807754   2.429082   2.781956
    20  C    6.482000   5.086622   2.525482   1.399829   2.409343
    21  C    4.318769   3.230742   1.494819   2.562742   3.184001
    22  C    4.703202   3.700481   2.505903   3.199112   3.884325
    23  C    5.170207   4.474443   3.792870   4.497570   4.960781
    24  C    5.286980   4.812785   4.298724   5.155579   5.402092
    25  C    4.961237   4.474373   3.804628   4.789341   4.921199
    26  C    4.474404   3.702310   2.523837   3.597488   3.832348
    27  C    4.921070   3.832341   3.539695   3.886783   5.012213
    28  C    6.162980   5.172631   4.764927   4.840286   5.811700
    29  H    8.990203   8.054908   7.015623   6.720481   7.126975
    30  H    8.533405   7.666015   7.133434   6.970549   7.667268
    31  H    7.959273   6.906517   5.237978   4.892881   5.033596
    32  H    6.254340   5.148536   3.107784   3.080285   3.208059
    33  H    3.877076   3.406486   3.697044   4.829090   5.372731
    34  H    3.399481   3.876586   5.619134   6.971219   7.610617
    35  H    2.153649   3.401575   6.214919   7.684165   8.576934
    36  H    1.086588   2.154459   5.261471   6.640262   7.748392
    37  H    2.148586   1.087006   3.127748   4.338455   5.570034
    38  H    6.954293   5.771315   2.714951   2.163187   1.087081
    39  H    9.141509   7.852719   4.650273   3.405287   2.146901
    40  H   10.442725   9.049263   6.217644   4.741697   4.453696
    41  H   10.674477   9.305419   6.212456   4.742768   3.972213
    42  H    8.434222   7.051404   4.670147   3.404145   3.867660
    43  H    5.993739   4.621301   2.751511   2.163539   3.401204
    44  H    5.047255   3.942820   2.715033   3.091937   3.973977
    45  H    5.796375   5.169005   4.659715   5.220725   5.714237
    46  H    5.978460   5.682601   5.385473   6.211034   6.388780
    47  H    5.457999   5.166011   4.676479   5.664519   5.654654
    48  H    4.659244   3.944303   2.744906   3.794862   3.884596
    49  H    4.337921   3.307925   3.712614   4.242100   5.517264
    50  H    6.563071   5.671961   5.620793   5.700524   6.746089
                   16         17         18         19         20
    16  C    0.000000
    17  C    1.396153   0.000000
    18  N    2.424270   1.399670   0.000000
    19  C    2.401393   1.396303   2.425261   0.000000
    20  C    2.783045   2.430178   3.706839   1.398861   0.000000
    21  C    4.488696   5.162571   6.542860   4.805732   3.617175
    22  C    4.970553   5.423253   6.744095   4.969526   3.880089
    23  C    5.993420   6.534640   7.792766   6.210161   5.218147
    24  C    6.524738   7.296572   8.561611   7.132097   6.121389
    25  C    6.163042   7.104173   8.402549   7.021008   5.962049
    26  C    5.172585   6.096861   7.439606   5.951867   4.834769
    27  C    5.811795   5.734338   6.840818   4.746889   3.724074
    28  C    6.385004   6.162252   7.067835   5.213409   4.492405
    29  H    7.307874   7.149851   7.621051   6.691049   6.495914
    30  H    7.942372   7.611206   8.164746   6.859933   6.540213
    31  H    5.322614   5.520942   6.179305   5.338618   5.055611
    32  H    4.033651   4.673121   5.744261   4.543717   3.835571
    33  H    6.635213   7.359998   8.634572   6.948377   5.758511
    34  H    8.943252   9.662705  10.984283   9.149937   7.854806
    35  H    9.938805  10.490232  11.869379   9.766248   8.376174
    36  H    9.026295   9.345031  10.713632   8.449345   7.065039
    37  H    6.749964   6.938244   8.288176   5.993556   4.620482
    38  H    2.149495   3.405851   4.571124   3.868821   3.400905
    39  H    1.086346   2.158267   2.664729   3.391346   3.868883
    40  H    3.277826   2.032915   1.014856   2.584858   3.969992
    41  H    2.587754   2.033324   1.014718   3.276899   4.453630
    42  H    3.391469   2.158870   2.666703   1.086420   2.146346
    43  H    3.869617   3.405918   4.571825   2.149068   1.086809
    44  H    4.877026   5.045867   6.320029   4.402342   3.368937
    45  H    6.607217   7.001198   8.183514   6.630425   5.737351
    46  H    7.451674   8.234630   9.454891   8.116820   7.152900
    47  H    6.881434   7.929097   9.197013   7.941982   6.908519
    48  H    5.240442   6.271460   7.587878   6.208395   5.119419
    49  H    6.373259   6.228326   7.374634   5.107149   3.984690
    50  H    7.260720   6.893166   7.724405   5.834608   5.178241
                   21         22         23         24         25
    21  C    0.000000
    22  C    1.401879   0.000000
    23  C    2.428601   1.396270   0.000000
    24  C    2.804168   2.416808   1.393946   0.000000
    25  C    2.428573   2.789887   2.414442   1.393927   0.000000
    26  C    1.402054   2.416432   2.789995   2.416807   1.396175
    27  C    4.856372   5.599450   6.912395   7.521430   6.998667
    28  C    6.158920   6.918277   8.257725   8.874258   8.309035
    29  H    8.471578   9.447751  10.789806  11.237988  10.442755
    30  H    8.580665   9.409825  10.766008  11.339143  10.674558
    31  H    6.622945   7.726597   9.005834   9.317302   8.434236
    32  H    4.331219   5.557768   6.741539   6.925412   5.993768
    33  H    4.200552   5.466675   6.309728   6.131441   5.047705
    34  H    5.671215   6.689774   7.185890   6.785088   5.796710
    35  H    5.961578   6.521129   6.781682   6.524545   5.978563
    36  H    4.934417   5.036161   5.337323   5.538143   5.457860
    37  H    3.136242   3.234698   4.078084   4.715106   4.659037
    38  H    3.071675   3.966793   4.857881   5.015245   4.338338
    39  H    5.201500   5.720530   6.603834   6.986095   6.563270
    40  H    7.043268   7.088956   8.135478   9.026572   8.989693
    41  H    6.893058   7.085377   8.014921   8.692888   8.533269
    42  H    5.686839   5.721171   6.955806   7.980469   7.958869
    43  H    3.836804   3.961857   5.320933   6.325394   6.253924
    44  H    2.163901   1.087258   2.149130   3.397211   3.877061
    45  H    3.411545   2.154915   1.086614   2.154249   3.399485
    46  H    3.890919   3.401786   2.153939   1.086759   2.153653
    47  H    3.411300   3.876470   3.399634   2.154470   1.086584
    48  H    2.164168   3.406416   3.876908   3.396784   2.148577
    49  H    4.834757   5.370463   6.626636   7.324401   6.954409
    50  H    6.965104   7.598161   8.924699   9.619601   9.141621
                   26         27         28         29         30
    26  C    0.000000
    27  C    5.706530   0.000000
    28  C    6.980187   1.398667   0.000000
    29  H    9.049281   4.453768   3.277911   0.000000
    30  H    9.305494   3.972293   2.587845   1.687505   0.000000
    31  H    7.051409   3.867667   3.391481   2.422311   3.622910
    32  H    4.621315   3.401211   3.869618   4.667087   5.391309
    33  H    3.943253   3.973343   4.876401   6.525843   6.753608
    34  H    5.169298   5.713641   6.606640   8.417217   8.396599
    35  H    5.682711   6.388445   7.451398   9.905552   9.524783
    36  H    5.165937   5.654652   6.881507   9.845247   9.264429
    37  H    3.944148   3.884855   5.240730   8.289501   7.806211
    38  H    3.308118   5.516968   6.372820   7.566600   8.218316
    39  H    5.671985   6.745982   7.260462   7.844928   8.648762
    40  H    8.054517   7.127943   7.309038   7.985415   8.369184
    41  H    7.665811   7.667559   7.942611   8.367878   9.026653
    42  H    6.906242   5.034740   5.323986   6.783020   6.785880
    43  H    5.148263   3.209439   4.035097   6.468941   6.234593
    44  H    3.406473   5.372928   6.635400   9.275201   9.117728
    45  H    3.876599   7.610824   8.943450  11.578610  11.468703
    46  H    3.401582   8.577075   9.938936  12.314477  12.412990
    47  H    2.154458   7.748480   9.026373  10.997053  11.314457
    48  H    1.086996   5.570129   6.750047   8.537077   8.924685
    49  H    5.771438   1.087081   2.149502   5.392968   4.671299
    50  H    7.852833   2.146904   1.086350   3.624090   2.426132
                   31         32         33         34         35
    31  H    0.000000
    32  H    2.453486   0.000000
    33  H    5.008124   3.296591   0.000000
    34  H    7.268481   5.763807   2.470707   0.000000
    35  H    8.949869   7.352087   4.292894   2.481631   0.000000
    36  H    8.914764   7.241382   4.963662   4.297606   2.481565
    37  H    7.197508   5.491754   4.312996   4.963499   4.292111
    38  H    5.311767   3.230480   5.059987   7.229191   8.341390
    39  H    5.765749   4.560258   7.217528   9.532390  10.667623
    40  H    6.782632   6.468229   9.275387  11.578717  12.314488
    41  H    6.784353   6.233150   9.117494  11.468463  12.412849
    42  H    5.787006   5.346945   7.724631   9.875294  10.377493
    43  H    5.347322   4.282206   5.769878   7.683174   7.969518
    44  H    7.724335   5.769507   5.997996   7.313606   7.037564
    45  H    9.875085   7.682929   7.313793   8.099077   7.456271
    46  H   10.377429   7.969453   7.037946   7.456536   7.033188
    47  H    8.931548   6.486716   5.287471   5.783960   6.107722
    48  H    6.470436   4.034961   3.222303   4.613958   5.589307
    49  H    4.954428   4.310609   4.334157   5.718136   5.957230
    50  H    4.298116   4.955395   5.737975   7.225590   7.842221
                   36         37         38         39         40
    36  H    0.000000
    37  H    2.469571   0.000000
    38  H    7.756348   5.794319   0.000000
    39  H    9.890252   7.688692   2.455161   0.000000
    40  H   10.996973   8.536990   5.392870   3.623973   0.000000
    41  H   11.314408   8.924645   4.671187   2.425986   1.687463
    42  H    8.931463   6.470324   4.954420   4.298099   2.422444
    43  H    6.486595   4.034795   4.310605   4.955389   4.667164
    44  H    5.286910   3.221686   4.335046   5.738789   6.525753
    45  H    5.783443   4.613477   5.719140   7.226464   8.416792
    46  H    6.107443   5.589007   5.957965   7.842746   9.904925
    47  H    5.976576   5.503780   4.921806   7.162965   9.844650
    48  H    5.503891   4.411150   3.202040   5.654187   8.289111
    49  H    4.921575   3.202315   6.041380   7.367051   7.567876
    50  H    7.162937   5.654502   7.366786   8.169503   7.846513
                   41         42         43         44         45
    41  H    0.000000
    42  H    3.622966   0.000000
    43  H    5.391348   2.453508   0.000000
    44  H    6.754185   5.007725   3.295797   0.000000
    45  H    8.397082   7.267862   5.762996   2.470719   0.000000
    46  H    9.524865   8.949268   7.351437   4.292878   2.481615
    47  H    9.264129   8.914355   7.241019   4.963642   4.297603
    48  H    7.805778   7.197335   5.491670   4.312979   4.963502
    49  H    8.219028   5.313166   3.232063   5.060376   7.229542
    50  H    8.649373   5.767495   4.561912   7.217848   9.532697
                   46         47         48         49         50
    46  H    0.000000
    47  H    2.481569   0.000000
    48  H    4.292107   2.469563   0.000000
    49  H    8.341586   7.756420   5.794390   0.000000
    50  H   10.667803   9.890327   7.688767   2.455173   0.000000
 Stoichiometry    C26H22N2
 Framework group  C1[X(C26H22N2)]
 Deg. of freedom   144
 Full point group                 C1      NOp   1
 Largest Abelian subgroup         C1      NOp   1
 Largest concise Abelian subgroup C1      NOp   1
                         Standard orientation:                         
 ---------------------------------------------------------------------
 Center     Atomic      Atomic             Coordinates (Angstroms)
 Number     Number       Type             X           Y           Z
 ---------------------------------------------------------------------
      1          7           0       -4.459304    3.669490    0.093619
      2          6           0       -3.223818    3.012107    0.115666
      3          6           0       -2.898764    2.157629    1.171075
      4          6           0       -1.717233    1.409105    1.148315
      5          6           0       -0.867454    1.458858    0.037040
      6          6           0        0.410243    0.684719   -0.003778
      7          6           0        1.693612    1.449405   -0.055882
      8          6           0        2.068022    2.254838    1.028718
      9          6           0        3.252532    2.992870    0.986028
     10          6           0        4.067876    2.938899   -0.143298
     11          6           0        3.698130    2.152329   -1.233082
     12          6           0        2.513019    1.415303   -1.193059
     13          6           0        0.410266   -0.684707    0.003763
     14          6           0       -0.867400   -1.458873   -0.037081
     15          6           0       -1.217853   -2.278868    1.042329
     16          6           0       -2.398408   -3.028222    1.010268
     17          6           0       -3.223730   -3.012129   -0.115710
     18          7           0       -4.459208   -3.669538   -0.093770
     19          6           0       -2.898365   -2.158123   -1.171396
     20          6           0       -1.716863   -1.409559   -1.148613
     21          6           0        1.693637   -1.449378    0.055903
     22          6           0        2.068176   -2.254667   -1.028762
     23          6           0        3.252665   -2.992724   -0.986027
     24          6           0        4.067872   -2.938911    0.143410
     25          6           0        3.698017   -2.152453    1.233237
     26          6           0        2.512910   -1.415417    1.193178
     27          6           0       -1.217593    2.279359   -1.042102
     28          6           0       -2.398141    3.028724   -1.010047
     29          1           0       -4.836886    3.860813    1.015997
     30          1           0       -4.478525    4.484543   -0.510507
     31          1           0       -3.562802    2.065184    2.025954
     32          1           0       -1.477346    0.773060    1.996289
     33          1           0        1.438086    2.309572    1.913217
     34          1           0        3.536820    3.610854    1.833375
     35          1           0        4.990570    3.512186   -0.175447
     36          1           0        4.331833    2.111034   -2.114778
     37          1           0        2.233953    0.809623   -2.051462
     38          1           0       -0.581578   -2.329862    1.922271
     39          1           0       -2.664820   -3.628228    1.875811
     40          1           0       -4.836216   -3.861688   -1.016199
     41          1           0       -4.478677   -4.484127    0.510978
     42          1           0       -3.562166   -2.066047   -2.026498
     43          1           0       -1.476741   -0.773833   -1.996756
     44          1           0        1.438371   -2.309229   -1.913352
     45          1           0        3.537046   -3.610623   -1.833410
     46          1           0        4.990536   -3.512236    0.175595
     47          1           0        4.331594   -2.111314    2.115027
     48          1           0        2.233736   -0.809886    2.051639
     49          1           0       -0.581047    2.330737   -1.921827
     50          1           0       -2.664292    3.629125   -1.875401
 ---------------------------------------------------------------------
 Rotational constants (GHZ):           0.2100235           0.1610697           0.1022579
 Standard basis: 6-31G(d,p) (6D, 7F)
 There are   530 symmetry adapted cartesian basis functions of A   symmetry.
 There are   530 symmetry adapted basis functions of A   symmetry.
   530 basis functions,   938 primitive gaussians,   530 cartesian basis functions
    96 alpha electrons       96 beta electrons
       nuclear repulsion energy      2402.5113929432 Hartrees.
 NAtoms=   50 NActive=   50 NUniq=   50 SFac= 1.00D+00 NAtFMM=   60 NAOKFM=F Big=F
 Integral buffers will be    131072 words long.
 Raffenetti 2 integral format.
 Two-electron integral symmetry is turned on.
 Force inversion solution in PCM.
 ------------------------------------------------------------------------------
 Polarizable Continuum Model (PCM)
 =================================
 Model                : PCM.
 Atomic radii         : UFF (Universal Force Field).
 Polarization charges : Total charges.
 Charge compensation  : None.
 Solution method      : Matrix inversion.
 Cavity type          : Scaled VdW (van der Waals Surface) (Alpha=1.100).
 Cavity algorithm     : GePol (No added spheres)
                        Default sphere list used, NSphG=   50.
                        Lebedev-Laikov grids with approx.  5.0 points / Ang**2.
                        Smoothing algorithm: York/Karplus (Gamma=1.0000).
                        Polarization charges: spherical gaussians, with
                                              point-specific exponents (IZeta= 3).
                        Self-potential: point-specific (ISelfS= 7).
                        Self-field    : sphere-specific E.n sum rule (ISelfD= 2).
 1st derivatives      : Analytical E(r).r(x)/FMM algorithm (CHGder, D1EAlg=3).
                        Cavity 1st derivative terms included.
 2nd derivatives      : Analytical E(r).r(xy)/FMM algorithm (CHGder, D2EAlg=3).
                        Cavity 2nd derivative terms included.
 Solvent              : Water, Eps=  78.355300 Eps(inf)=   1.777849
 ------------------------------------------------------------------------------
 One-electron integrals computed using PRISM.
 NBasis=   530 RedAO= T EigKep=  4.33D-04  NBF=   530
 NBsUse=   530 1.00D-06 EigRej= -1.00D+00 NBFU=   530
 ExpMin= 1.61D-01 ExpMax= 4.17D+03 ExpMxC= 6.27D+02 IAcc=3 IRadAn=         5 AccDes= 0.00D+00
 Harris functional with IExCor=  402 and IRadAn=       5 diagonalized for initial guess.
 HarFok:  IExCor=  402 AccDes= 0.00D+00 IRadAn=         5 IDoV= 1 UseB2=F ITyADJ=14
 ICtDFT=  3500011 ScaDFX=  1.000000  1.000000  1.000000  1.000000
 FoFCou: FMM=F IPFlag=           0 FMFlag=      100000 FMFlg1=           0
         NFxFlg=           0 DoJE=T BraDBF=F KetDBF=T FulRan=T
         wScrn=  0.000000 ICntrl=       500 IOpCl=  0 I1Cent=   200000004 NGrid=           0
         NMat0=    1 NMatS0=      1 NMatT0=    0 NMatD0=    1 NMtDS0=    0 NMtDT0=    0
 Petite list used in FoFCou.
 Requested convergence on RMS density matrix=1.00D-08 within  32 cycles.
 Requested convergence on MAX density matrix=1.00D-06.
 Requested convergence on             energy=1.00D-06.
 No special actions if energy rises.
 Inv3:  Mode=1 IEnd=    38836812.
 Iteration    1 A*A^-1 deviation from unit magnitude is 4.66D-15 for   1906.
 Iteration    1 A*A^-1 deviation from orthogonality  is 4.91D-15 for   3069   2099.
 Iteration    1 A^-1*A deviation from unit magnitude is 3.77D-15 for   1906.
 Iteration    1 A^-1*A deviation from orthogonality  is 7.85D-15 for   3418   3069.
 Error on total polarization charges =  0.01187
 SCF Done:  E(RB3LYP) =  -1113.56133432     A.U. after   12 cycles
            NFock= 12  Conv=0.55D-08     -V/T= 2.0098
 QCSCF skips out because SCF is already converged.
 DoSCS=F DFT=T ScalE2(SS,OS)=  1.000000  1.000000
 Range of M.O.s used for correlation:     1   530
 NBasis=   530 NAE=    96 NBE=    96 NFC=     0 NFV=     0
 NROrb=    530 NOA=    96 NOB=    96 NVA=   434 NVB=   434
 Symmetrizing basis deriv contribution to polar:
 IMax=3 JMax=2 DiffMx= 0.00D+00
 G2DrvN: will do    51 centers at a time, making    1 passes.
 Calling FoFCou, ICntrl=  3107 FMM=F I1Cent=   0 AccDes= 0.00D+00.
 NEqPCM:  Using equilibrium solvation (IEInf=0, Eps=  78.3553, EpsInf=   1.7778)
 G2PCM: DoFxE=T DoFxN=T DoGrad=T DoDP/DQ/DG/TGxP=FFFF NFrqRd=   0 IEInf=0 SqF1=F DoCFld=F IF1Alg=4.
 End of G2Drv F.D. properties file   721 does not exist.
 End of G2Drv F.D. properties file   722 does not exist.
 End of G2Drv F.D. properties file   788 does not exist.
          IDoAtm=11111111111111111111111111111111111111111111111111
 NEqPCM:  Using equilibrium solvation (IEInf=0, Eps=  78.3553, EpsInf=   1.7778)
          Differentiating once with respect to nuclear coordinates.
 CalDSu exits because no D1Ps are significant.
          There are   153 degrees of freedom in the 1st order CPHF.  IDoFFX=6 NUNeed=     0.
    147 vectors produced by pass  0 Test12= 4.17D-14 1.00D-09 XBig12= 1.39D-01 8.21D-02.
 AX will form   147 AO Fock derivatives at one time.
    147 vectors produced by pass  1 Test12= 4.17D-14 1.00D-09 XBig12= 1.61D-02 2.66D-02.
    147 vectors produced by pass  2 Test12= 4.17D-14 1.00D-09 XBig12= 1.55D-04 1.61D-03.
    147 vectors produced by pass  3 Test12= 4.17D-14 1.00D-09 XBig12= 5.44D-07 6.10D-05.
    147 vectors produced by pass  4 Test12= 4.17D-14 1.00D-09 XBig12= 8.52D-10 2.70D-06.
    103 vectors produced by pass  5 Test12= 4.17D-14 1.00D-09 XBig12= 1.12D-12 1.05D-07.
     18 vectors produced by pass  6 Test12= 4.17D-14 1.00D-09 XBig12= 1.33D-15 2.95D-09.
 InvSVY:  IOpt=1 It=  1 EMax= 5.00D-16
 Solved reduced A of dimension   856 with   153 vectors.
 End of Minotr F.D. properties file   721 does not exist.
 End of Minotr F.D. properties file   722 does not exist.
 End of Minotr F.D. properties file   788 does not exist.

 **********************************************************************

            Population analysis using the SCF density.

 **********************************************************************

 Orbital symmetries:
       Occupied  (A) (A) (A) (A) (A) (A) (A) (A) (A) (A) (A) (A)
                 (A) (A) (A) (A) (A) (A) (A) (A) (A) (A) (A) (A)
                 (A) (A) (A) (A) (A) (A) (A) (A) (A) (A) (A) (A)
                 (A) (A) (A) (A) (A) (A) (A) (A) (A) (A) (A) (A)
                 (A) (A) (A) (A) (A) (A) (A) (A) (A) (A) (A) (A)
                 (A) (A) (A) (A) (A) (A) (A) (A) (A) (A) (A) (A)
                 (A) (A) (A) (A) (A) (A) (A) (A) (A) (A) (A) (A)
                 (A) (A) (A) (A) (A) (A) (A) (A) (A) (A) (A) (A)
       Virtual   (A) (A) (A) (A) (A) (A) (A) (A) (A) (A) (A) (A)
                 (A) (A) (A) (A) (A) (A) (A) (A) (A) (A) (A) (A)
                 (A) (A) (A) (A) (A) (A) (A) (A) (A) (A) (A) (A)
                 (A) (A) (A) (A) (A) (A) (A) (A) (A) (A) (A) (A)
                 (A) (A) (A) (A) (A) (A) (A) (A) (A) (A) (A) (A)
                 (A) (A) (A) (A) (A) (A) (A) (A) (A) (A) (A) (A)
                 (A) (A) (A) (A) (A) (A) (A) (A) (A) (A) (A) (A)
                 (A) (A) (A) (A) (A) (A) (A) (A) (A) (A) (A) (A)
                 (A) (A) (A) (A) (A) (A) (A) (A) (A) (A) (A) (A)
                 (A) (A) (A) (A) (A) (A) (A) (A) (A) (A) (A) (A)
                 (A) (A) (A) (A) (A) (A) (A) (A) (A) (A) (A) (A)
                 (A) (A) (A) (A) (A) (A) (A) (A) (A) (A) (A) (A)
                 (A) (A) (A) (A) (A) (A) (A) (A) (A) (A) (A) (A)
                 (A) (A) (A) (A) (A) (A) (A) (A) (A) (A) (A) (A)
                 (A) (A) (A) (A) (A) (A) (A) (A) (A) (A) (A) (A)
                 (A) (A) (A) (A) (A) (A) (A) (A) (A) (A) (A) (A)
                 (A) (A) (A) (A) (A) (A) (A) (A) (A) (A) (A) (A)
                 (A) (A) (A) (A) (A) (A) (A) (A) (A) (A) (A) (A)
                 (A) (A) (A) (A) (A) (A) (A) (A) (A) (A) (A) (A)
                 (A) (A) (A) (A) (A) (A) (A) (A) (A) (A) (A) (A)
                 (A) (A) (A) (A) (A) (A) (A) (A) (A) (A) (A) (A)
                 (A) (A) (A) (A) (A) (A) (A) (A) (A) (A) (A) (A)
                 (A) (A) (A) (A) (A) (A) (A) (A) (A) (A) (A) (A)
                 (A) (A) (A) (A) (A) (A) (A) (A) (A) (A) (A) (A)
                 (A) (A) (A) (A) (A) (A) (A) (A) (A) (A) (A) (A)
                 (A) (A) (A) (A) (A) (A) (A) (A) (A) (A) (A) (A)
                 (A) (A) (A) (A) (A) (A) (A) (A) (A) (A) (A) (A)
                 (A) (A) (A) (A) (A) (A) (A) (A) (A) (A) (A) (A)
                 (A) (A) (A) (A) (A) (A) (A) (A) (A) (A) (A) (A)
                 (A) (A) (A) (A) (A) (A) (A) (A) (A) (A) (A) (A)
                 (A) (A) (A) (A) (A) (A) (A) (A) (A) (A) (A) (A)
                 (A) (A) (A) (A) (A) (A) (A) (A) (A) (A) (A) (A)
                 (A) (A) (A) (A) (A) (A) (A) (A) (A) (A) (A) (A)
                 (A) (A) (A) (A) (A) (A) (A) (A) (A) (A) (A) (A)
                 (A) (A) (A) (A) (A) (A) (A) (A) (A) (A) (A) (A)
                 (A) (A) (A) (A) (A) (A) (A) (A) (A) (A) (A) (A)
                 (A) (A)
 The electronic state is 1-A.
 Alpha  occ. eigenvalues --  -14.33561 -14.33561 -10.22469 -10.22468 -10.19727
 Alpha  occ. eigenvalues --  -10.19726 -10.19625 -10.19558 -10.18920 -10.18920
 Alpha  occ. eigenvalues --  -10.18894 -10.18894 -10.18806 -10.18806 -10.18795
 Alpha  occ. eigenvalues --  -10.18795 -10.18767 -10.18767 -10.18704 -10.18703
 Alpha  occ. eigenvalues --  -10.18678 -10.18678 -10.18619 -10.18618 -10.18136
 Alpha  occ. eigenvalues --  -10.18136 -10.18091 -10.18091  -0.91338  -0.91316
 Alpha  occ. eigenvalues --   -0.86823  -0.85234  -0.84197  -0.83383  -0.79816
 Alpha  occ. eigenvalues --   -0.75809  -0.74315  -0.74261  -0.74055  -0.74044
 Alpha  occ. eigenvalues --   -0.73573  -0.72357  -0.68852  -0.63060  -0.61252
 Alpha  occ. eigenvalues --   -0.61150  -0.60187  -0.60131  -0.59717  -0.58874
 Alpha  occ. eigenvalues --   -0.57613  -0.54270  -0.52166  -0.51231  -0.51131
 Alpha  occ. eigenvalues --   -0.50316  -0.50102  -0.49102  -0.47592  -0.46002
 Alpha  occ. eigenvalues --   -0.45239  -0.44987  -0.44304  -0.43545  -0.43187
 Alpha  occ. eigenvalues --   -0.42865  -0.42634  -0.41961  -0.41772  -0.41595
 Alpha  occ. eigenvalues --   -0.41280  -0.40916  -0.40881  -0.38112  -0.37812
 Alpha  occ. eigenvalues --   -0.37789  -0.36277  -0.35885  -0.35471  -0.34857
 Alpha  occ. eigenvalues --   -0.34628  -0.34161  -0.33982  -0.33848  -0.31826
 Alpha  occ. eigenvalues --   -0.30735  -0.30419  -0.26292  -0.25627  -0.25174
 Alpha  occ. eigenvalues --   -0.24880  -0.24819  -0.24608  -0.23076  -0.20796
 Alpha  occ. eigenvalues --   -0.18837
 Alpha virt. eigenvalues --   -0.02725  -0.01181  -0.00504  -0.00348   0.00331
 Alpha virt. eigenvalues --    0.00544   0.00702   0.02841   0.04877   0.09158
 Alpha virt. eigenvalues --    0.09500   0.09589   0.10374   0.10838   0.11859
 Alpha virt. eigenvalues --    0.12282   0.13475   0.14117   0.14853   0.15226
 Alpha virt. eigenvalues --    0.15524   0.15739   0.16255   0.16403   0.17056
 Alpha virt. eigenvalues --    0.17468   0.17558   0.18083   0.18641   0.18921
 Alpha virt. eigenvalues --    0.19146   0.19847   0.20360   0.20560   0.21636
 Alpha virt. eigenvalues --    0.24501   0.24888   0.25760   0.27330   0.27593
 Alpha virt. eigenvalues --    0.29357   0.29530   0.30577   0.30927   0.31573
 Alpha virt. eigenvalues --    0.32368   0.32846   0.33744   0.33828   0.34333
 Alpha virt. eigenvalues --    0.34345   0.34582   0.35600   0.35625   0.36420
 Alpha virt. eigenvalues --    0.37036   0.43269   0.45103   0.46381   0.46794
 Alpha virt. eigenvalues --    0.47206   0.47987   0.49109   0.50129   0.51327
 Alpha virt. eigenvalues --    0.52073   0.52254   0.52964   0.53234   0.53535
 Alpha virt. eigenvalues --    0.53964   0.54444   0.54696   0.54959   0.55175
 Alpha virt. eigenvalues --    0.55478   0.56073   0.57216   0.57284   0.58249
 Alpha virt. eigenvalues --    0.58325   0.58877   0.58945   0.59405   0.59515
 Alpha virt. eigenvalues --    0.59889   0.60062   0.60083   0.60231   0.60730
 Alpha virt. eigenvalues --    0.60737   0.60788   0.61249   0.61533   0.61769
 Alpha virt. eigenvalues --    0.61837   0.62245   0.62672   0.63291   0.64957
 Alpha virt. eigenvalues --    0.65051   0.65588   0.65880   0.65883   0.66628
 Alpha virt. eigenvalues --    0.67326   0.68415   0.69455   0.70472   0.70686
 Alpha virt. eigenvalues --    0.71339   0.71437   0.72948   0.75378   0.76012
 Alpha virt. eigenvalues --    0.76086   0.76916   0.77406   0.78666   0.79228
 Alpha virt. eigenvalues --    0.81281   0.81921   0.81967   0.82505   0.82678
 Alpha virt. eigenvalues --    0.82771   0.82802   0.83015   0.83350   0.84124
 Alpha virt. eigenvalues --    0.84633   0.84949   0.85480   0.85891   0.86212
 Alpha virt. eigenvalues --    0.86614   0.87129   0.87449   0.87994   0.88564
 Alpha virt. eigenvalues --    0.89246   0.89276   0.89346   0.89923   0.90122
 Alpha virt. eigenvalues --    0.91232   0.91976   0.93011   0.94608   0.95621
 Alpha virt. eigenvalues --    0.96577   0.97643   0.98553   0.98599   0.99347
 Alpha virt. eigenvalues --    0.99924   1.00844   1.00932   1.01064   1.02161
 Alpha virt. eigenvalues --    1.02314   1.05456   1.05779   1.06796   1.07067
 Alpha virt. eigenvalues --    1.09653   1.09874   1.11241   1.13293   1.13923
 Alpha virt. eigenvalues --    1.14876   1.15086   1.15991   1.16533   1.17668
 Alpha virt. eigenvalues --    1.18231   1.20681   1.20892   1.21808   1.23061
 Alpha virt. eigenvalues --    1.23169   1.25760   1.26142   1.27078   1.27382
 Alpha virt. eigenvalues --    1.29407   1.30073   1.30589   1.32323   1.33878
 Alpha virt. eigenvalues --    1.34295   1.34440   1.36417   1.36804   1.39429
 Alpha virt. eigenvalues --    1.39818   1.40473   1.40535   1.40604   1.40725
 Alpha virt. eigenvalues --    1.41320   1.41899   1.41913   1.42431   1.42578
 Alpha virt. eigenvalues --    1.43084   1.44038   1.44593   1.45529   1.47329
 Alpha virt. eigenvalues --    1.48035   1.51239   1.52128   1.52422   1.54096
 Alpha virt. eigenvalues --    1.54826   1.65029   1.65619   1.66952   1.69080
 Alpha virt. eigenvalues --    1.73419   1.73975   1.75065   1.77181   1.77507
 Alpha virt. eigenvalues --    1.78243   1.78338   1.79351   1.80340   1.80762
 Alpha virt. eigenvalues --    1.81567   1.81869   1.82234   1.82311   1.84168
 Alpha virt. eigenvalues --    1.85456   1.86263   1.86633   1.87352   1.87785
 Alpha virt. eigenvalues --    1.89372   1.89736   1.90797   1.91262   1.92477
 Alpha virt. eigenvalues --    1.93182   1.93298   1.93333   1.94846   1.95139
 Alpha virt. eigenvalues --    1.96467   1.96847   1.97025   1.97476   1.98069
 Alpha virt. eigenvalues --    1.98484   1.98617   1.99216   1.99723   2.00259
 Alpha virt. eigenvalues --    2.00295   2.00771   2.01353   2.03406   2.03751
 Alpha virt. eigenvalues --    2.04766   2.06599   2.07154   2.07412   2.08848
 Alpha virt. eigenvalues --    2.09052   2.10280   2.11174   2.12172   2.14055
 Alpha virt. eigenvalues --    2.16221   2.16491   2.18510   2.23238   2.24360
 Alpha virt. eigenvalues --    2.25120   2.25729   2.25855   2.26321   2.27008
 Alpha virt. eigenvalues --    2.27967   2.29336   2.29423   2.29968   2.30321
 Alpha virt. eigenvalues --    2.32428   2.32483   2.33850   2.35391   2.35415
 Alpha virt. eigenvalues --    2.36062   2.36519   2.36747   2.37364   2.37554
 Alpha virt. eigenvalues --    2.39416   2.39687   2.39781   2.39939   2.40867
 Alpha virt. eigenvalues --    2.41404   2.41923   2.41963   2.42232   2.42905
 Alpha virt. eigenvalues --    2.44847   2.44976   2.45190   2.46353   2.46696
 Alpha virt. eigenvalues --    2.46946   2.47258   2.47557   2.48645   2.49187
 Alpha virt. eigenvalues --    2.49708   2.49961   2.50319   2.51348   2.51651
 Alpha virt. eigenvalues --    2.52281   2.53306   2.54424   2.54765   2.54831
 Alpha virt. eigenvalues --    2.55458   2.56640   2.57560   2.58658   2.59712
 Alpha virt. eigenvalues --    2.59852   2.60186   2.60464   2.61094   2.63694
 Alpha virt. eigenvalues --    2.65217   2.65672   2.65902   2.66020   2.67351
 Alpha virt. eigenvalues --    2.67504   2.67841   2.70516   2.71851   2.73160
 Alpha virt. eigenvalues --    2.73627   2.76158   2.76860   2.77995   2.79151
 Alpha virt. eigenvalues --    2.79264   2.80621   2.80746   2.82823   2.83481
 Alpha virt. eigenvalues --    2.85922   2.87619   2.88467   2.88985   2.97389
 Alpha virt. eigenvalues --    2.98734   2.98811   2.99786   3.00330   3.05605
 Alpha virt. eigenvalues --    3.06310   3.06340   3.07013   3.07781   3.08774
 Alpha virt. eigenvalues --    3.15349   3.18610   3.19082   3.21110   3.22153
 Alpha virt. eigenvalues --    3.23970   3.24219   3.24917   3.25450   3.25844
 Alpha virt. eigenvalues --    3.25990   3.28669   3.28856   3.30729   3.31044
 Alpha virt. eigenvalues --    3.36390   3.36458   3.38274   3.38806   3.42568
 Alpha virt. eigenvalues --    3.43454   3.48983   3.49183   3.50884   3.51016
 Alpha virt. eigenvalues --    3.53880   3.54157   3.83380   3.83453   3.89538
 Alpha virt. eigenvalues --    3.89628   4.04298   4.04719   4.12059   4.13649
 Alpha virt. eigenvalues --    4.14063   4.14529   4.15236   4.15593   4.15766
 Alpha virt. eigenvalues --    4.17584   4.17589   4.21822   4.26991   4.29147
 Alpha virt. eigenvalues --    4.32851   4.41137   4.42705   4.45165   4.45494
 Alpha virt. eigenvalues --    4.47457   4.51256   4.51634   4.53466   4.64243
 Alpha virt. eigenvalues --    4.83300   4.83754   4.84124   4.88553
          Condensed to atoms (all electrons):
               1          2          3          4          5          6
     1  N    6.832985   0.297698  -0.070796   0.004624   0.000441  -0.000000
     2  C    0.297698   4.577533   0.537143  -0.024672  -0.029741   0.000662
     3  C   -0.070796   0.537143   4.973979   0.496566  -0.033549   0.006304
     4  C    0.004624  -0.024672   0.496566   4.895266   0.538941  -0.044791
     5  C    0.000441  -0.029741  -0.033549   0.538941   4.832336   0.333292
     6  C   -0.000000   0.000662   0.006304  -0.044791   0.333292   5.120997
     7  C   -0.000000   0.000020  -0.000080  -0.000472  -0.063315   0.325762
     8  C    0.000000  -0.000000  -0.000072   0.000588  -0.000001  -0.050272
     9  C   -0.000000  -0.000000   0.000001   0.000021   0.000111   0.006057
    10  C    0.000000   0.000000  -0.000000   0.000001   0.000041   0.000543
    11  C    0.000000   0.000000  -0.000000   0.000003  -0.000097   0.006174
    12  C   -0.000000   0.000001   0.000003  -0.000063  -0.001013  -0.045296
    13  C    0.000000   0.000044   0.000383  -0.008178  -0.046323   0.572266
    14  C    0.000000   0.000031  -0.000481   0.001943  -0.011830  -0.046331
    15  C   -0.000000   0.000007  -0.000087  -0.001215   0.000109   0.000345
    16  C    0.000000  -0.000000   0.000009   0.000031  -0.000112  -0.000035
    17  C    0.000000  -0.000002   0.000004   0.000028   0.000031   0.000044
    18  N   -0.000000   0.000000  -0.000000  -0.000000   0.000000   0.000000
    19  C   -0.000000   0.000004   0.000049  -0.000238  -0.000481   0.000383
    20  C   -0.000000   0.000028  -0.000238   0.000735   0.001946  -0.008171
    21  C    0.000000  -0.000000   0.000004   0.000014   0.005722  -0.047205
    22  C   -0.000000  -0.000000   0.000000   0.000003  -0.000139   0.000231
    23  C   -0.000000   0.000000  -0.000000  -0.000000   0.000002  -0.000026
    24  C    0.000000   0.000000   0.000000   0.000000  -0.000000   0.000023
    25  C   -0.000000  -0.000000   0.000000   0.000000   0.000004   0.000347
    26  C   -0.000000  -0.000000   0.000000   0.000007  -0.000004  -0.007913
    27  C    0.004666  -0.025233  -0.046463  -0.036660   0.530608  -0.050052
    28  C   -0.071193   0.537490  -0.047422  -0.047903  -0.031748   0.006047
    29  H    0.343553  -0.025145  -0.009216  -0.000051   0.000003  -0.000000
    30  H    0.343512  -0.025002   0.005496  -0.000178   0.000003  -0.000000
    31  H   -0.007467  -0.043610   0.362599  -0.032326   0.003869  -0.000189
    32  H   -0.000111   0.004049  -0.037906   0.365812  -0.044520  -0.005663
    33  H    0.000000  -0.000001   0.000055   0.001851   0.002548  -0.007024
    34  H    0.000000  -0.000000  -0.000000  -0.000001  -0.000002  -0.000200
    35  H    0.000000  -0.000000   0.000000  -0.000000   0.000000   0.000003
    36  H    0.000000  -0.000000   0.000000  -0.000000   0.000001  -0.000187
    37  H   -0.000000   0.000000  -0.000000  -0.000007   0.000085  -0.005472
    38  H   -0.000000   0.000000   0.000001  -0.000131   0.000024   0.000527
    39  H   -0.000000   0.000000  -0.000000  -0.000002  -0.000000  -0.000000
    40  H    0.000000  -0.000000  -0.000000   0.000000   0.000000   0.000000
    41  H    0.000000  -0.000000   0.000000   0.000000  -0.000000   0.000000
    42  H    0.000000   0.000000   0.000002  -0.000000   0.000001  -0.000008
    43  H   -0.000000  -0.000008  -0.000054  -0.000149   0.000819   0.002917
    44  H   -0.000000   0.000000   0.000000   0.000000  -0.000027   0.000576
    45  H    0.000000  -0.000000   0.000000   0.000000  -0.000000   0.000000
    46  H    0.000000   0.000000  -0.000000  -0.000000   0.000000   0.000000
    47  H    0.000000  -0.000000  -0.000000   0.000000  -0.000000  -0.000006
    48  H   -0.000000   0.000000   0.000001   0.000021  -0.000184   0.002954
    49  H   -0.000112   0.003918   0.000515   0.005614  -0.043842  -0.007358
    50  H   -0.007442  -0.043747   0.005153   0.000730   0.003871  -0.000207
               7          8          9         10         11         12
     1  N   -0.000000   0.000000  -0.000000   0.000000   0.000000  -0.000000
     2  C    0.000020  -0.000000  -0.000000   0.000000   0.000000   0.000001
     3  C   -0.000080  -0.000072   0.000001  -0.000000  -0.000000   0.000003
     4  C   -0.000472   0.000588   0.000021   0.000001   0.000003  -0.000063
     5  C   -0.063315  -0.000001   0.000111   0.000041  -0.000097  -0.001013
     6  C    0.325762  -0.050272   0.006057   0.000543   0.006174  -0.045296
     7  C    4.825367   0.530832  -0.023234  -0.033528  -0.025724   0.538464
     8  C    0.530832   4.907876   0.514449  -0.043313  -0.044432  -0.042720
     9  C   -0.023234   0.514449   4.849599   0.545088  -0.032082  -0.045649
    10  C   -0.033528  -0.043313   0.545088   4.828685   0.545909  -0.043103
    11  C   -0.025724  -0.044432  -0.032082   0.545909   4.862350   0.503843
    12  C    0.538464  -0.042720  -0.045649  -0.043103   0.503843   4.906178
    13  C   -0.047209   0.000231  -0.000026   0.000023   0.000347  -0.007915
    14  C    0.005723  -0.000139   0.000002  -0.000000   0.000004  -0.000004
    15  C   -0.000145   0.000001  -0.000000  -0.000000   0.000000   0.000003
    16  C    0.000003  -0.000000   0.000000   0.000000  -0.000000  -0.000000
    17  C   -0.000000  -0.000000   0.000000   0.000000  -0.000000  -0.000000
    18  N    0.000000  -0.000000  -0.000000   0.000000  -0.000000  -0.000000
    19  C    0.000004   0.000000  -0.000000   0.000000   0.000000   0.000000
    20  C    0.000014   0.000003  -0.000000   0.000000   0.000000   0.000007
    21  C   -0.012529   0.000048  -0.000111   0.000024  -0.000356   0.002280
    22  C    0.000048   0.000044  -0.000001   0.000007  -0.000113  -0.000849
    23  C   -0.000111  -0.000001   0.000000  -0.000000   0.000004   0.000020
    24  C    0.000024   0.000007  -0.000000  -0.000004   0.000014   0.000060
    25  C   -0.000356  -0.000113   0.000004   0.000014   0.000021  -0.000274
    26  C    0.002281  -0.000847   0.000021   0.000060  -0.000274   0.000476
    27  C   -0.000547   0.000246  -0.000080   0.000001  -0.000085   0.000594
    28  C    0.000194  -0.000083  -0.000003  -0.000000   0.000001   0.000029
    29  H   -0.000000   0.000000   0.000000   0.000000  -0.000000   0.000000
    30  H   -0.000000   0.000000  -0.000000   0.000000   0.000000  -0.000000
    31  H    0.000001   0.000001   0.000000  -0.000000   0.000000  -0.000000
    32  H    0.000108  -0.000013   0.000003   0.000000  -0.000000  -0.000006
    33  H   -0.044783   0.368990  -0.042061   0.004820   0.000276   0.005637
    34  H    0.003742  -0.036750   0.369008  -0.041220   0.004448   0.000853
    35  H    0.000545   0.004899  -0.041477   0.371907  -0.041337   0.004854
    36  H    0.003787   0.000812   0.004477  -0.041206   0.368392  -0.035862
    37  H   -0.045420   0.005698   0.000270   0.004881  -0.041629   0.369447
    38  H   -0.000025  -0.000000   0.000000  -0.000000  -0.000000   0.000000
[...]
   322    C   22  py     Val( 2p)     1.05209
   323    C   22  py     Ryd( 3p)     0.00284
   324    C   22  pz     Val( 2p)     1.12119
   325    C   22  pz     Ryd( 3p)     0.00364
   326    C   22  dxy    Ryd( 3d)     0.00046
   327    C   22  dxz    Ryd( 3d)     0.00064
   328    C   22  dyz    Ryd( 3d)     0.00048
   329    C   22  dx2y2  Ryd( 3d)     0.00057
   330    C   22  dz2    Ryd( 3d)     0.00042

   331    C   23  S      Cor( 1S)     1.99911
   332    C   23  S      Val( 2S)     0.96151
   333    C   23  S      Ryd( 3S)     0.00059
   334    C   23  S      Ryd( 4S)     0.00003
   335    C   23  px     Val( 2p)     1.05756
   336    C   23  px     Ryd( 3p)     0.00368
   337    C   23  py     Val( 2p)     1.12065
   338    C   23  py     Ryd( 3p)     0.00353
   339    C   23  pz     Val( 2p)     1.09477
   340    C   23  pz     Ryd( 3p)     0.00347
   341    C   23  dxy    Ryd( 3d)     0.00051
   342    C   23  dxz    Ryd( 3d)     0.00048
   343    C   23  dyz    Ryd( 3d)     0.00062
   344    C   23  dx2y2  Ryd( 3d)     0.00057
   345    C   23  dz2    Ryd( 3d)     0.00048

   346    C   24  S      Cor( 1S)     1.99910
   347    C   24  S      Val( 2S)     0.96129
   348    C   24  S      Ryd( 3S)     0.00054
   349    C   24  S      Ryd( 4S)     0.00003
   350    C   24  px     Val( 2p)     1.15246
   351    C   24  px     Ryd( 3p)     0.00409
   352    C   24  py     Val( 2p)     1.09537
   353    C   24  py     Ryd( 3p)     0.00366
   354    C   24  pz     Val( 2p)     1.05682
   355    C   24  pz     Ryd( 3p)     0.00364
   356    C   24  dxy    Ryd( 3d)     0.00060
   357    C   24  dxz    Ryd( 3d)     0.00047
   358    C   24  dyz    Ryd( 3d)     0.00043
   359    C   24  dx2y2  Ryd( 3d)     0.00045
   360    C   24  dz2    Ryd( 3d)     0.00056

   361    C   25  S      Cor( 1S)     1.99910
   362    C   25  S      Val( 2S)     0.96137
   363    C   25  S      Ryd( 3S)     0.00058
   364    C   25  S      Ryd( 4S)     0.00003
   365    C   25  px     Val( 2p)     1.10140
   366    C   25  px     Ryd( 3p)     0.00390
   367    C   25  py     Val( 2p)     1.05389
   368    C   25  py     Ryd( 3p)     0.00321
   369    C   25  pz     Val( 2p)     1.12375
   370    C   25  pz     Ryd( 3p)     0.00371
   371    C   25  dxy    Ryd( 3d)     0.00045
   372    C   25  dxz    Ryd( 3d)     0.00065
   373    C   25  dyz    Ryd( 3d)     0.00046
   374    C   25  dx2y2  Ryd( 3d)     0.00065
   375    C   25  dz2    Ryd( 3d)     0.00044

   376    C   26  S      Cor( 1S)     1.99903
   377    C   26  S      Val( 2S)     0.95200
   378    C   26  S      Ryd( 3S)     0.00067
   379    C   26  S      Ryd( 4S)     0.00005
   380    C   26  px     Val( 2p)     1.05306
   381    C   26  px     Ryd( 3p)     0.00292
   382    C   26  py     Val( 2p)     1.12375
   383    C   26  py     Ryd( 3p)     0.00340
   384    C   26  pz     Val( 2p)     1.08907
   385    C   26  pz     Ryd( 3p)     0.00356
   386    C   26  dxy    Ryd( 3d)     0.00049
   387    C   26  dxz    Ryd( 3d)     0.00049
   388    C   26  dyz    Ryd( 3d)     0.00059
   389    C   26  dx2y2  Ryd( 3d)     0.00057
   390    C   26  dz2    Ryd( 3d)     0.00048

   391    C   27  S      Cor( 1S)     1.99905
   392    C   27  S      Val( 2S)     0.95412
   393    C   27  S      Ryd( 3S)     0.00077
   394    C   27  S      Ryd( 4S)     0.00005
   395    C   27  px     Val( 2p)     1.10578
   396    C   27  px     Ryd( 3p)     0.00342
   397    C   27  py     Val( 2p)     1.02971
   398    C   27  py     Ryd( 3p)     0.00272
   399    C   27  pz     Val( 2p)     1.10805
   400    C   27  pz     Ryd( 3p)     0.00362
   401    C   27  dxy    Ryd( 3d)     0.00047
   402    C   27  dxz    Ryd( 3d)     0.00065
   403    C   27  dyz    Ryd( 3d)     0.00050
   404    C   27  dx2y2  Ryd( 3d)     0.00062
   405    C   27  dz2    Ryd( 3d)     0.00043

   406    C   28  S      Cor( 1S)     1.99904
   407    C   28  S      Val( 2S)     0.95835
   408    C   28  S      Ryd( 3S)     0.00065
   409    C   28  S      Ryd( 4S)     0.00004
   410    C   28  px     Val( 2p)     1.06200
   411    C   28  px     Ryd( 3p)     0.00333
   412    C   28  py     Val( 2p)     1.13524
   413    C   28  py     Ryd( 3p)     0.00329
   414    C   28  pz     Val( 2p)     1.10376
   415    C   28  pz     Ryd( 3p)     0.00311
   416    C   28  dxy    Ryd( 3d)     0.00046
   417    C   28  dxz    Ryd( 3d)     0.00055
   418    C   28  dyz    Ryd( 3d)     0.00055
   419    C   28  dx2y2  Ryd( 3d)     0.00053
   420    C   28  dz2    Ryd( 3d)     0.00042

   421    H   29  S      Val( 1S)     0.57385
   422    H   29  S      Ryd( 2S)     0.00115
   423    H   29  px     Ryd( 2p)     0.00038
   424    H   29  py     Ryd( 2p)     0.00026
   425    H   29  pz     Ryd( 2p)     0.00060

   426    H   30  S      Val( 1S)     0.57421
   427    H   30  S      Ryd( 2S)     0.00113
   428    H   30  px     Ryd( 2p)     0.00030
   429    H   30  py     Ryd( 2p)     0.00060
   430    H   30  pz     Ryd( 2p)     0.00034

   431    H   31  S      Val( 1S)     0.74921
   432    H   31  S      Ryd( 2S)     0.00097
   433    H   31  px     Ryd( 2p)     0.00022
   434    H   31  py     Ryd( 2p)     0.00010
   435    H   31  pz     Ryd( 2p)     0.00028

   436    H   32  S      Val( 1S)     0.74568
   437    H   32  S      Ryd( 2S)     0.00100
   438    H   32  px     Ryd( 2p)     0.00008
   439    H   32  py     Ryd( 2p)     0.00029
   440    H   32  pz     Ryd( 2p)     0.00022

   441    H   33  S      Val( 1S)     0.75868
   442    H   33  S      Ryd( 2S)     0.00102
   443    H   33  px     Ryd( 2p)     0.00023
   444    H   33  py     Ryd( 2p)     0.00010
   445    H   33  pz     Ryd( 2p)     0.00028

   446    H   34  S      Val( 1S)     0.75810
   447    H   34  S      Ryd( 2S)     0.00085
   448    H   34  px     Ryd( 2p)     0.00009
   449    H   34  py     Ryd( 2p)     0.00029
   450    H   34  pz     Ryd( 2p)     0.00022

   451    H   35  S      Val( 1S)     0.76049
   452    H   35  S      Ryd( 2S)     0.00083
   453    H   35  px     Ryd( 2p)     0.00032
   454    H   35  py     Ryd( 2p)     0.00020
   455    H   35  pz     Ryd( 2p)     0.00009

   456    H   36  S      Val( 1S)     0.75876
   457    H   36  S      Ryd( 2S)     0.00087
   458    H   36  px     Ryd( 2p)     0.00022
   459    H   36  py     Ryd( 2p)     0.00010
   460    H   36  pz     Ryd( 2p)     0.00028

   461    H   37  S      Val( 1S)     0.75689
   462    H   37  S      Ryd( 2S)     0.00107
   463    H   37  px     Ryd( 2p)     0.00009
   464    H   37  py     Ryd( 2p)     0.00030
   465    H   37  pz     Ryd( 2p)     0.00021

   466    H   38  S      Val( 1S)     0.74562
   467    H   38  S      Ryd( 2S)     0.00103
   468    H   38  px     Ryd( 2p)     0.00024
   469    H   38  py     Ryd( 2p)     0.00009
   470    H   38  pz     Ryd( 2p)     0.00026

   471    H   39  S      Val( 1S)     0.74808
   472    H   39  S      Ryd( 2S)     0.00091
   473    H   39  px     Ryd( 2p)     0.00008
   474    H   39  py     Ryd( 2p)     0.00028
   475    H   39  pz     Ryd( 2p)     0.00023

   476    H   40  S      Val( 1S)     0.57385
   477    H   40  S      Ryd( 2S)     0.00115
   478    H   40  px     Ryd( 2p)     0.00038
   479    H   40  py     Ryd( 2p)     0.00026
   480    H   40  pz     Ryd( 2p)     0.00060

   481    H   41  S      Val( 1S)     0.57421
   482    H   41  S      Ryd( 2S)     0.00113
   483    H   41  px     Ryd( 2p)     0.00030
   484    H   41  py     Ryd( 2p)     0.00060
   485    H   41  pz     Ryd( 2p)     0.00034

   486    H   42  S      Val( 1S)     0.74921
   487    H   42  S      Ryd( 2S)     0.00097
   488    H   42  px     Ryd( 2p)     0.00022
   489    H   42  py     Ryd( 2p)     0.00010
   490    H   42  pz     Ryd( 2p)     0.00028

   491    H   43  S      Val( 1S)     0.74568
   492    H   43  S      Ryd( 2S)     0.00100
   493    H   43  px     Ryd( 2p)     0.00008
   494    H   43  py     Ryd( 2p)     0.00029
   495    H   43  pz     Ryd( 2p)     0.00022

   496    H   44  S      Val( 1S)     0.75868
   497    H   44  S      Ryd( 2S)     0.00102
   498    H   44  px     Ryd( 2p)     0.00023
   499    H   44  py     Ryd( 2p)     0.00010
   500    H   44  pz     Ryd( 2p)     0.00028

   501    H   45  S      Val( 1S)     0.75811
   502    H   45  S      Ryd( 2S)     0.00085
   503    H   45  px     Ryd( 2p)     0.00009
   504    H   45  py     Ryd( 2p)     0.00029
   505    H   45  pz     Ryd( 2p)     0.00022

   506    H   46  S      Val( 1S)     0.76049
   507    H   46  S      Ryd( 2S)     0.00083
   508    H   46  px     Ryd( 2p)     0.00032
   509    H   46  py     Ryd( 2p)     0.00020
   510    H   46  pz     Ryd( 2p)     0.00009

   511    H   47  S      Val( 1S)     0.75876
   512    H   47  S      Ryd( 2S)     0.00087
   513    H   47  px     Ryd( 2p)     0.00022
   514    H   47  py     Ryd( 2p)     0.00010
   515    H   47  pz     Ryd( 2p)     0.00028

   516    H   48  S      Val( 1S)     0.75689
   517    H   48  S      Ryd( 2S)     0.00107
   518    H   48  px     Ryd( 2p)     0.00009
   519    H   48  py     Ryd( 2p)     0.00030
   520    H   48  pz     Ryd( 2p)     0.00021

   521    H   49  S      Val( 1S)     0.74562
   522    H   49  S      Ryd( 2S)     0.00103
   523    H   49  px     Ryd( 2p)     0.00024
   524    H   49  py     Ryd( 2p)     0.00009
   525    H   49  pz     Ryd( 2p)     0.00026

   526    H   50  S      Val( 1S)     0.74808
   527    H   50  S      Ryd( 2S)     0.00091
   528    H   50  px     Ryd( 2p)     0.00008
   529    H   50  py     Ryd( 2p)     0.00028
   530    H   50  pz     Ryd( 2p)     0.00023

 WARNING:  1 low occupancy (<1.9990e) core orbital  found on  C    2
           1 low occupancy (<1.9990e) core orbital  found on  C    6
           1 low occupancy (<1.9990e) core orbital  found on  C   13
           1 low occupancy (<1.9990e) core orbital  found on  C   17


 Summary of Natural Population Analysis:                  
                                                          
                                       Natural Population 
                Natural  -----------------------------------------------
    Atom  No    Charge         Core      Valence    Rydberg      Total
 -----------------------------------------------------------------------
      N    1   -0.81060      1.99950     5.79974    0.01136     7.81060
      C    2    0.18092      1.99899     3.80275    0.01734     5.81908
      C    3   -0.27833      1.99904     4.26636    0.01293     6.27833
      C    4   -0.20526      1.99904     4.19260    0.01361     6.20526
      C    5   -0.04590      1.99900     4.03010    0.01680     6.04590
      C    6   -0.07701      1.99888     4.05942    0.01870     6.07701
      C    7   -0.07522      1.99901     4.05904    0.01718     6.07522
      C    8   -0.24826      1.99903     4.23592    0.01331     6.24826
      C    9   -0.24756      1.99911     4.23449    0.01397     6.24756
      C   10   -0.27950      1.99910     4.26594    0.01446     6.27950
      C   11   -0.25359      1.99910     4.24040    0.01408     6.25359
      C   12   -0.23013      1.99903     4.21786    0.01323     6.23013
      C   13   -0.07701      1.99888     4.05942    0.01870     6.07701
      C   14   -0.04590      1.99900     4.03010    0.01680     6.04590
      C   15   -0.20996      1.99905     4.19765    0.01326     6.20996
      C   16   -0.27131      1.99904     4.25934    0.01294     6.27131
      C   17    0.18092      1.99899     3.80275    0.01734     5.81908
      N   18   -0.81060      1.99950     5.79974    0.01136     7.81060
      C   19   -0.27833      1.99904     4.26636    0.01293     6.27833
      C   20   -0.20526      1.99904     4.19261    0.01361     6.20526
      C   21   -0.07522      1.99901     4.05904    0.01718     6.07522
      C   22   -0.24826      1.99903     4.23592    0.01331     6.24826
      C   23   -0.24756      1.99911     4.23449    0.01397     6.24756
      C   24   -0.27950      1.99910     4.26594    0.01446     6.27950
      C   25   -0.25359      1.99910     4.24040    0.01408     6.25359
      C   26   -0.23013      1.99903     4.21787    0.01323     6.23013
      C   27   -0.20996      1.99905     4.19765    0.01326     6.20996
      C   28   -0.27131      1.99904     4.25934    0.01294     6.27131
      H   29    0.42376      0.00000     0.57385    0.00239     0.57624
      H   30    0.42342      0.00000     0.57421    0.00237     0.57658
      H   31    0.24923      0.00000     0.74921    0.00156     0.75077
      H   32    0.25271      0.00000     0.74568    0.00160     0.74729
      H   33    0.23969      0.00000     0.75868    0.00162     0.76031
      H   34    0.24044      0.00000     0.75810    0.00145     0.75956
      H   35    0.23807      0.00000     0.76049    0.00144     0.76193
      H   36    0.23976      0.00000     0.75876    0.00148     0.76024
      H   37    0.24144      0.00000     0.75689    0.00167     0.75856
      H   38    0.25275      0.00000     0.74562    0.00163     0.74725
      H   39    0.25042      0.00000     0.74808    0.00149     0.74958
      H   40    0.42376      0.00000     0.57385    0.00239     0.57624
      H   41    0.42342      0.00000     0.57421    0.00237     0.57658
      H   42    0.24923      0.00000     0.74921    0.00156     0.75077
      H   43    0.25271      0.00000     0.74568    0.00160     0.74729
      H   44    0.23969      0.00000     0.75868    0.00162     0.76031
      H   45    0.24044      0.00000     0.75811    0.00145     0.75956
      H   46    0.23807      0.00000     0.76049    0.00144     0.76193
      H   47    0.23976      0.00000     0.75876    0.00148     0.76024
      H   48    0.24144      0.00000     0.75689    0.00167     0.75856
      H   49    0.25275      0.00000     0.74562    0.00163     0.74725
      H   50    0.25042      0.00000     0.74808    0.00149     0.74958
 =======================================================================
   * Total *    0.00000     55.97383   135.58242    0.44376   192.00000

                                 Natural Population      
 --------------------------------------------------------
   Core                      55.97383 ( 99.9533% of  56)
   Valence                  135.58242 ( 99.6930% of 136)
   Natural Minimal Basis    191.55624 ( 99.7689% of 192)
   Natural Rydberg Basis      0.44376 (  0.2311% of 192)
 --------------------------------------------------------

    Atom  No          Natural Electron Configuration
 ----------------------------------------------------------------------------
      N    1      [core]2S( 1.36)2p( 4.44)3p( 0.01)
      C    2      [core]2S( 0.85)2p( 2.95)3p( 0.01)
      C    3      [core]2S( 0.96)2p( 3.31)3p( 0.01)
      C    4      [core]2S( 0.95)2p( 3.24)3p( 0.01)
      C    5      [core]2S( 0.88)2p( 3.15)3p( 0.01)
      C    6      [core]2S( 0.85)2p( 3.21)3p( 0.01)
      C    7      [core]2S( 0.88)2p( 3.18)3p( 0.01)
      C    8      [core]2S( 0.95)2p( 3.28)3p( 0.01)
      C    9      [core]2S( 0.96)2p( 3.27)3p( 0.01)
      C   10      [core]2S( 0.96)2p( 3.30)3p( 0.01)
      C   11      [core]2S( 0.96)2p( 3.28)3p( 0.01)
      C   12      [core]2S( 0.95)2p( 3.27)3p( 0.01)
      C   13      [core]2S( 0.85)2p( 3.21)3p( 0.01)
      C   14      [core]2S( 0.88)2p( 3.15)3p( 0.01)
      C   15      [core]2S( 0.95)2p( 3.24)3p( 0.01)
      C   16      [core]2S( 0.96)2p( 3.30)3p( 0.01)
      C   17      [core]2S( 0.85)2p( 2.95)3p( 0.01)
      N   18      [core]2S( 1.36)2p( 4.44)3p( 0.01)
      C   19      [core]2S( 0.96)2p( 3.31)3p( 0.01)
      C   20      [core]2S( 0.95)2p( 3.24)3p( 0.01)
      C   21      [core]2S( 0.88)2p( 3.18)3p( 0.01)
      C   22      [core]2S( 0.95)2p( 3.28)3p( 0.01)
      C   23      [core]2S( 0.96)2p( 3.27)3p( 0.01)
      C   24      [core]2S( 0.96)2p( 3.30)3p( 0.01)
      C   25      [core]2S( 0.96)2p( 3.28)3p( 0.01)
      C   26      [core]2S( 0.95)2p( 3.27)3p( 0.01)
      C   27      [core]2S( 0.95)2p( 3.24)3p( 0.01)
      C   28      [core]2S( 0.96)2p( 3.30)3p( 0.01)
      H   29            1S( 0.57)
      H   30            1S( 0.57)
      H   31            1S( 0.75)
      H   32            1S( 0.75)
      H   33            1S( 0.76)
      H   34            1S( 0.76)
      H   35            1S( 0.76)
      H   36            1S( 0.76)
      H   37            1S( 0.76)
      H   38            1S( 0.75)
      H   39            1S( 0.75)
      H   40            1S( 0.57)
      H   41            1S( 0.57)
      H   42            1S( 0.75)
      H   43            1S( 0.75)
      H   44            1S( 0.76)
      H   45            1S( 0.76)
      H   46            1S( 0.76)
      H   47            1S( 0.76)
      H   48            1S( 0.76)
      H   49            1S( 0.75)
      H   50            1S( 0.75)


 NBO analysis skipped by request.
 1\1\GINC-DRG2-W010\SP\RB3LYP TD-FC\6-31G(d,p)\C26H22N2\QDUEZ\17-Jul-20
 24\0\\# TD(NStates=10, Root=1) B3LYP/6-31G** SCRF=(Solvent=water) volu
 me pop=NPA density=current Geom=AllCheck Guess=Read\\FZIHVNZJLMYTFH-QP
 LCGJKRSA-N_conf_2\\0,1\N,0,-2.8913958892,-5.0686405808,0.1823400312\C,
 0,-2.3967285229,-3.7696681939,0.0909503957\C,0,-1.6909529081,-3.185786
 8516,1.16032287\C,0,-1.141119837,-1.9148201305,1.0391191418\C,0,-1.267
 259788,-1.1627394773,-0.1431609596\C,0,-0.7153507313,0.217933314,-0.25
 69680964\C,0,-1.6600476945,1.2273325362,-0.8289244761\C,0,-2.976830735
 9,1.3340110186,-0.3455746063\C,0,-3.8699840082,2.2562492882,-0.8899437
 412\C,0,-3.47394026,3.0787654713,-1.9480977609\C,0,-2.1767604595,2.969
 2616307,-2.4544853843\C,0,-1.2809940095,2.0541255895,-1.9008656637\C,0
 ,0.5562924091,0.5470686826,0.1284331367\C,0,1.6069056271,-0.4709571993
 ,0.4176503649\C,0,2.4332549437,-0.3644909295,1.5514350198\C,0,3.435717
 6423,-1.2909866406,1.8177794111\C,0,3.672215869,-2.3652654905,0.939831
 8905\N,0,4.6370408225,-3.3276686942,1.2283969625\C,0,2.8665076004,-2.4
 685584991,-0.2102806669\C,0,1.8598927574,-1.5424834609,-0.4582216259\C
 ,0,0.9957489726,1.9678324771,0.2920782949\C,0,2.1964240772,2.419693284
 9,-0.2850927454\C,0,2.6241236811,3.7362657756,-0.1168856227\C,0,1.8718
 244905,4.6272565079,0.6533448945\C,0,0.6887656958,4.1877796637,1.25194
 90731\C,0,0.2565106052,2.8734468149,1.072921145\C,0,-1.9943062474,-1.7
 467608246,-1.1967159608\C,0,-2.5389592215,-3.0222524785,-1.0930844037\
 H,0,-3.0756729607,-5.3922464897,1.1232620696\H,0,-3.6635746098,-5.2776
 997244,-0.4373986545\H,0,-1.5835407138,-3.7345933188,2.0925901636\H,0,
 -0.6085656611,-1.4881566388,1.8830929282\H,0,-3.2956214749,0.691761517
 3,0.4700256493\H,0,-4.8773073733,2.3307036469,-0.48999725\H,0,-4.17134
 04834,3.7917543545,-2.3779437683\H,0,-1.8625375024,3.5929229365,-3.286
 6855999\H,0,-0.2763430358,1.971220605,-2.3028557809\H,0,2.2832934101,0
 .4595348805,2.2430746863\H,0,4.0474184008,-1.1856655625,2.7102018964\H
 ,0,4.9933786873,-3.8317060512,0.426534915\H,0,5.3876454381,-3.01480116
 84,1.8306828999\H,0,3.0415249412,-3.2782422876,-0.9142901478\H,0,1.259
 7491766,-1.644106057,-1.3568026132\H,0,2.7919275809,1.7310181755,-0.87
 70539221\H,0,3.5473707107,4.066266282,-0.5847697899\H,0,2.2082364846,5
 .6506041916,0.7914546359\H,0,0.1035933489,4.8673235923,1.8651701282\H,
 0,-0.6611324478,2.53780039,1.5452190831\H,0,-2.1311232692,-1.191370939
 6,-2.1201310684\H,0,-3.0839735279,-3.4482649376,-1.9316313785\\Version
 =ES64L-G16RevA.03\State=1-A\HF=-1113.5700226\RMSD=2.929e-09\Dipole=0.8
 559748,-4.1172531,0.6917571\Quadrupole=14.2273468,-0.9652839,-13.26206
 29,3.3283798,0.5472287,-1.8893063\PG=C01 [X(C26H22N2)]\\@


 MICHAEL FARADAY, ASKED BY A POLITICIAN WHAT GOOD
 HIS ELECTRICAL DISCOVERIES WERE, REPLIED 
 "AT PRESENT I DO NOT KNOW, BUT ONE DAY YOU WILL BE
 ABLE TO TAX THEM."
 Job cpu time:       0 days  4 hours 15 minutes  8.4 seconds.
 Elapsed time:       0 days  1 hours 25 minutes 15.3 seconds.
 File lengths (MBytes):  RWF=   2157 Int=      0 D2E=      0 Chk=    135 Scr=      1
 Normal termination of Gaussian 16 at Wed Jul 17 22:52:03 2024.
