 Entering Gaussian System, Link 0=g16
 Initial command:
 /opt/sw/arch/manual/gaussian/G16_A03/g16/l1.exe "/scratch/1380818/Gau-26441.inp" -scrdir="/scratch/1380818/"
 Entering Link 1 = /opt/sw/arch/manual/gaussian/G16_A03/g16/l1.exe PID=     26442.
  
 Copyright (c) 1988,1990,1992,1993,1995,1998,2003,2009,2016,
            Gaussian, Inc.  All Rights Reserved.
  
 This is part of the Gaussian(R) 16 program.  It is based on
 the Gaussian(R) 09 system (copyright 2009, Gaussian, Inc.),
 the Gaussian(R) 03 system (copyright 2003, Gaussian, Inc.),
 the Gaussian(R) 98 system (copyright 1998, Gaussian, Inc.),
 the Gaussian(R) 94 system (copyright 1995, Gaussian, Inc.),
 the Gaussian 92(TM) system (copyright 1992, Gaussian, Inc.),
 the Gaussian 90(TM) system (copyright 1990, Gaussian, Inc.),
 the Gaussian 88(TM) system (copyright 1988, Gaussian, Inc.),
 the Gaussian 86(TM) system (copyright 1986, Carnegie Mellon
 University), and the Gaussian 82(TM) system (copyright 1983,
 Carnegie Mellon University). Gaussian is a federally registered
 trademark of Gaussian, Inc.
  
 This software contains proprietary and confidential information,
 including trade secrets, belonging to Gaussian, Inc.
  
 This software is provided under written license and may be
 used, copied, transmitted, or stored only in accord with that
 written license.
  
 The following legend is applicable only to US Government
 contracts under FAR:
  
                    RESTRICTED RIGHTS LEGEND
  
 Use, reproduction and disclosure by the US Government is
 subject to restrictions as set forth in subparagraphs (a)
 and (c) of the Commercial Computer Software - Restricted
 Rights clause in FAR 52.227-19.
  
 Gaussian, Inc.
 340 Quinnipiac St., Bldg. 40, Wallingford CT 06492
  
  
 ---------------------------------------------------------------
 Warning -- This program may not be used in any manner that
 competes with the business of Gaussian, Inc. or will provide
 assistance to any competitor of Gaussian, Inc.  The licensee
 of this program is prohibited from giving any competitor of
 Gaussian, Inc. access to this program.  By using this program,
 the user acknowledges that Gaussian, Inc. is engaged in the
 business of creating and licensing software in the field of
 computational chemistry and represents and warrants to the
 licensee that it is not a competitor of Gaussian, Inc. and that
 it will not use this program in any manner prohibited above.
 ---------------------------------------------------------------
  

 Cite this work as:
 Gaussian 16, Revision A.03,
 M. J. Frisch, G. W. Trucks, H. B. Schlegel, G. E. Scuseria, 
 M. A. Robb, J. R. Cheeseman, G. Scalmani, V. Barone, 
 G. A. Petersson, H. Nakatsuji, X. Li, M. Caricato, A. V. Marenich, 
 J. Bloino, B. G. Janesko, R. Gomperts, B. Mennucci, H. P. Hratchian, 
 J. V. Ortiz, A. F. Izmaylov, J. L. Sonnenberg, D. Williams-Young, 
 F. Ding, F. Lipparini, F. Egidi, J. Goings, B. Peng, A. Petrone, 
 T. Henderson, D. Ranasinghe, V. G. Zakrzewski, J. Gao, N. Rega, 
 G. Zheng, W. Liang, M. Hada, M. Ehara, K. Toyota, R. Fukuda, 
 J. Hasegawa, M. Ishida, T. Nakajima, Y. Honda, O. Kitao, H. Nakai, 
 T. Vreven, K. Throssell, J. A. Montgomery, Jr., J. E. Peralta, 
 F. Ogliaro, M. J. Bearpark, J. J. Heyd, E. N. Brothers, K. N. Kudin, 
 V. N. Staroverov, T. A. Keith, R. Kobayashi, J. Normand, 
 K. Raghavachari, A. P. Rendell, J. C. Burant, S. S. Iyengar, 
 J. Tomasi, M. Cossi, J. M. Millam, M. Klene, C. Adamo, R. Cammi, 
 J. W. Ochterski, R. L. Martin, K. Morokuma, O. Farkas, 
 J. B. Foresman, and D. J. Fox, Gaussian, Inc., Wallingford CT, 2016.
 
 ******************************************
 Gaussian 16:  ES64L-G16RevA.03 25-Dec-2016
                17-Jul-2024 
 ******************************************
 %nprocshared=8
 Will use up to    8 processors via shared memory.
 %mem=16GB
 %Chk=FZIHVNZJLMYTFH-QPLCGJKRSA-N_conf_0_0.chk
 -------------------------------------------------------
 # opt=CalcFc B3LYP/6-31G** SCRF=(Solvent=water) scf=xqc
 -------------------------------------------------------
 1/10=4,18=20,19=15,26=3,38=1/1,3;
 2/9=110,12=2,17=6,18=5,40=1/2;
 3/5=1,6=6,7=101,11=2,25=1,30=1,70=2201,71=2,72=1,74=-5,140=1/1,2,3;
 4//1;
 5/5=2,8=3,13=1,38=5,53=1/2,8;
 8/6=4,10=90,11=11/1;
 11/6=1,8=1,9=11,15=111,16=1/1,2,10;
 10/6=1,13=1/2;
 6/7=2,8=2,9=2,10=2,28=1/1;
 7/10=1,18=20,25=1/1,2,3,16;
 1/10=4,18=20,19=15,26=3/3(2);
 2/9=110/2;
 99//99;
 2/9=110/2;
 3/5=1,6=6,7=101,11=2,25=1,30=1,70=2205,71=1,72=1,74=-5/1,2,3;
 4/5=5,16=3,69=1/1;
 5/5=2,8=3,13=1,38=5,53=1/2,8;
 7//1,2,3,16;
 1/18=20,19=15,26=3/3(-5);
 2/9=110/2;
 6/7=2,8=2,9=2,10=2,19=2,28=1/1;
 99/9=1/99;
 ----------------------------------
 FZIHVNZJLMYTFH-QPLCGJKRSA-N_conf_0
 ----------------------------------
 Symbolic Z-matrix:
 Charge =  0 Multiplicity = 1
 N                     4.14181  -2.25954   3.31456 
 C                     3.18418  -1.61404   2.52305 
 C                     2.6939   -0.3602    2.89387 
 C                     1.82469   0.34477   2.05483 
 C                     1.45823  -0.18131   0.81069 
 C                     0.54964   0.59239  -0.08842 
 C                     1.02448   1.91023  -0.60957 
 C                     2.14522   1.96422  -1.45003 
 C                     2.61495   3.19018  -1.92555 
 C                     1.97449   4.37257  -1.55873 
 C                     0.8681    4.33207  -0.71201 
 C                     0.39849   3.10727  -0.23365 
 C                    -0.68445   0.10432  -0.42595 
 C                    -1.19843  -1.16132   0.1796 
 C                    -1.45514  -2.27138  -0.63331 
 C                    -1.95971  -3.45301  -0.08034 
 C                    -2.18371  -3.55972   1.29384 
 N                    -2.79552  -4.70277   1.82247 
 C                    -1.99827  -2.42872   2.09135 
 C                    -1.4963   -1.24312   1.54522 
 C                    -1.55323   0.82273  -1.40722 
 C                    -2.78501   1.34834  -0.99282 
 C                    -3.61804   2.00164  -1.90338 
 C                    -3.23137   2.12794  -3.23658 
 C                    -2.01534   1.59658  -3.66278 
 C                    -1.18226   0.94087  -2.75426 
 C                     2.01085  -1.40253   0.40619 
 C                     2.87758  -2.10268   1.25147 
 H                     4.07234  -2.03506   4.30192 
 H                     4.19891  -3.25935   3.14903 
 H                     2.98522   0.08336   3.84188 
 H                     1.44659   1.31255   2.37463 
 H                     2.65815   1.05013  -1.73903 
 H                     3.48234   3.22137  -2.57937 
 H                     2.33974   5.32639  -1.93005 
 H                     0.36932   5.25323  -0.42329 
 H                    -0.4622    3.09079   0.43011 
 H                    -1.27646  -2.22066  -1.70445 
 H                    -2.17745  -4.2903   -0.73747 
 H                    -2.60837  -5.54718   1.29132 
 H                    -2.6321   -4.82823   2.81633 
 H                    -2.24237  -2.45823   3.1495 
 H                    -1.34795  -0.38217   2.19186 
 H                    -3.10174   1.25162   0.04279 
 H                    -4.56929   2.40903  -1.57175 
 H                    -3.87939   2.63789  -3.94439 
 H                    -1.71385   1.69214  -4.7023 
 H                    -0.23907   0.52671  -3.10139 
 H                     1.77759  -1.81313  -0.57275 
 H                     3.31018  -3.03668   0.90432 
 

 GradGradGradGradGradGradGradGradGradGradGradGradGradGradGradGradGradGrad
 Berny optimization.
 Initialization pass.
                           ----------------------------
                           !    Initial Parameters    !
                           ! (Angstroms and Degrees)  !
 --------------------------                            --------------------------
 ! Name  Definition              Value          Derivative Info.                !
 --------------------------------------------------------------------------------
 ! R1    R(1,2)                  1.4001         calculate D2E/DX2 analytically  !
 ! R2    R(1,29)                 1.0149         calculate D2E/DX2 analytically  !
 ! R3    R(1,30)                 1.015          calculate D2E/DX2 analytically  !
 ! R4    R(2,3)                  1.3964         calculate D2E/DX2 analytically  !
 ! R5    R(2,28)                 1.3963         calculate D2E/DX2 analytically  !
 ! R6    R(3,4)                  1.3988         calculate D2E/DX2 analytically  !
 ! R7    R(3,31)                 1.0864         calculate D2E/DX2 analytically  !
 ! R8    R(4,5)                  1.3996         calculate D2E/DX2 analytically  !
 ! R9    R(4,32)                 1.0871         calculate D2E/DX2 analytically  !
 ! R10   R(5,6)                  1.4942         calculate D2E/DX2 analytically  !
 ! R11   R(5,27)                 1.4001         calculate D2E/DX2 analytically  !
 ! R12   R(6,7)                  1.4946         calculate D2E/DX2 analytically  !
 ! R13   R(6,13)                 1.3694         calculate D2E/DX2 analytically  !
 ! R14   R(7,8)                  1.4019         calculate D2E/DX2 analytically  !
 ! R15   R(7,12)                 1.4022         calculate D2E/DX2 analytically  !
 ! R16   R(8,9)                  1.3963         calculate D2E/DX2 analytically  !
 ! R17   R(8,33)                 1.0873         calculate D2E/DX2 analytically  !
 ! R18   R(9,10)                 1.3938         calculate D2E/DX2 analytically  !
 ! R19   R(9,34)                 1.0867         calculate D2E/DX2 analytically  !
 ! R20   R(10,11)                1.3938         calculate D2E/DX2 analytically  !
 ! R21   R(10,35)                1.0868         calculate D2E/DX2 analytically  !
 ! R22   R(11,12)                1.3962         calculate D2E/DX2 analytically  !
 ! R23   R(11,36)                1.0866         calculate D2E/DX2 analytically  !
 ! R24   R(12,37)                1.087          calculate D2E/DX2 analytically  !
 ! R25   R(13,14)                1.4942         calculate D2E/DX2 analytically  !
 ! R26   R(13,21)                1.4946         calculate D2E/DX2 analytically  !
 ! R27   R(14,15)                1.3996         calculate D2E/DX2 analytically  !
 ! R28   R(14,20)                1.4001         calculate D2E/DX2 analytically  !
 ! R29   R(15,16)                1.3988         calculate D2E/DX2 analytically  !
 ! R30   R(15,38)                1.0871         calculate D2E/DX2 analytically  !
 ! R31   R(16,17)                1.3964         calculate D2E/DX2 analytically  !
 ! R32   R(16,39)                1.0864         calculate D2E/DX2 analytically  !
 ! R33   R(17,18)                1.4001         calculate D2E/DX2 analytically  !
 ! R34   R(17,19)                1.3963         calculate D2E/DX2 analytically  !
 ! R35   R(18,40)                1.015          calculate D2E/DX2 analytically  !
 ! R36   R(18,41)                1.015          calculate D2E/DX2 analytically  !
 ! R37   R(19,20)                1.3985         calculate D2E/DX2 analytically  !
 ! R38   R(19,42)                1.0863         calculate D2E/DX2 analytically  !
 ! R39   R(20,43)                1.0869         calculate D2E/DX2 analytically  !
 ! R40   R(21,22)                1.4019         calculate D2E/DX2 analytically  !
 ! R41   R(21,26)                1.4022         calculate D2E/DX2 analytically  !
 ! R42   R(22,23)                1.3964         calculate D2E/DX2 analytically  !
 ! R43   R(22,44)                1.0873         calculate D2E/DX2 analytically  !
 ! R44   R(23,24)                1.3939         calculate D2E/DX2 analytically  !
 ! R45   R(23,45)                1.0867         calculate D2E/DX2 analytically  !
 ! R46   R(24,25)                1.3938         calculate D2E/DX2 analytically  !
 ! R47   R(24,46)                1.0867         calculate D2E/DX2 analytically  !
 ! R48   R(25,26)                1.3962         calculate D2E/DX2 analytically  !
 ! R49   R(25,47)                1.0866         calculate D2E/DX2 analytically  !
 ! R50   R(26,48)                1.087          calculate D2E/DX2 analytically  !
 ! R51   R(27,28)                1.3985         calculate D2E/DX2 analytically  !
 ! R52   R(27,49)                1.0869         calculate D2E/DX2 analytically  !
 ! R53   R(28,50)                1.0863         calculate D2E/DX2 analytically  !
 ! A1    A(2,1,29)             113.6521         calculate D2E/DX2 analytically  !
 ! A2    A(2,1,30)             113.6035         calculate D2E/DX2 analytically  !
 ! A3    A(29,1,30)            112.3563         calculate D2E/DX2 analytically  !
 ! A4    A(1,2,3)              120.264          calculate D2E/DX2 analytically  !
 ! A5    A(1,2,28)             120.244          calculate D2E/DX2 analytically  !
 ! A6    A(3,2,28)             118.6171         calculate D2E/DX2 analytically  !
 ! A7    A(2,3,4)              120.7586         calculate D2E/DX2 analytically  !
 ! A8    A(2,3,31)             120.2757         calculate D2E/DX2 analytically  !
 ! A9    A(4,3,31)             118.9656         calculate D2E/DX2 analytically  !
 ! A10   A(3,4,5)              120.4297         calculate D2E/DX2 analytically  !
 ! A11   A(3,4,32)             119.2314         calculate D2E/DX2 analytically  !
 ! A12   A(5,4,32)             120.3343         calculate D2E/DX2 analytically  !
 ! A13   A(4,5,6)              119.9655         calculate D2E/DX2 analytically  !
 ! A14   A(4,5,27)             118.771          calculate D2E/DX2 analytically  !
 ! A15   A(6,5,27)             121.1853         calculate D2E/DX2 analytically  !
 ! A16   A(5,6,7)              118.2428         calculate D2E/DX2 analytically  !
 ! A17   A(5,6,13)             120.7831         calculate D2E/DX2 analytically  !
 ! A18   A(7,6,13)             120.974          calculate D2E/DX2 analytically  !
 ! A19   A(6,7,8)              119.8007         calculate D2E/DX2 analytically  !
 ! A20   A(6,7,12)             121.1599         calculate D2E/DX2 analytically  !
 ! A21   A(8,7,12)             118.9968         calculate D2E/DX2 analytically  !
 ! A22   A(7,8,9)              120.4577         calculate D2E/DX2 analytically  !
 ! A23   A(7,8,33)             120.2729         calculate D2E/DX2 analytically  !
 ! A24   A(9,8,33)             119.2694         calculate D2E/DX2 analytically  !
 ! A25   A(8,9,10)             120.0397         calculate D2E/DX2 analytically  !
 ! A26   A(8,9,34)             119.9091         calculate D2E/DX2 analytically  !
 ! A27   A(10,9,34)            120.0509         calculate D2E/DX2 analytically  !
 ! A28   A(9,10,11)            119.9977         calculate D2E/DX2 analytically  !
 ! A29   A(9,10,35)            120.0116         calculate D2E/DX2 analytically  !
 ! A30   A(11,10,35)           119.9904         calculate D2E/DX2 analytically  !
 ! A31   A(10,11,12)           120.0398         calculate D2E/DX2 analytically  !
 ! A32   A(10,11,36)           120.0765         calculate D2E/DX2 analytically  !
 ! A33   A(12,11,36)           119.8837         calculate D2E/DX2 analytically  !
 ! A34   A(7,12,11)            120.4556         calculate D2E/DX2 analytically  !
 ! A35   A(7,12,37)            120.2815         calculate D2E/DX2 analytically  !
 ! A36   A(11,12,37)           119.2621         calculate D2E/DX2 analytically  !
 ! A37   A(6,13,14)            120.7976         calculate D2E/DX2 analytically  !
 ! A38   A(6,13,21)            120.9557         calculate D2E/DX2 analytically  !
 ! A39   A(14,13,21)           118.2466         calculate D2E/DX2 analytically  !
 ! A40   A(13,14,15)           119.9667         calculate D2E/DX2 analytically  !
 ! A41   A(13,14,20)           121.1938         calculate D2E/DX2 analytically  !
 ! A42   A(15,14,20)           118.7598         calculate D2E/DX2 analytically  !
 ! A43   A(14,15,16)           120.4335         calculate D2E/DX2 analytically  !
 ! A44   A(14,15,38)           120.339          calculate D2E/DX2 analytically  !
 ! A45   A(16,15,38)           119.223          calculate D2E/DX2 analytically  !
 ! A46   A(15,16,17)           120.7606         calculate D2E/DX2 analytically  !
 ! A47   A(15,16,39)           118.962          calculate D2E/DX2 analytically  !
 ! A48   A(17,16,39)           120.2774         calculate D2E/DX2 analytically  !
 ! A49   A(16,17,18)           120.2679         calculate D2E/DX2 analytically  !
 ! A50   A(16,17,19)           118.6121         calculate D2E/DX2 analytically  !
 ! A51   A(18,17,19)           120.2431         calculate D2E/DX2 analytically  !
 ! A52   A(17,18,40)           113.6435         calculate D2E/DX2 analytically  !
 ! A53   A(17,18,41)           113.5946         calculate D2E/DX2 analytically  !
 ! A54   A(40,18,41)           112.3272         calculate D2E/DX2 analytically  !
 ! A55   A(17,19,20)           120.7511         calculate D2E/DX2 analytically  !
 ! A56   A(17,19,42)           120.2985         calculate D2E/DX2 analytically  !
 ! A57   A(20,19,42)           118.9503         calculate D2E/DX2 analytically  !
 ! A58   A(14,20,19)           120.4489         calculate D2E/DX2 analytically  !
 ! A59   A(14,20,43)           120.3287         calculate D2E/DX2 analytically  !
 ! A60   A(19,20,43)           119.2203         calculate D2E/DX2 analytically  !
 ! A61   A(13,21,22)           119.7947         calculate D2E/DX2 analytically  !
 ! A62   A(13,21,26)           121.161          calculate D2E/DX2 analytically  !
 ! A63   A(22,21,26)           119.003          calculate D2E/DX2 analytically  !
 ! A64   A(21,22,23)           120.4532         calculate D2E/DX2 analytically  !
 ! A65   A(21,22,44)           120.2755         calculate D2E/DX2 analytically  !
 ! A66   A(23,22,44)           119.2713         calculate D2E/DX2 analytically  !
 ! A67   A(22,23,24)           120.0402         calculate D2E/DX2 analytically  !
 ! A68   A(22,23,45)           119.9088         calculate D2E/DX2 analytically  !
 ! A69   A(24,23,45)           120.0508         calculate D2E/DX2 analytically  !
 ! A70   A(23,24,25)           119.9964         calculate D2E/DX2 analytically  !
 ! A71   A(23,24,46)           120.0043         calculate D2E/DX2 analytically  !
 ! A72   A(25,24,46)           119.9991         calculate D2E/DX2 analytically  !
 ! A73   A(24,25,26)           120.0421         calculate D2E/DX2 analytically  !
 ! A74   A(24,25,47)           120.0717         calculate D2E/DX2 analytically  !
 ! A75   A(26,25,47)           119.8863         calculate D2E/DX2 analytically  !
 ! A76   A(21,26,25)           120.4527         calculate D2E/DX2 analytically  !
 ! A77   A(21,26,48)           120.281          calculate D2E/DX2 analytically  !
 ! A78   A(25,26,48)           119.2656         calculate D2E/DX2 analytically  !
 ! A79   A(5,27,28)            120.4407         calculate D2E/DX2 analytically  !
 ! A80   A(5,27,49)            120.3317         calculate D2E/DX2 analytically  !
 ! A81   A(28,27,49)           119.2254         calculate D2E/DX2 analytically  !
 ! A82   A(2,28,27)            120.7502         calculate D2E/DX2 analytically  !
 ! A83   A(2,28,50)            120.2962         calculate D2E/DX2 analytically  !
 ! A84   A(27,28,50)           118.9536         calculate D2E/DX2 analytically  !
 ! D1    D(29,1,2,3)            30.2897         calculate D2E/DX2 analytically  !
 ! D2    D(29,1,2,28)         -160.5644         calculate D2E/DX2 analytically  !
 ! D3    D(30,1,2,3)           160.4206         calculate D2E/DX2 analytically  !
 ! D4    D(30,1,2,28)          -30.4335         calculate D2E/DX2 analytically  !
 ! D5    D(1,2,3,4)            174.483          calculate D2E/DX2 analytically  !
 ! D6    D(1,2,3,31)            -5.4246         calculate D2E/DX2 analytically  !
 ! D7    D(28,2,3,4)             5.1626         calculate D2E/DX2 analytically  !
 ! D8    D(28,2,3,31)         -174.7451         calculate D2E/DX2 analytically  !
 ! D9    D(1,2,28,27)         -174.3781         calculate D2E/DX2 analytically  !
 ! D10   D(1,2,28,50)            5.6936         calculate D2E/DX2 analytically  !
 ! D11   D(3,2,28,27)           -5.0555         calculate D2E/DX2 analytically  !
 ! D12   D(3,2,28,50)          175.0162         calculate D2E/DX2 analytically  !
 ! D13   D(2,3,4,5)             -1.6581         calculate D2E/DX2 analytically  !
 ! D14   D(2,3,4,32)           179.1158         calculate D2E/DX2 analytically  !
 ! D15   D(31,3,4,5)           178.2507         calculate D2E/DX2 analytically  !
 ! D16   D(31,3,4,32)           -0.9754         calculate D2E/DX2 analytically  !
 ! D17   D(3,4,5,6)           -178.8395         calculate D2E/DX2 analytically  !
 ! D18   D(3,4,5,27)            -2.0173         calculate D2E/DX2 analytically  !
 ! D19   D(32,4,5,6)             0.3781         calculate D2E/DX2 analytically  !
 ! D20   D(32,4,5,27)          177.2003         calculate D2E/DX2 analytically  !
 ! D21   D(4,5,6,7)             63.46           calculate D2E/DX2 analytically  !
 ! D22   D(4,5,6,13)          -116.6134         calculate D2E/DX2 analytically  !
 ! D23   D(27,5,6,7)          -113.2839         calculate D2E/DX2 analytically  !
 ! D24   D(27,5,6,13)           66.6426         calculate D2E/DX2 analytically  !
 ! D25   D(4,5,27,28)            2.1234         calculate D2E/DX2 analytically  !
 ! D26   D(4,5,27,49)         -177.3408         calculate D2E/DX2 analytically  !
 ! D27   D(6,5,27,28)          178.9053         calculate D2E/DX2 analytically  !
 ! D28   D(6,5,27,49)           -0.5589         calculate D2E/DX2 analytically  !
 ! D29   D(5,6,7,8)             63.54           calculate D2E/DX2 analytically  !
 ! D30   D(5,6,7,12)          -114.0617         calculate D2E/DX2 analytically  !
 ! D31   D(13,6,7,8)          -116.3864         calculate D2E/DX2 analytically  !
 ! D32   D(13,6,7,12)           66.0118         calculate D2E/DX2 analytically  !
 ! D33   D(5,6,13,14)            4.8383         calculate D2E/DX2 analytically  !
 ! D34   D(5,6,13,21)         -175.2349         calculate D2E/DX2 analytically  !
 ! D35   D(7,6,13,14)         -175.2372         calculate D2E/DX2 analytically  !
 ! D36   D(7,6,13,21)            4.6897         calculate D2E/DX2 analytically  !
 ! D37   D(6,7,8,9)           -178.8556         calculate D2E/DX2 analytically  !
 ! D38   D(6,7,8,33)             1.1697         calculate D2E/DX2 analytically  !
 ! D39   D(12,7,8,9)            -1.2019         calculate D2E/DX2 analytically  !
 ! D40   D(12,7,8,33)          178.8234         calculate D2E/DX2 analytically  !
 ! D41   D(6,7,12,11)          178.9374         calculate D2E/DX2 analytically  !
 ! D42   D(6,7,12,37)           -1.3919         calculate D2E/DX2 analytically  !
 ! D43   D(8,7,12,11)            1.3167         calculate D2E/DX2 analytically  !
 ! D44   D(8,7,12,37)         -179.0126         calculate D2E/DX2 analytically  !
 ! D45   D(7,8,9,10)             0.4104         calculate D2E/DX2 analytically  !
 ! D46   D(7,8,9,34)          -179.7841         calculate D2E/DX2 analytically  !
 ! D47   D(33,8,9,10)         -179.6147         calculate D2E/DX2 analytically  !
 ! D48   D(33,8,9,34)            0.1908         calculate D2E/DX2 analytically  !
 ! D49   D(8,9,10,11)            0.285          calculate D2E/DX2 analytically  !
 ! D50   D(8,9,10,35)         -179.9268         calculate D2E/DX2 analytically  !
 ! D51   D(34,9,10,11)        -179.5202         calculate D2E/DX2 analytically  !
 ! D52   D(34,9,10,35)           0.268          calculate D2E/DX2 analytically  !
 ! D53   D(9,10,11,12)          -0.1706         calculate D2E/DX2 analytically  !
 ! D54   D(9,10,11,36)         179.8517         calculate D2E/DX2 analytically  !
 ! D55   D(35,10,11,12)       -179.9589         calculate D2E/DX2 analytically  !
 ! D56   D(35,10,11,36)          0.0634         calculate D2E/DX2 analytically  !
 ! D57   D(10,11,12,7)          -0.6401         calculate D2E/DX2 analytically  !
 ! D58   D(10,11,12,37)        179.6858         calculate D2E/DX2 analytically  !
 ! D59   D(36,11,12,7)         179.3377         calculate D2E/DX2 analytically  !
 ! D60   D(36,11,12,37)         -0.3364         calculate D2E/DX2 analytically  !
 ! D61   D(6,13,14,15)        -116.7889         calculate D2E/DX2 analytically  !
 ! D62   D(6,13,14,20)          66.4957         calculate D2E/DX2 analytically  !
 ! D63   D(21,13,14,15)         63.2823         calculate D2E/DX2 analytically  !
 ! D64   D(21,13,14,20)       -113.4331         calculate D2E/DX2 analytically  !
 ! D65   D(6,13,21,22)        -116.305          calculate D2E/DX2 analytically  !
 ! D66   D(6,13,21,26)          66.0552         calculate D2E/DX2 analytically  !
 ! D67   D(14,13,21,22)         63.6237         calculate D2E/DX2 analytically  !
 ! D68   D(14,13,21,26)       -114.0162         calculate D2E/DX2 analytically  !
 ! D69   D(13,14,15,16)       -178.8185         calculate D2E/DX2 analytically  !
 ! D70   D(13,14,15,38)          0.3961         calculate D2E/DX2 analytically  !
 ! D71   D(20,14,15,16)         -2.0235         calculate D2E/DX2 analytically  !
 ! D72   D(20,14,15,38)        177.191          calculate D2E/DX2 analytically  !
 ! D73   D(13,14,20,19)        178.8982         calculate D2E/DX2 analytically  !
 ! D74   D(13,14,20,43)         -0.5678         calculate D2E/DX2 analytically  !
 ! D75   D(15,14,20,19)          2.1441         calculate D2E/DX2 analytically  !
 ! D76   D(15,14,20,43)       -177.3218         calculate D2E/DX2 analytically  !
 ! D77   D(14,15,16,17)         -1.6714         calculate D2E/DX2 analytically  !
 ! D78   D(14,15,16,39)        178.241          calculate D2E/DX2 analytically  !
 ! D79   D(38,15,16,17)        179.1053         calculate D2E/DX2 analytically  !
 ! D80   D(38,15,16,39)         -0.9823         calculate D2E/DX2 analytically  !
 ! D81   D(15,16,17,18)        174.4892         calculate D2E/DX2 analytically  !
 ! D82   D(15,16,17,19)          5.1807         calculate D2E/DX2 analytically  !
 ! D83   D(39,16,17,18)         -5.4221         calculate D2E/DX2 analytically  !
 ! D84   D(39,16,17,19)       -174.7305         calculate D2E/DX2 analytically  !
 ! D85   D(16,17,18,40)         30.296          calculate D2E/DX2 analytically  !
 ! D86   D(16,17,18,41)        160.3685         calculate D2E/DX2 analytically  !
 ! D87   D(19,17,18,40)       -160.5707         calculate D2E/DX2 analytically  !
 ! D88   D(19,17,18,41)        -30.4982         calculate D2E/DX2 analytically  !
 ! D89   D(16,17,19,20)         -5.0591         calculate D2E/DX2 analytically  !
 ! D90   D(16,17,19,42)        174.9894         calculate D2E/DX2 analytically  !
 ! D91   D(18,17,19,20)       -174.3703         calculate D2E/DX2 analytically  !
 ! D92   D(18,17,19,42)          5.6782         calculate D2E/DX2 analytically  !
 ! D93   D(17,19,20,14)          1.428          calculate D2E/DX2 analytically  !
 ! D94   D(17,19,20,43)       -179.1002         calculate D2E/DX2 analytically  !
 ! D95   D(42,19,20,14)       -178.6199         calculate D2E/DX2 analytically  !
 ! D96   D(42,19,20,43)          0.8519         calculate D2E/DX2 analytically  !
 ! D97   D(13,21,22,23)       -178.8805         calculate D2E/DX2 analytically  !
 ! D98   D(13,21,22,44)          1.1471         calculate D2E/DX2 analytically  !
 ! D99   D(26,21,22,23)         -1.1897         calculate D2E/DX2 analytically  !
 ! D100  D(26,21,22,44)        178.8379         calculate D2E/DX2 analytically  !
 ! D101  D(13,21,26,25)        178.9666         calculate D2E/DX2 analytically  !
 ! D102  D(13,21,26,48)         -1.3559         calculate D2E/DX2 analytically  !
 ! D103  D(22,21,26,25)          1.3085         calculate D2E/DX2 analytically  !
 ! D104  D(22,21,26,48)       -179.0141         calculate D2E/DX2 analytically  !
 ! D105  D(21,22,23,24)          0.3982         calculate D2E/DX2 analytically  !
 ! D106  D(21,22,23,45)       -179.768          calculate D2E/DX2 analytically  !
 ! D107  D(44,22,23,24)       -179.629          calculate D2E/DX2 analytically  !
 ! D108  D(44,22,23,45)          0.2047         calculate D2E/DX2 analytically  !
 ! D109  D(22,23,24,25)          0.2927         calculate D2E/DX2 analytically  !
 ! D110  D(22,23,24,46)       -179.9014         calculate D2E/DX2 analytically  !
 ! D111  D(45,23,24,25)       -179.5408         calculate D2E/DX2 analytically  !
 ! D112  D(45,23,24,46)          0.265          calculate D2E/DX2 analytically  !
 ! D113  D(23,24,25,26)         -0.1743         calculate D2E/DX2 analytically  !
 ! D114  D(23,24,25,47)        179.8457         calculate D2E/DX2 analytically  !
 ! D115  D(46,24,25,26)       -179.9802         calculate D2E/DX2 analytically  !
 ! D116  D(46,24,25,47)          0.0398         calculate D2E/DX2 analytically  !
 ! D117  D(24,25,26,21)         -0.6361         calculate D2E/DX2 analytically  !
 ! D118  D(24,25,26,48)        179.6833         calculate D2E/DX2 analytically  !
 ! D119  D(47,25,26,21)        179.344          calculate D2E/DX2 analytically  !
 ! D120  D(47,25,26,48)         -0.3367         calculate D2E/DX2 analytically  !
 ! D121  D(5,27,28,2)            1.4439         calculate D2E/DX2 analytically  !
 ! D122  D(5,27,28,50)        -178.6269         calculate D2E/DX2 analytically  !
 ! D123  D(49,27,28,2)        -179.086          calculate D2E/DX2 analytically  !
 ! D124  D(49,27,28,50)          0.8432         calculate D2E/DX2 analytically  !
 --------------------------------------------------------------------------------
 Trust Radius=3.00D-01 FncErr=1.00D-07 GrdErr=1.00D-06 EigMax=2.50D+02 EigMin=1.00D-04
 Number of steps in this run=    271 maximum allowed number of steps=    300.
 GradGradGradGradGradGradGradGradGradGradGradGradGradGradGradGradGradGrad

                          Input orientation:                          
 ---------------------------------------------------------------------
 Center     Atomic      Atomic             Coordinates (Angstroms)
 Number     Number       Type             X           Y           Z
 ---------------------------------------------------------------------
      1          7           0        4.141815   -2.259537    3.314564
      2          6           0        3.184183   -1.614041    2.523047
      3          6           0        2.693903   -0.360203    2.893871
      4          6           0        1.824692    0.344766    2.054825
      5          6           0        1.458235   -0.181315    0.810686
      6          6           0        0.549644    0.592386   -0.088420
      7          6           0        1.024482    1.910233   -0.609569
      8          6           0        2.145222    1.964217   -1.450027
      9          6           0        2.614948    3.190182   -1.925546
     10          6           0        1.974491    4.372574   -1.558727
     11          6           0        0.868098    4.332072   -0.712006
     12          6           0        0.398488    3.107269   -0.233650
     13          6           0       -0.684452    0.104322   -0.425946
     14          6           0       -1.198432   -1.161318    0.179599
     15          6           0       -1.455143   -2.271380   -0.633313
     16          6           0       -1.959706   -3.453009   -0.080342
     17          6           0       -2.183711   -3.559724    1.293835
     18          7           0       -2.795521   -4.702774    1.822470
     19          6           0       -1.998273   -2.428721    2.091351
     20          6           0       -1.496296   -1.243116    1.545217
     21          6           0       -1.553228    0.822734   -1.407219
     22          6           0       -2.785015    1.348337   -0.992822
     23          6           0       -3.618035    2.001641   -1.903378
     24          6           0       -3.231367    2.127938   -3.236582
     25          6           0       -2.015335    1.596584   -3.662777
     26          6           0       -1.182257    0.940867   -2.754259
     27          6           0        2.010851   -1.402528    0.406188
     28          6           0        2.877584   -2.102677    1.251467
     29          1           0        4.072340   -2.035057    4.301916
     30          1           0        4.198907   -3.259348    3.149029
     31          1           0        2.985221    0.083362    3.841885
     32          1           0        1.446587    1.312549    2.374633
     33          1           0        2.658152    1.050129   -1.739032
     34          1           0        3.482339    3.221375   -2.579370
     35          1           0        2.339741    5.326390   -1.930045
     36          1           0        0.369318    5.253234   -0.423294
     37          1           0       -0.462197    3.090786    0.430108
     38          1           0       -1.276460   -2.220659   -1.704453
     39          1           0       -2.177449   -4.290297   -0.737466
     40          1           0       -2.608371   -5.547183    1.291322
     41          1           0       -2.632102   -4.828234    2.816331
     42          1           0       -2.242373   -2.458231    3.149502
     43          1           0       -1.347946   -0.382169    2.191856
     44          1           0       -3.101739    1.251618    0.042790
     45          1           0       -4.569292    2.409026   -1.571748
     46          1           0       -3.879395    2.637892   -3.944386
     47          1           0       -1.713853    1.692141   -4.702302
     48          1           0       -0.239067    0.526708   -3.101387
     49          1           0        1.777594   -1.813129   -0.572747
     50          1           0        3.310180   -3.036679    0.904324
 ---------------------------------------------------------------------
                    Distance matrix (angstroms):
                    1          2          3          4          5
     1  N    0.000000
     2  C    1.400080   0.000000
     3  C    2.425057   1.396423   0.000000
     4  C    3.706534   2.429891   1.398752   0.000000
     5  C    4.217821   2.822017   2.428690   1.399619   0.000000
     6  C    5.711169   4.316118   3.794645   2.506105   1.494169
     7  C    6.519476   5.186337   4.496213   3.192181   2.565119
     8  C    6.672916   5.446897   4.957159   3.874190   3.191564
     9  C    7.712945   6.572258   5.986505   4.956234   4.493544
    10  C    8.510650   7.346006   6.537764   5.413265   5.159316
    11  C    8.389267   7.154445   6.193008   4.946619   4.799741
    12  C    7.443448   6.135979   5.203237   3.860388   3.609499
    13  C    6.547679   5.159037   4.759228   3.536643   2.490372
    14  C    6.289064   4.990392   4.812414   3.863164   2.901130
    15  C    6.849219   5.649605   5.771326   4.982732   3.865394
    16  C    7.083666   6.051366   6.329888   5.770936   4.814586
    17  C    6.766543   5.840455   6.048816   5.647250   4.991077
    18  N    7.504824   6.766678   7.080933   6.846752   6.289813
    19  C    6.263030   5.263830   5.190311   4.723200   4.317220
    20  C    5.995998   4.795895   4.489562   3.716184   3.224315
    21  C    8.014308   6.620266   6.159288   4.860509   3.872482
    22  C    8.919154   7.534477   6.931381   5.616467   4.857741
    23  C   10.276178   8.884625   8.272392   6.930792   6.156294
    24  C   10.794965   9.398671   8.881561   7.532757   6.611005
    25  C   10.072907   8.695258   8.306357   7.000274   5.936201
    26  C    8.684408   7.310493   6.972716   5.703014   4.576059
    27  C    3.705958   2.429514   2.782368   2.409502   1.400131
    28  C    2.424717   1.396310   2.401551   2.782794   2.429089
    29  H    1.014930   2.032352   2.586082   3.970503   4.739050
    30  H    1.015028   2.031884   3.276460   4.452395   4.738505
    31  H    2.665512   2.158726   1.086437   2.146798   3.404396
    32  H    4.572475   3.406787   2.150233   1.087126   2.162798
    33  H    6.220448   5.053695   4.842944   3.947853   3.075275
    34  H    8.075504   7.035965   6.588300   5.700740   5.212271
    35  H    9.396791   8.289312   7.465449   6.400082   6.214778
    36  H    9.200274   7.985228   6.922279   5.687904   5.678271
    37  H    7.625154   6.309665   5.285869   3.925582   3.813075
    38  H    7.385779   6.175522   6.353712   5.507333   4.238325
    39  H    7.776634   6.822051   7.236182   6.730367   5.700764
    40  H    7.776061   7.109179   7.588612   7.412830   6.749877
    41  H    7.261707   6.651783   6.952384   6.870431   6.507483
    42  H    6.389412   5.527442   5.369720   5.059261   4.934461
    43  H    5.909522   4.708225   4.102420   3.257735   3.134106
    44  H    8.689177   7.340061   6.657034   5.398184   4.841108
    45  H   11.025194   9.647217   8.964619   7.635197   6.979752
    46  H   11.875057  10.478585   9.947792   8.589853   7.684330
    47  H   10.685258   9.334198   9.018995   7.745675   6.630611
    48  H    8.253467   6.923562   6.732908   5.556864   4.322782
    49  H    4.571653   3.406181   3.868858   3.400422   2.163030
    50  H    2.665487   2.158712   3.391404   3.868398   3.404640
                    6          7          8          9         10
     6  C    0.000000
     7  C    1.494586   0.000000
     8  C    2.506345   1.401907   0.000000
     9  C    3.793291   2.428919   1.396334   0.000000
    10  C    4.299048   2.804736   2.416847   1.393841   0.000000
    11  C    3.804671   2.429044   2.789706   2.414141   1.393801
    12  C    2.523604   1.402169   2.416034   2.789638   2.416736
    13  C    1.369352   2.493088   3.537656   4.759976   5.154721
    14  C    2.490599   3.872797   4.858464   6.157033   6.611595
    15  C    3.537970   4.861583   5.618713   6.932832   7.533983
    16  C    4.760476   6.160343   6.933456   8.274311   8.882752
    17  C    5.159639   6.620867   7.535408   8.885537   9.399421
    18  N    6.548309   8.014930   8.920143  10.277137  10.795715
    19  C    4.513355   5.937890   7.000559   8.305982   8.681218
    20  C    3.197453   4.576137   5.702554   6.971560   7.294985
    21  C    2.492862   2.909208   3.870833   4.821531   5.006908
    22  C    3.536857   3.869739   4.989548   5.781173   5.667376
    23  C    4.759162   4.820297   5.781182   6.345329   6.084115
    24  C    5.154114   5.006081   5.668007   6.084947   5.912238
    25  C    4.512600   4.319831   4.726696   5.195868   5.296401
    26  C    3.198065   3.226308   3.717579   4.490540   4.813624
    27  C    2.521794   3.602648   3.846890   5.186030   6.100330
    28  C    3.804992   4.795923   4.937008   6.178733   7.116294
    29  H    6.211915   6.998388   7.265867   8.258838   8.933412
    30  H    6.215630   7.136428   7.256347   8.358031   9.238898
    31  H    4.651713   5.195902   5.678692   6.561455   6.970332
    32  H    2.718413   3.072598   3.942180   4.835505   5.011363
    33  H    2.716589   2.164334   1.087280   2.148599   3.396843
    34  H    4.660163   3.411784   2.154934   1.086658   2.154200
    35  H    5.385798   3.891490   3.401832   2.153867   1.086761
    36  H    4.676341   3.411685   3.876293   3.399382   2.154379
    37  H    2.744940   2.164451   3.406274   3.876572   3.396453
    38  H    3.722827   4.853594   5.411638   6.668518   7.352594
    39  H    5.630177   6.979634   7.636242   8.963045   9.641495
    40  H    7.040672   8.510233   9.302300  10.675807  11.292785
    41  H    6.924176   8.397282   9.336061  10.691676  11.181087
    42  H    5.252215   6.624684   7.743688   9.014114   9.306410
    43  H    3.122541   4.327991   5.565165   6.739378   6.907463
    44  H    3.712735   4.229072   5.501537   6.349244   6.170360
    45  H    5.630626   5.697798   6.730333   7.235239   6.832042
    46  H    6.218437   5.974822   6.555279   6.823286   6.555034
    47  H    5.255548   4.929149   5.054086   5.356586   5.538111
    48  H    3.115181   3.117669   3.237015   4.077021   4.697907
    49  H    2.743891   3.798942   3.895269   5.250176   6.266886
    50  H    4.666499   5.655813   5.648810   6.874977   7.921346
                   11         12         13         14         15
    11  C    0.000000
    12  C    1.396245   0.000000
    13  C    4.512883   3.198035   0.000000
    14  C    5.936568   4.576217   1.494224   0.000000
    15  C    7.000658   5.703117   2.506177   1.399630   0.000000
    16  C    8.306803   6.972936   3.794775   2.428777   1.398788
    17  C    8.695826   7.310934   4.316324   2.822171   2.429926
    18  N   10.073436   8.684820   5.711406   4.218013   3.706638
    19  C    7.860230   6.465081   3.805156   2.429167   2.782722
    20  C    6.462827   5.067585   2.521935   1.400116   2.409359
    21  C    4.319907   3.225765   1.494585   2.565216   3.190939
    22  C    4.725121   3.715491   2.506249   3.192207   3.873004
    23  C    5.193811   4.488080   3.793222   4.494172   4.954783
    24  C    5.295027   4.811709   4.299008   5.159683   5.411652
    25  C    4.950165   4.457311   3.804625   4.799709   4.944958
    26  C    4.458142   3.680425   2.523620   3.609289   3.858938
    27  C    5.953308   4.831912   3.198078   3.226301   3.721368
    28  C    7.021342   5.957770   4.513608   4.318444   4.727936
    29  H    8.714753   7.778950   7.039651   6.748181   7.413865
    30  H    9.145028   8.149817   6.924010   6.507727   6.873898
    31  H    6.578121   5.696067   5.628616   5.697764   6.729713
    32  H    4.356548   3.335066   3.720803   4.234892   5.505662
    33  H    3.876883   3.406476   3.713724   4.841991   5.401317
    34  H    3.399258   3.876282   5.631643   6.980654   7.637815
    35  H    2.153606   3.401576   6.219168   7.685026   8.591202
    36  H    1.086589   2.154526   5.255638   6.630822   7.745487
    37  H    2.148232   1.087026   3.114674   4.322636   5.556044
    38  H    6.965799   5.775424   2.718564   2.162855   1.087125
    39  H    9.144466   7.849412   4.651749   3.404408   2.146766
    40  H   10.662966   9.287964   6.212084   4.739163   3.970522
    41  H   10.421697   9.025468   6.215771   4.738569   4.452278
    42  H    8.408002   7.028133   4.666650   3.404720   3.868376
    43  H    5.963835   4.594484   2.744045   2.163008   3.400322
    44  H    5.081194   3.971329   2.716483   3.076289   3.947139
    45  H    5.831165   5.192003   4.660097   5.213183   5.699542
    46  H    5.988090   5.682443   5.385727   6.215208   6.398527
    47  H    5.436743   5.141345   4.676329   5.678102   5.686220
    48  H    4.627716   3.910204   2.744953   3.812438   3.924223
    49  H    6.213701   5.121254   3.124075   3.138091   3.265616
    50  H    7.929362   6.893550   5.252865   4.936576   5.065403
                   16         17         18         19         20
    16  C    0.000000
    17  C    1.396399   0.000000
    18  N    2.425117   1.400118   0.000000
    19  C    2.401438   1.396276   2.424710   0.000000
    20  C    2.782233   2.429487   3.705954   1.398537   0.000000
    21  C    4.495309   5.186438   6.519618   4.796876   3.603866
    22  C    4.956479   5.447883   6.673974   4.939358   3.849424
    23  C    5.985543   6.573297   7.714120   6.181391   5.188740
    24  C    6.536508   7.346548   8.511322   7.118324   6.102465
    25  C    6.191553   7.154290   8.389192   7.022347   5.954536
    26  C    5.201961   6.135576   7.443101   5.958183   4.832586
    27  C    4.495165   4.799558   5.999891   4.468325   3.690918
    28  C    5.195814   5.267019   6.266631   4.958396   4.467209
    29  H    7.589490   7.107132   7.773795   6.472551   6.263886
    30  H    6.956642   6.653554   7.263970   6.341425   6.250819
    31  H    7.234783   6.817807   7.771880   5.848944   5.207516
    32  H    6.351399   6.171404   7.381360   5.093565   3.984960
    33  H    6.659889   7.341162   8.690382   6.961072   5.771022
    34  H    8.967073   9.648271  11.026326   9.152941   7.856888
    35  H    9.949095  10.479410  11.875875   9.753550   8.363673
    36  H    9.018904   9.334598  10.685587   8.422669   7.039752
    37  H    6.732336   6.923794   8.253645   5.965251   4.592987
    38  H    2.150174   3.406748   4.572486   3.869423   3.400628
    39  H    1.086405   2.158694   2.665600   3.391132   3.867806
    40  H    2.586077   2.032323   1.014973   3.276747   4.452659
    41  H    3.276290   2.031789   1.014991   2.585537   3.969744
    42  H    3.391368   2.158756   2.665513   1.086342   2.146362
    43  H    3.868746   3.406142   4.571603   2.149745   1.086913
    44  H    4.842821   5.055383   6.222203   4.354209   3.325422
    45  H    6.587692   7.037651   8.077418   6.590313   5.700606
    46  H    7.464256   8.290039   9.397701   8.101809   7.132820
    47  H    6.920659   7.984767   9.199869   7.950856   6.906124
    48  H    5.284455   6.308609   7.624127   6.228475   5.128726
    49  H    4.110849   4.714516   5.916121   4.661925   3.940690
    50  H    5.377230   5.532461   6.395189   5.473419   5.170089
                   21         22         23         24         25
    21  C    0.000000
    22  C    1.401886   0.000000
    23  C    2.428873   1.396367   0.000000
    24  C    2.804689   2.416913   1.393879   0.000000
    25  C    2.428977   2.789747   2.414167   1.393812   0.000000
    26  C    1.402174   2.416097   2.789669   2.416738   1.396205
    27  C    4.576340   5.703054   6.971859   7.294848   6.462300
    28  C    5.937906   7.000811   8.306114   8.681012   7.859706
    29  H    8.509301   9.300803  10.674384  11.291750  10.662314
    30  H    8.397014   9.335998  10.691558  11.180691  10.421017
    31  H    6.978344   7.633491   8.960515   9.640071   9.144143
    32  H    4.851928   5.408095   6.665330   7.350772   6.965335
    33  H    4.230547   5.502165   6.350032   6.171771   5.083393
    34  H    5.699505   6.730909   7.236023   6.833841   5.834221
    35  H    5.975907   6.554877   6.822739   6.555485   5.990033
    36  H    4.928856   5.051969   5.353736   5.535973   5.436166
    37  H    3.116116   3.233627   4.073170   4.694678   4.625644
    38  H    3.070372   3.939529   4.832221   5.007931   4.353426
    39  H    5.194353   5.677019   6.559201   6.967788   6.575644
    40  H    6.997949   7.266135   8.258951   8.932946   8.713679
    41  H    7.136931   7.258310   8.360318   9.240412   9.145356
    42  H    5.657151   5.651838   6.878553   7.924211   7.930966
    43  H    3.800957   3.898974   5.254217   6.270236   6.215915
    44  H    2.164337   1.087273   2.148643   3.396914   3.876919
    45  H    3.411750   2.154962   1.086661   2.154235   3.399289
    46  H    3.891410   3.401815   2.153796   1.086729   2.153681
    47  H    3.411633   3.876316   3.399363   2.154321   1.086570
    48  H    2.164453   3.406313   3.876606   3.396479   2.148237
    49  H    4.328798   5.566752   6.740613   6.907801   5.963283
    50  H    6.625031   7.744607   9.014878   9.306568   8.407535
                   26         27         28         29         30
    26  C    0.000000
    27  C    5.067136   0.000000
    28  C    6.464619   1.398546   0.000000
    29  H    9.287439   4.452699   3.276775   0.000000
    30  H    9.024829   3.969704   2.585445   1.686433   0.000000
    31  H    7.849351   3.867981   3.391256   2.425109   3.623091
    32  H    5.775335   3.400708   3.869498   4.670703   5.392328
    33  H    3.973835   3.322122   4.351025   6.929023   6.696168
    34  H    5.195168   5.697307   6.586848   8.679301   8.679159
    35  H    5.684770   7.130532   8.099526   9.799497  10.147334
    36  H    5.141721   6.905204   7.950198   9.442414   9.994564
    37  H    3.909071   5.128978   6.229030   7.863027   8.333224
    38  H    3.332598   3.991310   5.099751   8.044910   7.390183
    39  H    5.694114   5.214309   5.856185   8.339145   7.538277
    40  H    7.777874   6.268879   6.477801   8.125922   7.417836
    41  H    8.149604   6.253100   6.343035   7.413389   7.016749
    42  H    6.894353   5.170126   5.472012   6.432942   6.490908
    43  H    5.122688   3.938434   4.658281   6.046808   6.321544
    44  H    3.406532   5.771926   6.961645   8.967151   9.126718
    45  H    3.876317   7.857383   9.153249  11.354630  11.458513
    46  H    3.401595   8.363461   9.753288  12.372067  12.261849
    47  H    2.154502   7.038967   8.421953  11.333489  11.005516
    48  H    1.087030   4.592077   5.964438   8.942023   8.549710
    49  H    4.593931   1.086884   2.149784   5.392351   4.669682
    50  H    7.027666   2.146356   1.086282   3.623226   2.424483
                   31         32         33         34         35
    31  H    0.000000
    32  H    2.455835   0.000000
    33  H    5.673469   4.296393   0.000000
    34  H    7.164270   5.685952   2.469769   0.000000
    35  H    7.824396   5.953058   4.292351   2.481581   0.000000
    36  H    7.194601   4.951556   4.963468   4.297443   2.481575
    37  H    5.706970   3.253730   4.313470   4.963203   4.291748
    38  H    7.364258   6.044624   5.116680   7.281990   8.371723
    39  H    8.170221   7.362790   7.273674   9.583894  10.691488
    40  H    8.336467   8.041900   8.969049  11.356347  12.373181
    41  H    7.531922   7.385121   9.126515  11.458455  12.262288
    42  H    5.853788   5.331757   7.760251   9.891927  10.363295
    43  H    4.660005   3.273360   5.792424   7.686467   7.948380
    44  H    7.269734   5.111602   6.032565   7.355662   7.078528
    45  H    9.580543   7.277842   7.355986   8.154998   7.508271
    46  H   10.689930   8.369744   7.079837   7.509917   7.068468
    47  H    9.882945   7.759863   5.320486   5.817716   6.109402
    48  H    7.668222   5.783232   3.244050   4.624132   5.573082
    49  H    4.954192   4.308884   3.214631   5.681454   7.289102
    50  H    4.297618   4.954853   4.910649   7.164426   8.883486
                   36         37         38         39         40
    36  H    0.000000
    37  H    2.468986   0.000000
    38  H    7.759447   5.781939   0.000000
    39  H    9.882495   7.667184   2.455656   0.000000
    40  H   11.333823   8.942162   4.670591   2.425168   0.000000
    41  H   11.006348   8.550639   5.392096   3.622921   1.686150
    42  H    8.891147   6.430841   4.954826   4.297581   3.623315
    43  H    6.445601   3.993710   4.308872   4.954036   5.392310
    44  H    5.317745   3.240330   4.294322   5.672383   6.930075
    45  H    5.813634   4.619574   5.682811   7.162253   8.680072
    46  H    6.106526   5.569431   5.949629   7.821813   9.799163
    47  H    5.943979   5.464841   4.948577   7.191968   9.440948
    48  H    5.466476   4.369868   3.252020   5.705172   7.861403
    49  H    7.206876   5.483682   3.282390   4.669674   6.054304
    50  H    8.895724   7.211209   5.339370   5.863540   6.440624
                   41         42         43         44         45
    41  H    0.000000
    42  H    2.424832   0.000000
    43  H    4.669746   2.455019   0.000000
    44  H    6.699081   4.914585   3.219245   0.000000
    45  H    8.682504   7.169026   5.686172   2.469825   0.000000
    46  H   10.149191   8.886707   7.292631   4.292328   2.481482
    47  H    9.994414   8.896951   7.208749   4.963485   4.297421
    48  H    8.331951   7.210875   5.483985   4.313495   4.963242
    49  H    6.326304   5.516469   4.411313   5.794778   7.688144
    50  H    6.494317   6.017165   5.513828   7.761729   9.893064
                   46         47         48         49         50
    46  H    0.000000
    47  H    2.481622   0.000000
    48  H    4.291821   2.469039   0.000000
    49  H    7.948651   6.444404   3.991965   0.000000
    50  H   10.363432   8.890270   6.429666   2.455124   0.000000
 Stoichiometry    C26H22N2
 Framework group  C1[X(C26H22N2)]
 Deg. of freedom   144
 Full point group                 C1      NOp   1
 Largest Abelian subgroup         C1      NOp   1
 Largest concise Abelian subgroup C1      NOp   1
                         Standard orientation:                         
 ---------------------------------------------------------------------
 Center     Atomic      Atomic             Coordinates (Angstroms)
 Number     Number       Type             X           Y           Z
 ---------------------------------------------------------------------
      1          7           0        4.397905   -3.748556    0.180262
      2          6           0        3.273170   -2.918932    0.097092
      3          6           0        2.418361   -3.000510   -1.004108
      4          6           0        1.232042   -2.260599   -1.045171
      5          6           0        0.864225   -1.450285    0.035123
      6          6           0       -0.418030   -0.684504   -0.008953
      7          6           0       -1.698674   -1.452501   -0.071568
      8          6           0       -2.062405   -2.288678    0.993256
      9          6           0       -3.244006   -3.030705    0.938812
     10          6           0       -4.067430   -2.950212   -0.182922
     11          6           0       -3.708541   -2.133236   -1.253637
     12          6           0       -2.526181   -1.392390   -1.201920
     13          6           0       -0.417572    0.684727    0.009184
     14          6           0        0.865051    1.450001   -0.034826
     15          6           0        1.231418    2.263036    1.043930
     16          6           0        2.417846    3.002832    1.002720
     17          6           0        3.274386    2.918302   -0.096882
     18          7           0        4.399382    3.747590   -0.180515
     19          6           0        2.871384    2.166200   -1.202105
     20          6           0        1.685407    1.425742   -1.169177
     21          6           0       -1.697946    1.453172    0.071800
     22          6           0       -2.062075    2.288123   -0.993822
     23          6           0       -3.243699    3.030195   -0.939670
     24          6           0       -4.066779    2.950726    0.182436
     25          6           0       -3.707420    2.134858    1.253852
     26          6           0       -2.525062    1.394060    1.202497
     27          6           0        1.682917   -1.428664    1.170746
     28          6           0        2.868679   -2.169486    1.203619
     29          1           0        4.787922   -3.997509   -0.723061
     30          1           0        5.104582   -3.411619    0.826299
     31          1           0        2.666535   -3.643840   -1.843681
     32          1           0        0.592002   -2.331797   -1.921028
     33          1           0       -1.426275   -2.365763    1.871649
     34          1           0       -3.519063   -3.673365    1.770773
     35          1           0       -4.987558   -3.527013   -0.224307
     36          1           0       -4.348294   -2.071381   -2.129746
     37          1           0       -2.255963   -0.763302   -2.046228
     38          1           0        0.590203    2.336579    1.918730
     39          1           0        2.664689    3.648337    1.840973
     40          1           0        4.788003    3.998736    0.722851
     41          1           0        5.107262    3.408312   -0.823944
     42          1           0        3.478061    2.147618   -2.103070
     43          1           0        1.402938    0.837354   -2.038309
     44          1           0       -1.426336    2.364206   -1.872577
     45          1           0       -3.519270    3.671729   -1.772332
     46          1           0       -4.987055    3.527269    0.223286
     47          1           0       -4.346871    2.073925    2.130221
     48          1           0       -2.254436    0.765872    2.047349
     49          1           0        1.399315   -0.842183    2.040762
     50          1           0        3.474196   -2.153035    2.105332
 ---------------------------------------------------------------------
 Rotational constants (GHZ):           0.2104188           0.1609681           0.1023730
 Standard basis: 6-31G(d,p) (6D, 7F)
 There are   530 symmetry adapted cartesian basis functions of A   symmetry.
 There are   530 symmetry adapted basis functions of A   symmetry.
   530 basis functions,   938 primitive gaussians,   530 cartesian basis functions
    96 alpha electrons       96 beta electrons
       nuclear repulsion energy      2402.9383938706 Hartrees.
 NAtoms=   50 NActive=   50 NUniq=   50 SFac= 1.00D+00 NAtFMM=   60 NAOKFM=F Big=F
 Integral buffers will be    131072 words long.
 Raffenetti 2 integral format.
 Two-electron integral symmetry is turned on.
 Force inversion solution in PCM.
 ------------------------------------------------------------------------------
 Polarizable Continuum Model (PCM)
 =================================
 Model                : PCM.
 Atomic radii         : UFF (Universal Force Field).
 Polarization charges : Total charges.
 Charge compensation  : None.
 Solution method      : Matrix inversion.
 Cavity type          : Scaled VdW (van der Waals Surface) (Alpha=1.100).
 Cavity algorithm     : GePol (No added spheres)
                        Default sphere list used, NSphG=   50.
                        Lebedev-Laikov grids with approx.  5.0 points / Ang**2.
                        Smoothing algorithm: York/Karplus (Gamma=1.0000).
                        Polarization charges: spherical gaussians, with
                                              point-specific exponents (IZeta= 3).
                        Self-potential: point-specific (ISelfS= 7).
                        Self-field    : sphere-specific E.n sum rule (ISelfD= 2).
 1st derivatives      : Analytical E(r).r(x)/FMM algorithm (CHGder, D1EAlg=3).
                        Cavity 1st derivative terms included.
 2nd derivatives      : Analytical E(r).r(xy)/FMM algorithm (CHGder, D2EAlg=3).
                        Cavity 2nd derivative terms included.
 Solvent              : Water, Eps=  78.355300 Eps(inf)=   1.777849
 ------------------------------------------------------------------------------
 One-electron integrals computed using PRISM.
 NBasis=   530 RedAO= T EigKep=  4.23D-04  NBF=   530
 NBsUse=   530 1.00D-06 EigRej= -1.00D+00 NBFU=   530
 ExpMin= 1.61D-01 ExpMax= 4.17D+03 ExpMxC= 6.27D+02 IAcc=3 IRadAn=         5 AccDes= 0.00D+00
 Harris functional with IExCor=  402 and IRadAn=       5 diagonalized for initial guess.
 HarFok:  IExCor=  402 AccDes= 0.00D+00 IRadAn=         5 IDoV= 1 UseB2=F ITyADJ=14
 ICtDFT=  3500011 ScaDFX=  1.000000  1.000000  1.000000  1.000000
 FoFCou: FMM=F IPFlag=           0 FMFlag=      100000 FMFlg1=           0
         NFxFlg=           0 DoJE=T BraDBF=F KetDBF=T FulRan=T
         wScrn=  0.000000 ICntrl=       500 IOpCl=  0 I1Cent=   200000004 NGrid=           0
         NMat0=    1 NMatS0=      1 NMatT0=    0 NMatD0=    1 NMtDS0=    0 NMtDT0=    0
 Petite list used in FoFCou.
 Requested convergence on RMS density matrix=1.00D-08 within  32 cycles.
 Requested convergence on MAX density matrix=1.00D-06.
 Requested convergence on             energy=1.00D-06.
 No special actions if energy rises.
 Inv3:  Mode=1 IEnd=    38923212.
 Iteration    1 A*A^-1 deviation from unit magnitude is 4.22D-15 for    572.
 Iteration    1 A*A^-1 deviation from orthogonality  is 3.66D-15 for   2837    192.
 Iteration    1 A^-1*A deviation from unit magnitude is 4.22D-15 for    572.
 Iteration    1 A^-1*A deviation from orthogonality  is 3.97D-15 for   2730   2057.
 Error on total polarization charges =  0.01198
 SCF Done:  E(RB3LYP) =  -1113.56135871     A.U. after   12 cycles
            NFock= 12  Conv=0.58D-08     -V/T= 2.0098
 QCSCF skips out because SCF is already converged.
 DoSCS=F DFT=T ScalE2(SS,OS)=  1.000000  1.000000
 Range of M.O.s used for correlation:     1   530
 NBasis=   530 NAE=    96 NBE=    96 NFC=     0 NFV=     0
 NROrb=    530 NOA=    96 NOB=    96 NVA=   434 NVB=   434
 Symmetrizing basis deriv contribution to polar:
 IMax=3 JMax=2 DiffMx= 0.00D+00
 G2DrvN: will do    51 centers at a time, making    1 passes.
 Calling FoFCou, ICntrl=  3107 FMM=F I1Cent=   0 AccDes= 0.00D+00.
 NEqPCM:  Using equilibrium solvation (IEInf=0, Eps=  78.3553, EpsInf=   1.7778)
 G2PCM: DoFxE=T DoFxN=T DoGrad=T DoDP/DQ/DG/TGxP=FFFF NFrqRd=   0 IEInf=0 SqF1=F DoCFld=F IF1Alg=4.
 End of G2Drv F.D. properties file   721 does not exist.
 End of G2Drv F.D. properties file   722 does not exist.
 End of G2Drv F.D. properties file   788 does not exist.
          IDoAtm=11111111111111111111111111111111111111111111111111
 NEqPCM:  Using equilibrium solvation (IEInf=0, Eps=  78.3553, EpsInf=   1.7778)
          Differentiating once with respect to nuclear coordinates.
 CalDSu exits because no D1Ps are significant.
          There are   153 degrees of freedom in the 1st order CPHF.  IDoFFX=6 NUNeed=     0.
    147 vectors produced by pass  0 Test12= 4.17D-14 1.00D-09 XBig12= 1.41D-01 8.11D-02.
 AX will form   147 AO Fock derivatives at one time.
    147 vectors produced by pass  1 Test12= 4.17D-14 1.00D-09 XBig12= 1.93D-02 2.63D-02.
    147 vectors produced by pass  2 Test12= 4.17D-14 1.00D-09 XBig12= 1.75D-04 2.17D-03.
    147 vectors produced by pass  3 Test12= 4.17D-14 1.00D-09 XBig12= 6.26D-07 6.78D-05.
    147 vectors produced by pass  4 Test12= 4.17D-14 1.00D-09 XBig12= 1.02D-09 2.78D-06.
    102 vectors produced by pass  5 Test12= 4.17D-14 1.00D-09 XBig12= 1.43D-12 1.09D-07.
     20 vectors produced by pass  6 Test12= 4.17D-14 1.00D-09 XBig12= 1.81D-15 3.98D-09.
 InvSVY:  IOpt=1 It=  1 EMax= 8.33D-16
 Solved reduced A of dimension   857 with   153 vectors.
 End of Minotr F.D. properties file   721 does not exist.
 End of Minotr F.D. properties file   722 does not exist.
 End of Minotr F.D. properties file   788 does not exist.

 **********************************************************************

            Population analysis using the SCF density.

 **********************************************************************

 Orbital symmetries:
       Occupied  (A) (A) (A) (A) (A) (A) (A) (A) (A) (A) (A) (A)
                 (A) (A) (A) (A) (A) (A) (A) (A) (A) (A) (A) (A)
                 (A) (A) (A) (A) (A) (A) (A) (A) (A) (A) (A) (A)
                 (A) (A) (A) (A) (A) (A) (A) (A) (A) (A) (A) (A)
                 (A) (A) (A) (A) (A) (A) (A) (A) (A) (A) (A) (A)
                 (A) (A) (A) (A) (A) (A) (A) (A) (A) (A) (A) (A)
                 (A) (A) (A) (A) (A) (A) (A) (A) (A) (A) (A) (A)
                 (A) (A) (A) (A) (A) (A) (A) (A) (A) (A) (A) (A)
       Virtual   (A) (A) (A) (A) (A) (A) (A) (A) (A) (A) (A) (A)
                 (A) (A) (A) (A) (A) (A) (A) (A) (A) (A) (A) (A)
                 (A) (A) (A) (A) (A) (A) (A) (A) (A) (A) (A) (A)
                 (A) (A) (A) (A) (A) (A) (A) (A) (A) (A) (A) (A)
                 (A) (A) (A) (A) (A) (A) (A) (A) (A) (A) (A) (A)
                 (A) (A) (A) (A) (A) (A) (A) (A) (A) (A) (A) (A)
                 (A) (A) (A) (A) (A) (A) (A) (A) (A) (A) (A) (A)
                 (A) (A) (A) (A) (A) (A) (A) (A) (A) (A) (A) (A)
                 (A) (A) (A) (A) (A) (A) (A) (A) (A) (A) (A) (A)
                 (A) (A) (A) (A) (A) (A) (A) (A) (A) (A) (A) (A)
                 (A) (A) (A) (A) (A) (A) (A) (A) (A) (A) (A) (A)
                 (A) (A) (A) (A) (A) (A) (A) (A) (A) (A) (A) (A)
                 (A) (A) (A) (A) (A) (A) (A) (A) (A) (A) (A) (A)
                 (A) (A) (A) (A) (A) (A) (A) (A) (A) (A) (A) (A)
                 (A) (A) (A) (A) (A) (A) (A) (A) (A) (A) (A) (A)
                 (A) (A) (A) (A) (A) (A) (A) (A) (A) (A) (A) (A)
                 (A) (A) (A) (A) (A) (A) (A) (A) (A) (A) (A) (A)
                 (A) (A) (A) (A) (A) (A) (A) (A) (A) (A) (A) (A)
                 (A) (A) (A) (A) (A) (A) (A) (A) (A) (A) (A) (A)
                 (A) (A) (A) (A) (A) (A) (A) (A) (A) (A) (A) (A)
                 (A) (A) (A) (A) (A) (A) (A) (A) (A) (A) (A) (A)
                 (A) (A) (A) (A) (A) (A) (A) (A) (A) (A) (A) (A)
                 (A) (A) (A) (A) (A) (A) (A) (A) (A) (A) (A) (A)
                 (A) (A) (A) (A) (A) (A) (A) (A) (A) (A) (A) (A)
                 (A) (A) (A) (A) (A) (A) (A) (A) (A) (A) (A) (A)
                 (A) (A) (A) (A) (A) (A) (A) (A) (A) (A) (A) (A)
                 (A) (A) (A) (A) (A) (A) (A) (A) (A) (A) (A) (A)
                 (A) (A) (A) (A) (A) (A) (A) (A) (A) (A) (A) (A)
                 (A) (A) (A) (A) (A) (A) (A) (A) (A) (A) (A) (A)
                 (A) (A) (A) (A) (A) (A) (A) (A) (A) (A) (A) (A)
                 (A) (A) (A) (A) (A) (A) (A) (A) (A) (A) (A) (A)
                 (A) (A) (A) (A) (A) (A) (A) (A) (A) (A) (A) (A)
                 (A) (A) (A) (A) (A) (A) (A) (A) (A) (A) (A) (A)
                 (A) (A) (A) (A) (A) (A) (A) (A) (A) (A) (A) (A)
                 (A) (A) (A) (A) (A) (A) (A) (A) (A) (A) (A) (A)
                 (A) (A) (A) (A) (A) (A) (A) (A) (A) (A) (A) (A)
                 (A) (A)
 The electronic state is 1-A.
 Alpha  occ. eigenvalues --  -14.33567 -14.33567 -10.22476 -10.22476 -10.19739
 Alpha  occ. eigenvalues --  -10.19739 -10.19613 -10.19545 -10.18919 -10.18918
 Alpha  occ. eigenvalues --  -10.18893 -10.18892 -10.18811 -10.18811 -10.18797
 Alpha  occ. eigenvalues --  -10.18797 -10.18768 -10.18768 -10.18713 -10.18711
 Alpha  occ. eigenvalues --  -10.18686 -10.18685 -10.18619 -10.18617 -10.18150
 Alpha  occ. eigenvalues --  -10.18150 -10.18105 -10.18105  -0.91345  -0.91323
 Alpha  occ. eigenvalues --   -0.86828  -0.85238  -0.84210  -0.83397  -0.79823
 Alpha  occ. eigenvalues --   -0.75814  -0.74310  -0.74266  -0.74061  -0.74058
 Alpha  occ. eigenvalues --   -0.73590  -0.72363  -0.68855  -0.63052  -0.61268
 Alpha  occ. eigenvalues --   -0.61147  -0.60208  -0.60120  -0.59727  -0.58876
 Alpha  occ. eigenvalues --   -0.57604  -0.54275  -0.52149  -0.51256  -0.51134
 Alpha  occ. eigenvalues --   -0.50313  -0.50090  -0.49092  -0.47567  -0.45994
 Alpha  occ. eigenvalues --   -0.45250  -0.44974  -0.44300  -0.43513  -0.43164
 Alpha  occ. eigenvalues --   -0.42904  -0.42639  -0.41927  -0.41767  -0.41589
 Alpha  occ. eigenvalues --   -0.41279  -0.40979  -0.40891  -0.38654  -0.37754
 Alpha  occ. eigenvalues --   -0.37315  -0.36306  -0.35914  -0.35406  -0.34861
 Alpha  occ. eigenvalues --   -0.34623  -0.34180  -0.33992  -0.33786  -0.32046
 Alpha  occ. eigenvalues --   -0.30868  -0.30183  -0.26378  -0.25650  -0.25149
 Alpha  occ. eigenvalues --   -0.24963  -0.24825  -0.24596  -0.22968  -0.20832
 Alpha  occ. eigenvalues --   -0.18878
 Alpha virt. eigenvalues --   -0.02779  -0.01221  -0.00512  -0.00352   0.00317
 Alpha virt. eigenvalues --    0.00674   0.00677   0.02825   0.04879   0.09241
 Alpha virt. eigenvalues --    0.09447   0.09467   0.10351   0.10869   0.11848
 Alpha virt. eigenvalues --    0.12296   0.13531   0.14085   0.14917   0.15169
 Alpha virt. eigenvalues --    0.15403   0.15768   0.16259   0.16431   0.17036
 Alpha virt. eigenvalues --    0.17371   0.17517   0.17918   0.18761   0.19075
 Alpha virt. eigenvalues --    0.19148   0.19864   0.20292   0.20557   0.21591
 Alpha virt. eigenvalues --    0.24461   0.24917   0.25787   0.27405   0.27666
 Alpha virt. eigenvalues --    0.29343   0.29392   0.30580   0.30912   0.31558
 Alpha virt. eigenvalues --    0.32342   0.32885   0.33667   0.33759   0.34332
 Alpha virt. eigenvalues --    0.34377   0.34673   0.35569   0.35602   0.36317
 Alpha virt. eigenvalues --    0.37053   0.43204   0.45078   0.46320   0.46934
 Alpha virt. eigenvalues --    0.46960   0.47964   0.49371   0.50176   0.51608
 Alpha virt. eigenvalues --    0.52156   0.52365   0.52918   0.53208   0.53505
 Alpha virt. eigenvalues --    0.53677   0.54481   0.54664   0.55017   0.55084
 Alpha virt. eigenvalues --    0.55756   0.55869   0.57250   0.57359   0.58091
 Alpha virt. eigenvalues --    0.58287   0.58752   0.59089   0.59419   0.59461
 Alpha virt. eigenvalues --    0.59882   0.60013   0.60089   0.60140   0.60556
 Alpha virt. eigenvalues --    0.60684   0.60808   0.61403   0.61666   0.61670
 Alpha virt. eigenvalues --    0.61860   0.62294   0.62660   0.63008   0.64560
 Alpha virt. eigenvalues --    0.64898   0.65924   0.66096   0.66749   0.66840
 Alpha virt. eigenvalues --    0.67319   0.68038   0.69175   0.70251   0.70635
 Alpha virt. eigenvalues --    0.71323   0.72215   0.72582   0.75137   0.75575
 Alpha virt. eigenvalues --    0.76266   0.76361   0.78018   0.79384   0.79670
 Alpha virt. eigenvalues --    0.80512   0.82023   0.82042   0.82338   0.82668
 Alpha virt. eigenvalues --    0.82754   0.82849   0.82933   0.83080   0.84464
 Alpha virt. eigenvalues --    0.84960   0.85195   0.85345   0.85470   0.85966
 Alpha virt. eigenvalues --    0.86600   0.87235   0.87311   0.88438   0.88575
 Alpha virt. eigenvalues --    0.89122   0.89162   0.89325   0.90006   0.90393
 Alpha virt. eigenvalues --    0.91117   0.92426   0.92996   0.94307   0.95034
 Alpha virt. eigenvalues --    0.95807   0.97077   0.98183   0.99022   0.99301
 Alpha virt. eigenvalues --    0.99693   1.00756   1.01011   1.01143   1.02042
 Alpha virt. eigenvalues --    1.02291   1.05637   1.06007   1.07039   1.07127
 Alpha virt. eigenvalues --    1.09476   1.09707   1.11267   1.13436   1.13574
 Alpha virt. eigenvalues --    1.14934   1.15038   1.15918   1.16659   1.17134
 Alpha virt. eigenvalues --    1.18233   1.20988   1.21303   1.21755   1.23198
 Alpha virt. eigenvalues --    1.23664   1.24825   1.24885   1.26420   1.27385
 Alpha virt. eigenvalues --    1.29272   1.30043   1.30280   1.33801   1.33957
 Alpha virt. eigenvalues --    1.34139   1.34962   1.35627   1.36803   1.38977
 Alpha virt. eigenvalues --    1.40429   1.40521   1.40681   1.40718   1.40785
 Alpha virt. eigenvalues --    1.41236   1.41798   1.41816   1.42347   1.42516
 Alpha virt. eigenvalues --    1.43349   1.44132   1.44450   1.46292   1.47325
 Alpha virt. eigenvalues --    1.48568   1.50495   1.51948   1.52504   1.54242
 Alpha virt. eigenvalues --    1.54470   1.64922   1.65126   1.67033   1.68896
 Alpha virt. eigenvalues --    1.73199   1.73859   1.75898   1.77090   1.77171
 Alpha virt. eigenvalues --    1.78353   1.78714   1.79110   1.80315   1.80662
 Alpha virt. eigenvalues --    1.81634   1.81641   1.82185   1.82674   1.84133
 Alpha virt. eigenvalues --    1.85173   1.85687   1.86497   1.87457   1.88465
 Alpha virt. eigenvalues --    1.89540   1.90245   1.90736   1.92028   1.92444
 Alpha virt. eigenvalues --    1.92827   1.93162   1.93727   1.94562   1.95211
 Alpha virt. eigenvalues --    1.96469   1.96706   1.97021   1.97588   1.98005
 Alpha virt. eigenvalues --    1.98235   1.98407   1.99177   1.99951   2.00083
 Alpha virt. eigenvalues --    2.00353   2.00584   2.00951   2.03094   2.04122
 Alpha virt. eigenvalues --    2.05272   2.06574   2.06893   2.07826   2.08716
 Alpha virt. eigenvalues --    2.08882   2.10851   2.11026   2.12000   2.14049
 Alpha virt. eigenvalues --    2.16221   2.16711   2.18400   2.23128   2.23470
 Alpha virt. eigenvalues --    2.24859   2.25332   2.25447   2.27437   2.27648
 Alpha virt. eigenvalues --    2.27725   2.28702   2.29418   2.30075   2.30737
 Alpha virt. eigenvalues --    2.32306   2.33240   2.34189   2.35312   2.35333
 Alpha virt. eigenvalues --    2.36205   2.36577   2.36744   2.37426   2.37625
 Alpha virt. eigenvalues --    2.39171   2.39389   2.40091   2.40662   2.40985
 Alpha virt. eigenvalues --    2.41272   2.41799   2.42121   2.42584   2.42907
 Alpha virt. eigenvalues --    2.44868   2.44953   2.45154   2.45737   2.46590
 Alpha virt. eigenvalues --    2.46835   2.47200   2.47394   2.48091   2.48299
 Alpha virt. eigenvalues --    2.48958   2.50501   2.50637   2.51354   2.51764
 Alpha virt. eigenvalues --    2.52270   2.52365   2.53630   2.54560   2.55470
 Alpha virt. eigenvalues --    2.55586   2.57056   2.57983   2.58925   2.59477
 Alpha virt. eigenvalues --    2.59581   2.60235   2.60598   2.60703   2.64282
 Alpha virt. eigenvalues --    2.64433   2.65780   2.66062   2.66739   2.66765
 Alpha virt. eigenvalues --    2.67759   2.69230   2.70934   2.71276   2.72487
 Alpha virt. eigenvalues --    2.73328   2.76235   2.76707   2.78123   2.78755
 Alpha virt. eigenvalues --    2.79282   2.80908   2.81172   2.83164   2.83556
 Alpha virt. eigenvalues --    2.85673   2.87455   2.88626   2.89505   2.97115
 Alpha virt. eigenvalues --    2.98699   2.98711   3.00186   3.00331   3.05590
 Alpha virt. eigenvalues --    3.06278   3.06425   3.07017   3.07752   3.08977
 Alpha virt. eigenvalues --    3.15070   3.18825   3.18928   3.21560   3.22234
 Alpha virt. eigenvalues --    3.23978   3.24221   3.24921   3.25481   3.25826
 Alpha virt. eigenvalues --    3.25832   3.28609   3.28781   3.30826   3.31094
 Alpha virt. eigenvalues --    3.36455   3.36466   3.38185   3.38704   3.42640
 Alpha virt. eigenvalues --    3.43470   3.48897   3.49050   3.50842   3.51075
 Alpha virt. eigenvalues --    3.53816   3.53983   3.83324   3.83461   3.89557
 Alpha virt. eigenvalues --    3.89606   4.04264   4.04501   4.12044   4.13682
 Alpha virt. eigenvalues --    4.14047   4.14489   4.15163   4.15737   4.15758
 Alpha virt. eigenvalues --    4.17451   4.17523   4.21611   4.26965   4.29370
 Alpha virt. eigenvalues --    4.32955   4.41013   4.42767   4.45279   4.45373
 Alpha virt. eigenvalues --    4.47364   4.51268   4.51637   4.53635   4.63977
 Alpha virt. eigenvalues --    4.83237   4.83803   4.84280   4.88554
          Condensed to atoms (all electrons):
               1          2          3          4          5          6
     1  N    6.832572   0.297634  -0.070724   0.004595   0.000452  -0.000000
     2  C    0.297634   4.578824   0.538861  -0.026272  -0.029078   0.000679
     3  C   -0.070724   0.538861   4.956173   0.508914  -0.032186   0.006074
     4  C    0.004595  -0.026272   0.508914   4.899382   0.531578  -0.049875
     5  C    0.000452  -0.029078  -0.032186   0.531578   4.832480   0.333580
     6  C   -0.000000   0.000679   0.006074  -0.049875   0.333580   5.121384
     7  C   -0.000000   0.000053   0.000106  -0.000441  -0.063616   0.326564
     8  C    0.000000   0.000001  -0.000084   0.000254  -0.000323  -0.050083
     9  C    0.000000   0.000000  -0.000003  -0.000076   0.000122   0.006043
    10  C    0.000000  -0.000000   0.000000   0.000001   0.000039   0.000545
    11  C    0.000000   0.000000   0.000001  -0.000078  -0.000100   0.006195
    12  C   -0.000000   0.000001   0.000026   0.000559  -0.000707  -0.045556
    13  C   -0.000000   0.000007   0.000020   0.000101  -0.045751   0.569721
    14  C    0.000000   0.000012  -0.000097  -0.000083  -0.011998  -0.045661
    15  C   -0.000000   0.000004   0.000001   0.000038  -0.000083   0.000137
    16  C    0.000000  -0.000001   0.000000   0.000001  -0.000097   0.000018
    17  C    0.000000  -0.000002  -0.000001   0.000004   0.000012   0.000007
    18  N   -0.000000   0.000000   0.000000  -0.000000   0.000000  -0.000000
    19  C   -0.000000   0.000009   0.000005  -0.000065  -0.000385   0.000420
    20  C   -0.000000   0.000068   0.000026  -0.000730   0.002186  -0.008334
    21  C    0.000000   0.000000   0.000002  -0.000140   0.005778  -0.047191
    22  C   -0.000000  -0.000000  -0.000000   0.000001  -0.000140   0.000470
    23  C   -0.000000   0.000000   0.000000  -0.000000   0.000002  -0.000036
    24  C    0.000000   0.000000   0.000000  -0.000000  -0.000000   0.000022
    25  C    0.000000   0.000000  -0.000000   0.000000   0.000004   0.000360
    26  C   -0.000000  -0.000000  -0.000000   0.000003   0.000001  -0.008067
    27  C    0.004544  -0.026245  -0.046975  -0.036936   0.539910  -0.044804
    28  C   -0.070776   0.538157  -0.048208  -0.046021  -0.035033   0.006227
    29  H    0.343334  -0.025050  -0.009278  -0.000060   0.000003  -0.000000
    30  H    0.343321  -0.024999   0.005510  -0.000183   0.000002  -0.000000
    31  H   -0.007369  -0.043868   0.363181  -0.032934   0.003818  -0.000204
    32  H   -0.000112   0.003920  -0.037955   0.365659  -0.043992  -0.007316
    33  H   -0.000000  -0.000011  -0.000022   0.000234   0.002706  -0.007231
    34  H    0.000000  -0.000000   0.000000   0.000001  -0.000002  -0.000200
    35  H   -0.000000  -0.000000  -0.000000  -0.000000   0.000000   0.000003
    36  H    0.000000  -0.000000   0.000000   0.000001   0.000001  -0.000188
    37  H   -0.000000   0.000000   0.000005   0.000000   0.000070  -0.005564
    38  H   -0.000000   0.000000  -0.000000   0.000000   0.000026   0.000478
    39  H   -0.000000   0.000000   0.000000  -0.000000  -0.000000   0.000001
    40  H   -0.000000   0.000000   0.000000  -0.000000  -0.000000  -0.000000
    41  H   -0.000000   0.000000   0.000000  -0.000000  -0.000000  -0.000000
    42  H    0.000000  -0.000000  -0.000001  -0.000002   0.000003  -0.000007
    43  H   -0.000000   0.000005   0.000135   0.001726   0.000426   0.003039
    44  H   -0.000000  -0.000000   0.000000  -0.000000  -0.000026   0.000541
    45  H    0.000000  -0.000000  -0.000000   0.000000  -0.000000   0.000001
    46  H    0.000000   0.000000  -0.000000  -0.000000   0.000000   0.000000
    47  H   -0.000000  -0.000000   0.000000   0.000000  -0.000000  -0.000006
    48  H   -0.000000   0.000000  -0.000000   0.000001  -0.000189   0.003029
    49  H   -0.000112   0.004037   0.000511   0.005696  -0.044654  -0.005408
    50  H   -0.007351  -0.043885   0.005127   0.000707   0.003907  -0.000193
               7          8          9         10         11         12
     1  N   -0.000000   0.000000   0.000000   0.000000   0.000000  -0.000000
     2  C    0.000053   0.000001   0.000000  -0.000000   0.000000   0.000001
     3  C    0.000106  -0.000084  -0.000003   0.000000   0.000001   0.000026
     4  C   -0.000441   0.000254  -0.000076   0.000001  -0.000078   0.000559
     5  C   -0.063616  -0.000323   0.000122   0.000039  -0.000100  -0.000707
     6  C    0.326564  -0.050083   0.006043   0.000545   0.006195  -0.045556
     7  C    4.823862   0.529905  -0.022977  -0.033510  -0.025588   0.538142
     8  C    0.529905   4.909923   0.514289  -0.043295  -0.044407  -0.043002
     9  C   -0.022977   0.514289   4.849559   0.545091  -0.032104  -0.045659
    10  C   -0.033510  -0.043295   0.545091   4.828562   0.545808  -0.043040
    11  C   -0.025588  -0.044407  -0.032104   0.545808   4.862382   0.503732
    12  C    0.538142  -0.043002  -0.045659  -0.043040   0.503732   4.907575
    13  C   -0.047122   0.000494  -0.000037   0.000022   0.000360  -0.008081
    14  C    0.005771  -0.000140   0.000002  -0.000000   0.000004   0.000001
    15  C   -0.000140   0.000001  -0.000000  -0.000000   0.000000   0.000003
    16  C    0.000002  -0.000000   0.000000   0.000000  -0.000000  -0.000000
    17  C    0.000000  -0.000000   0.000000   0.000000   0.000000  -0.000000
    18  N    0.000000  -0.000000  -0.000000   0.000000   0.000000  -0.000000
    19  C    0.000003   0.000000  -0.000000   0.000000   0.000000   0.000000
    20  C    0.000020   0.000003  -0.000000   0.000000   0.000000   0.000009
    21  C   -0.012452   0.000108  -0.000105   0.000023  -0.000361   0.002213
    22  C    0.000109   0.000038  -0.000001   0.000007  -0.000107  -0.000966
    23  C   -0.000105  -0.000001   0.000000  -0.000000   0.000005   0.000013
    24  C    0.000023   0.000007  -0.000000  -0.000003   0.000014   0.000062
    25  C   -0.000361  -0.000106   0.000005   0.000014   0.000018  -0.000284
    26  C    0.002219  -0.000956   0.000014   0.000061  -0.000283   0.000533
    27  C   -0.000508   0.000527   0.000022   0.000001   0.000002  -0.000061
    28  C   -0.000104  -0.000091   0.000001   0.000000  -0.000000   0.000003
    29  H    0.000000   0.000000   0.000000  -0.000000   0.000000   0.000000
    30  H    0.000000   0.000000   0.000000  -0.000000  -0.000000   0.000000
    31  H   -0.000004   0.000001   0.000000  -0.000000  -0.000000  -0.000001
    32  H    0.002629   0.000240  -0.000023  -0.000007   0.000085   0.002033
    33  H   -0.044597   0.368866  -0.042082   0.004818   0.000277   0.005638
    34  H    0.003720  -0.036731   0.369057  -0.041207   0.004452   0.000852
    35  H    0.000544   0.004903  -0.041481   0.371895  -0.041337   0.004856
    36  H    0.003782   0.000811   0.004483  -0.041209   0.368419  -0.035844
    37  H   -0.045449   0.005713   0.000268   0.004890  -0.041609   0.369383
    38  H   -0.000021  -0.000000   0.000000  -0.000000   0.000000   0.000000
[...]
   321    C   22  px     Ryd( 3p)     0.00350
   322    C   22  py     Val( 2p)     1.05197
   323    C   22  py     Ryd( 3p)     0.00284
   324    C   22  pz     Val( 2p)     1.12113
   325    C   22  pz     Ryd( 3p)     0.00364
   326    C   22  dxy    Ryd( 3d)     0.00046
   327    C   22  dxz    Ryd( 3d)     0.00064
   328    C   22  dyz    Ryd( 3d)     0.00048
   329    C   22  dx2y2  Ryd( 3d)     0.00057
   330    C   22  dz2    Ryd( 3d)     0.00042

   331    C   23  S      Cor( 1S)     1.99911
   332    C   23  S      Val( 2S)     0.96152
   333    C   23  S      Ryd( 3S)     0.00059
   334    C   23  S      Ryd( 4S)     0.00003
   335    C   23  px     Val( 2p)     1.05749
   336    C   23  px     Ryd( 3p)     0.00368
   337    C   23  py     Val( 2p)     1.12072
   338    C   23  py     Ryd( 3p)     0.00353
   339    C   23  pz     Val( 2p)     1.09477
   340    C   23  pz     Ryd( 3p)     0.00347
   341    C   23  dxy    Ryd( 3d)     0.00051
   342    C   23  dxz    Ryd( 3d)     0.00048
   343    C   23  dyz    Ryd( 3d)     0.00062
   344    C   23  dx2y2  Ryd( 3d)     0.00057
   345    C   23  dz2    Ryd( 3d)     0.00048

   346    C   24  S      Cor( 1S)     1.99910
   347    C   24  S      Val( 2S)     0.96131
   348    C   24  S      Ryd( 3S)     0.00054
   349    C   24  S      Ryd( 4S)     0.00003
   350    C   24  px     Val( 2p)     1.15234
   351    C   24  px     Ryd( 3p)     0.00409
   352    C   24  py     Val( 2p)     1.09542
   353    C   24  py     Ryd( 3p)     0.00366
   354    C   24  pz     Val( 2p)     1.05675
   355    C   24  pz     Ryd( 3p)     0.00364
   356    C   24  dxy    Ryd( 3d)     0.00060
   357    C   24  dxz    Ryd( 3d)     0.00047
   358    C   24  dyz    Ryd( 3d)     0.00043
   359    C   24  dx2y2  Ryd( 3d)     0.00045
   360    C   24  dz2    Ryd( 3d)     0.00056

   361    C   25  S      Cor( 1S)     1.99910
   362    C   25  S      Val( 2S)     0.96138
   363    C   25  S      Ryd( 3S)     0.00059
   364    C   25  S      Ryd( 4S)     0.00003
   365    C   25  px     Val( 2p)     1.10143
   366    C   25  px     Ryd( 3p)     0.00390
   367    C   25  py     Val( 2p)     1.05387
   368    C   25  py     Ryd( 3p)     0.00321
   369    C   25  pz     Val( 2p)     1.12371
   370    C   25  pz     Ryd( 3p)     0.00371
   371    C   25  dxy    Ryd( 3d)     0.00045
   372    C   25  dxz    Ryd( 3d)     0.00065
   373    C   25  dyz    Ryd( 3d)     0.00046
   374    C   25  dx2y2  Ryd( 3d)     0.00065
   375    C   25  dz2    Ryd( 3d)     0.00044

   376    C   26  S      Cor( 1S)     1.99903
   377    C   26  S      Val( 2S)     0.95200
   378    C   26  S      Ryd( 3S)     0.00067
   379    C   26  S      Ryd( 4S)     0.00005
   380    C   26  px     Val( 2p)     1.05296
   381    C   26  px     Ryd( 3p)     0.00292
   382    C   26  py     Val( 2p)     1.12379
   383    C   26  py     Ryd( 3p)     0.00341
   384    C   26  pz     Val( 2p)     1.08907
   385    C   26  pz     Ryd( 3p)     0.00357
   386    C   26  dxy    Ryd( 3d)     0.00049
   387    C   26  dxz    Ryd( 3d)     0.00049
   388    C   26  dyz    Ryd( 3d)     0.00059
   389    C   26  dx2y2  Ryd( 3d)     0.00057
   390    C   26  dz2    Ryd( 3d)     0.00048

   391    C   27  S      Cor( 1S)     1.99904
   392    C   27  S      Val( 2S)     0.95394
   393    C   27  S      Ryd( 3S)     0.00073
   394    C   27  S      Ryd( 4S)     0.00005
   395    C   27  px     Val( 2p)     1.03914
   396    C   27  px     Ryd( 3p)     0.00303
   397    C   27  py     Val( 2p)     1.11101
   398    C   27  py     Ryd( 3p)     0.00337
   399    C   27  pz     Val( 2p)     1.08864
   400    C   27  pz     Ryd( 3p)     0.00373
   401    C   27  dxy    Ryd( 3d)     0.00048
   402    C   27  dxz    Ryd( 3d)     0.00052
   403    C   27  dyz    Ryd( 3d)     0.00062
   404    C   27  dx2y2  Ryd( 3d)     0.00061
   405    C   27  dz2    Ryd( 3d)     0.00047

   406    C   28  S      Cor( 1S)     1.99904
   407    C   28  S      Val( 2S)     0.95726
   408    C   28  S      Ryd( 3S)     0.00065
   409    C   28  S      Ryd( 4S)     0.00004
   410    C   28  px     Val( 2p)     1.12506
   411    C   28  px     Ryd( 3p)     0.00375
   412    C   28  py     Val( 2p)     1.05518
   413    C   28  py     Ryd( 3p)     0.00276
   414    C   28  pz     Val( 2p)     1.12889
   415    C   28  pz     Ryd( 3p)     0.00323
   416    C   28  dxy    Ryd( 3d)     0.00041
   417    C   28  dxz    Ryd( 3d)     0.00061
   418    C   28  dyz    Ryd( 3d)     0.00049
   419    C   28  dx2y2  Ryd( 3d)     0.00059
   420    C   28  dz2    Ryd( 3d)     0.00041

   421    H   29  S      Val( 1S)     0.57399
   422    H   29  S      Ryd( 2S)     0.00112
   423    H   29  px     Ryd( 2p)     0.00026
   424    H   29  py     Ryd( 2p)     0.00042
   425    H   29  pz     Ryd( 2p)     0.00055

   426    H   30  S      Val( 1S)     0.57380
   427    H   30  S      Ryd( 2S)     0.00109
   428    H   30  px     Ryd( 2p)     0.00047
   429    H   30  py     Ryd( 2p)     0.00039
   430    H   30  pz     Ryd( 2p)     0.00038

   431    H   31  S      Val( 1S)     0.74819
   432    H   31  S      Ryd( 2S)     0.00091
   433    H   31  px     Ryd( 2p)     0.00008
   434    H   31  py     Ryd( 2p)     0.00028
   435    H   31  pz     Ryd( 2p)     0.00023

   436    H   32  S      Val( 1S)     0.74564
   437    H   32  S      Ryd( 2S)     0.00104
   438    H   32  px     Ryd( 2p)     0.00024
   439    H   32  py     Ryd( 2p)     0.00009
   440    H   32  pz     Ryd( 2p)     0.00026

   441    H   33  S      Val( 1S)     0.75860
   442    H   33  S      Ryd( 2S)     0.00102
   443    H   33  px     Ryd( 2p)     0.00023
   444    H   33  py     Ryd( 2p)     0.00010
   445    H   33  pz     Ryd( 2p)     0.00028

   446    H   34  S      Val( 1S)     0.75807
   447    H   34  S      Ryd( 2S)     0.00085
   448    H   34  px     Ryd( 2p)     0.00009
   449    H   34  py     Ryd( 2p)     0.00029
   450    H   34  pz     Ryd( 2p)     0.00022

   451    H   35  S      Val( 1S)     0.76047
   452    H   35  S      Ryd( 2S)     0.00083
   453    H   35  px     Ryd( 2p)     0.00032
   454    H   35  py     Ryd( 2p)     0.00020
   455    H   35  pz     Ryd( 2p)     0.00009

   456    H   36  S      Val( 1S)     0.75875
   457    H   36  S      Ryd( 2S)     0.00087
   458    H   36  px     Ryd( 2p)     0.00022
   459    H   36  py     Ryd( 2p)     0.00010
   460    H   36  pz     Ryd( 2p)     0.00028

   461    H   37  S      Val( 1S)     0.75687
   462    H   37  S      Ryd( 2S)     0.00107
   463    H   37  px     Ryd( 2p)     0.00009
   464    H   37  py     Ryd( 2p)     0.00030
   465    H   37  pz     Ryd( 2p)     0.00021

   466    H   38  S      Val( 1S)     0.74564
   467    H   38  S      Ryd( 2S)     0.00104
   468    H   38  px     Ryd( 2p)     0.00024
   469    H   38  py     Ryd( 2p)     0.00009
   470    H   38  pz     Ryd( 2p)     0.00026

   471    H   39  S      Val( 1S)     0.74819
   472    H   39  S      Ryd( 2S)     0.00091
   473    H   39  px     Ryd( 2p)     0.00008
   474    H   39  py     Ryd( 2p)     0.00028
   475    H   39  pz     Ryd( 2p)     0.00023

   476    H   40  S      Val( 1S)     0.57399
   477    H   40  S      Ryd( 2S)     0.00112
   478    H   40  px     Ryd( 2p)     0.00026
   479    H   40  py     Ryd( 2p)     0.00042
   480    H   40  pz     Ryd( 2p)     0.00055

   481    H   41  S      Val( 1S)     0.57380
   482    H   41  S      Ryd( 2S)     0.00109
   483    H   41  px     Ryd( 2p)     0.00047
   484    H   41  py     Ryd( 2p)     0.00039
   485    H   41  pz     Ryd( 2p)     0.00038

   486    H   42  S      Val( 1S)     0.74911
   487    H   42  S      Ryd( 2S)     0.00097
   488    H   42  px     Ryd( 2p)     0.00021
   489    H   42  py     Ryd( 2p)     0.00009
   490    H   42  pz     Ryd( 2p)     0.00028

   491    H   43  S      Val( 1S)     0.74578
   492    H   43  S      Ryd( 2S)     0.00101
   493    H   43  px     Ryd( 2p)     0.00008
   494    H   43  py     Ryd( 2p)     0.00029
   495    H   43  pz     Ryd( 2p)     0.00022

   496    H   44  S      Val( 1S)     0.75860
   497    H   44  S      Ryd( 2S)     0.00102
   498    H   44  px     Ryd( 2p)     0.00023
   499    H   44  py     Ryd( 2p)     0.00010
   500    H   44  pz     Ryd( 2p)     0.00028

   501    H   45  S      Val( 1S)     0.75807
   502    H   45  S      Ryd( 2S)     0.00085
   503    H   45  px     Ryd( 2p)     0.00009
   504    H   45  py     Ryd( 2p)     0.00029
   505    H   45  pz     Ryd( 2p)     0.00022

   506    H   46  S      Val( 1S)     0.76047
   507    H   46  S      Ryd( 2S)     0.00083
   508    H   46  px     Ryd( 2p)     0.00032
   509    H   46  py     Ryd( 2p)     0.00020
   510    H   46  pz     Ryd( 2p)     0.00009

   511    H   47  S      Val( 1S)     0.75875
   512    H   47  S      Ryd( 2S)     0.00087
   513    H   47  px     Ryd( 2p)     0.00022
   514    H   47  py     Ryd( 2p)     0.00010
   515    H   47  pz     Ryd( 2p)     0.00028

   516    H   48  S      Val( 1S)     0.75687
   517    H   48  S      Ryd( 2S)     0.00107
   518    H   48  px     Ryd( 2p)     0.00009
   519    H   48  py     Ryd( 2p)     0.00030
   520    H   48  pz     Ryd( 2p)     0.00021

   521    H   49  S      Val( 1S)     0.74578
   522    H   49  S      Ryd( 2S)     0.00101
   523    H   49  px     Ryd( 2p)     0.00008
   524    H   49  py     Ryd( 2p)     0.00029
   525    H   49  pz     Ryd( 2p)     0.00022

   526    H   50  S      Val( 1S)     0.74911
   527    H   50  S      Ryd( 2S)     0.00097
   528    H   50  px     Ryd( 2p)     0.00021
   529    H   50  py     Ryd( 2p)     0.00009
   530    H   50  pz     Ryd( 2p)     0.00028

 WARNING:  1 low occupancy (<1.9990e) core orbital  found on  C    2
           1 low occupancy (<1.9990e) core orbital  found on  C    6
           1 low occupancy (<1.9990e) core orbital  found on  C   13
           1 low occupancy (<1.9990e) core orbital  found on  C   17


 Summary of Natural Population Analysis:                  
                                                          
                                       Natural Population 
                Natural  -----------------------------------------------
    Atom  No    Charge         Core      Valence    Rydberg      Total
 -----------------------------------------------------------------------
      N    1   -0.81079      1.99950     5.79991    0.01138     7.81079
      C    2    0.18089      1.99899     3.80280    0.01732     5.81911
      C    3   -0.27149      1.99904     4.25950    0.01295     6.27149
      C    4   -0.20998      1.99904     4.19767    0.01327     6.20998
      C    5   -0.04596      1.99900     4.03015    0.01680     6.04596
      C    6   -0.07699      1.99888     4.05940    0.01870     6.07699
      C    7   -0.07529      1.99901     4.05911    0.01717     6.07529
      C    8   -0.24810      1.99903     4.23577    0.01331     6.24810
      C    9   -0.24758      1.99911     4.23451    0.01397     6.24758
      C   10   -0.27939      1.99910     4.26583    0.01446     6.27939
      C   11   -0.25358      1.99910     4.24039    0.01408     6.25358
      C   12   -0.23009      1.99903     4.21783    0.01324     6.23009
      C   13   -0.07699      1.99888     4.05940    0.01870     6.07699
      C   14   -0.04596      1.99900     4.03015    0.01680     6.04596
      C   15   -0.20998      1.99904     4.19767    0.01327     6.20998
      C   16   -0.27149      1.99904     4.25950    0.01295     6.27149
      C   17    0.18089      1.99899     3.80280    0.01732     5.81911
      N   18   -0.81079      1.99950     5.79991    0.01138     7.81079
      C   19   -0.27836      1.99904     4.26639    0.01293     6.27836
      C   20   -0.20537      1.99904     4.19273    0.01360     6.20537
      C   21   -0.07529      1.99901     4.05911    0.01717     6.07529
      C   22   -0.24810      1.99903     4.23577    0.01331     6.24810
      C   23   -0.24758      1.99911     4.23450    0.01397     6.24758
      C   24   -0.27939      1.99910     4.26583    0.01446     6.27939
      C   25   -0.25358      1.99910     4.24039    0.01408     6.25358
      C   26   -0.23009      1.99903     4.21782    0.01324     6.23009
      C   27   -0.20538      1.99904     4.19273    0.01360     6.20538
      C   28   -0.27836      1.99904     4.26639    0.01293     6.27836
      H   29    0.42365      0.00000     0.57399    0.00236     0.57635
      H   30    0.42386      0.00000     0.57380    0.00233     0.57614
      H   31    0.25031      0.00000     0.74819    0.00150     0.74969
      H   32    0.25273      0.00000     0.74564    0.00163     0.74727
      H   33    0.23978      0.00000     0.75860    0.00163     0.76022
      H   34    0.24048      0.00000     0.75807    0.00145     0.75952
      H   35    0.23808      0.00000     0.76047    0.00144     0.76192
      H   36    0.23978      0.00000     0.75875    0.00148     0.76022
      H   37    0.24146      0.00000     0.75687    0.00167     0.75854
      H   38    0.25273      0.00000     0.74564    0.00163     0.74727
      H   39    0.25031      0.00000     0.74819    0.00150     0.74969
      H   40    0.42365      0.00000     0.57399    0.00236     0.57635
      H   41    0.42386      0.00000     0.57380    0.00233     0.57614
      H   42    0.24934      0.00000     0.74911    0.00156     0.75066
      H   43    0.25262      0.00000     0.74578    0.00160     0.74738
      H   44    0.23977      0.00000     0.75860    0.00163     0.76023
      H   45    0.24048      0.00000     0.75807    0.00145     0.75952
      H   46    0.23808      0.00000     0.76047    0.00144     0.76192
      H   47    0.23978      0.00000     0.75875    0.00148     0.76022
      H   48    0.24146      0.00000     0.75687    0.00167     0.75854
      H   49    0.25262      0.00000     0.74578    0.00160     0.74738
      H   50    0.24933      0.00000     0.74911    0.00156     0.75067
 =======================================================================
   * Total *   -0.00000     55.97383   135.58249    0.44368   192.00000

                                 Natural Population      
 --------------------------------------------------------
   Core                      55.97383 ( 99.9533% of  56)
   Valence                  135.58249 ( 99.6930% of 136)
   Natural Minimal Basis    191.55632 ( 99.7689% of 192)
   Natural Rydberg Basis      0.44368 (  0.2311% of 192)
 --------------------------------------------------------

    Atom  No          Natural Electron Configuration
 ----------------------------------------------------------------------------
      N    1      [core]2S( 1.36)2p( 4.44)3p( 0.01)
      C    2      [core]2S( 0.85)2p( 2.95)3p( 0.01)
      C    3      [core]2S( 0.96)2p( 3.30)3p( 0.01)
      C    4      [core]2S( 0.95)2p( 3.24)3p( 0.01)
      C    5      [core]2S( 0.88)2p( 3.15)3p( 0.01)
      C    6      [core]2S( 0.85)2p( 3.21)3p( 0.01)
      C    7      [core]2S( 0.88)2p( 3.18)3p( 0.01)
      C    8      [core]2S( 0.95)2p( 3.28)3p( 0.01)
      C    9      [core]2S( 0.96)2p( 3.27)3p( 0.01)
      C   10      [core]2S( 0.96)2p( 3.30)3p( 0.01)
      C   11      [core]2S( 0.96)2p( 3.28)3p( 0.01)
      C   12      [core]2S( 0.95)2p( 3.27)3p( 0.01)
      C   13      [core]2S( 0.85)2p( 3.21)3p( 0.01)
      C   14      [core]2S( 0.88)2p( 3.15)3p( 0.01)
      C   15      [core]2S( 0.95)2p( 3.24)3p( 0.01)
      C   16      [core]2S( 0.96)2p( 3.30)3p( 0.01)
      C   17      [core]2S( 0.85)2p( 2.95)3p( 0.01)
      N   18      [core]2S( 1.36)2p( 4.44)3p( 0.01)
      C   19      [core]2S( 0.96)2p( 3.31)3p( 0.01)
      C   20      [core]2S( 0.95)2p( 3.24)3p( 0.01)
      C   21      [core]2S( 0.88)2p( 3.18)3p( 0.01)
      C   22      [core]2S( 0.95)2p( 3.28)3p( 0.01)
      C   23      [core]2S( 0.96)2p( 3.27)3p( 0.01)
      C   24      [core]2S( 0.96)2p( 3.30)3p( 0.01)
      C   25      [core]2S( 0.96)2p( 3.28)3p( 0.01)
      C   26      [core]2S( 0.95)2p( 3.27)3p( 0.01)
      C   27      [core]2S( 0.95)2p( 3.24)3p( 0.01)
      C   28      [core]2S( 0.96)2p( 3.31)3p( 0.01)
      H   29            1S( 0.57)
      H   30            1S( 0.57)
      H   31            1S( 0.75)
      H   32            1S( 0.75)
      H   33            1S( 0.76)
      H   34            1S( 0.76)
      H   35            1S( 0.76)
      H   36            1S( 0.76)
      H   37            1S( 0.76)
      H   38            1S( 0.75)
      H   39            1S( 0.75)
      H   40            1S( 0.57)
      H   41            1S( 0.57)
      H   42            1S( 0.75)
      H   43            1S( 0.75)
      H   44            1S( 0.76)
      H   45            1S( 0.76)
      H   46            1S( 0.76)
      H   47            1S( 0.76)
      H   48            1S( 0.76)
      H   49            1S( 0.75)
      H   50            1S( 0.75)


 NBO analysis skipped by request.
 1\1\GINC-DRG2-W002\SP\RB3LYP TD-FC\6-31G(d,p)\C26H22N2\QDUEZ\17-Jul-20
 24\0\\# TD(NStates=10, Root=1) B3LYP/6-31G** SCRF=(Solvent=water) volu
 me pop=NPA density=current Geom=AllCheck Guess=Read\\FZIHVNZJLMYTFH-QP
 LCGJKRSA-N_conf_0\\0,1\N,0,4.4431315754,-2.2836426312,3.0100271773\C,0
 ,3.4568209771,-1.60561607,2.2972421411\C,0,3.1419634556,-0.265854758,2
 .5919234882\C,0,2.2076294115,0.4273869151,1.8298136218\C,0,1.527254623
 2,-0.1795044968,0.7581472131\C,0,0.5470377159,0.5834894641,-0.06706489
 14\C,0,1.000349121,1.9484396872,-0.4789143375\C,0,2.2756287618,2.14350
 40449,-1.0398041534\C,0,2.7139418864,3.4163098964,-1.4037286621\C,0,1.
 8951058471,4.5290962309,-1.1933451408\C,0,0.6349453024,4.3549891482,-0
 .6164420617\C,0,0.193534109,3.079447611,-0.263683687\C,0,-0.6759971156
 ,0.0831142895,-0.4246888099\C,0,-1.2743032207,-1.1283021606,0.20655339
 45\C,0,-1.8774690169,-2.1339033721,-0.5710404265\C,0,-2.4605071002,-3.
 2567740812,0.0065443343\C,0,-2.4860163929,-3.4133028237,1.4050365156\N
 ,0,-3.1311942719,-4.4988533505,1.9931837681\C,0,-1.90426478,-2.4025837
 738,2.1940363272\C,0,-1.3137093854,-1.2914395237,1.6033436149\C,0,-1.5
 160436426,0.7175568278,-1.4877072826\C,0,-2.8798920386,0.9804915653,-1
 .2646200608\C,0,-3.6744555182,1.5495202745,-2.2593411064\C,0,-3.128594
 5336,1.8479373942,-3.5107522328\C,0,-1.7813866177,1.5719140792,-3.7556
 542194\C,0,-0.9852175206,1.0133340188,-2.7554584817\C,0,1.8566632518,-
 1.516026579,0.4676511754\C,0,2.7976565763,-2.2165549544,1.2133763089\H
 ,0,4.6076505313,-1.9388281104,3.9470307628\H,0,4.3646691128,-3.2924338
 992,2.9968838122\H,0,3.6395066487,0.2299978279,3.4216129841\H,0,1.9906
 817232,1.4620420781,2.0794804318\H,0,2.9220705111,1.2853081628,-1.1976
 239123\H,0,3.697121147,3.5401624628,-1.8489423198\H,0,2.2388334071,5.5
 217140217,-1.4691144928\H,0,-0.0041036458,5.2144605469,-0.434306389\H,
 0,-0.784709932,2.9526089613,0.1887918364\H,0,-1.8787447739,-2.04004675
 36,-1.6532141255\H,0,-2.9060144456,-4.0212937472,-0.6249907917\H,0,-3.
 203127769,-5.3219614499,1.4090108865\H,0,-2.8121130023,-4.7342424841,2
 .9241875604\H,0,-1.926913766,-2.4914010397,3.2772901922\H,0,-0.8745399
 264,-0.528082293,2.2376558061\H,0,-3.3143063878,0.742563312,-0.2981997
 204\H,0,-4.7217354495,1.7571454055,-2.0586107661\H,0,-3.748608584,2.28
 37366771,-4.2886654688\H,0,-1.3499406458,1.7856937576,-4.7295128783\H,
 0,0.0594018522,0.79693969,-2.9547766313\H,0,1.3659473042,-2.0132252301
 ,-0.3629670908\H,0,3.036364631,-3.2450307686,0.9543467878\\Version=ES6
 4L-G16RevA.03\State=1-A\HF=-1113.5700056\RMSD=6.388e-09\Dipole=0.80490
 86,-4.1614924,3.0698162\Quadrupole=-8.2660177,8.7757624,-0.5097447,0.1
 014714,6.9320433,-12.0530499\PG=C01 [X(C26H22N2)]\\@


 I HAVE NOT FAILED, I HAVE ONLY DISCOVERED 10,000
 WAYS THAT DIDN'T WORK.  -- THOMAS A. EDISON
 Job cpu time:       0 days  3 hours 23 minutes 11.6 seconds.
 Elapsed time:       0 days  1 hours  7 minutes 54.3 seconds.
 File lengths (MBytes):  RWF=   2159 Int=      0 D2E=      0 Chk=    135 Scr=      1
 Normal termination of Gaussian 16 at Wed Jul 17 21:41:51 2024.
