 Entering Gaussian System, Link 0=g16
 Initial command:
 /opt/sw/arch/manual/gaussian/G16_A03/g16/l1.exe "/scratch/1380963/Gau-91422.inp" -scrdir="/scratch/1380963/"
 Entering Link 1 = /opt/sw/arch/manual/gaussian/G16_A03/g16/l1.exe PID=     91423.
  
 Copyright (c) 1988,1990,1992,1993,1995,1998,2003,2009,2016,
            Gaussian, Inc.  All Rights Reserved.
  
 This is part of the Gaussian(R) 16 program.  It is based on
 the Gaussian(R) 09 system (copyright 2009, Gaussian, Inc.),
 the Gaussian(R) 03 system (copyright 2003, Gaussian, Inc.),
 the Gaussian(R) 98 system (copyright 1998, Gaussian, Inc.),
 the Gaussian(R) 94 system (copyright 1995, Gaussian, Inc.),
 the Gaussian 92(TM) system (copyright 1992, Gaussian, Inc.),
 the Gaussian 90(TM) system (copyright 1990, Gaussian, Inc.),
 the Gaussian 88(TM) system (copyright 1988, Gaussian, Inc.),
 the Gaussian 86(TM) system (copyright 1986, Carnegie Mellon
 University), and the Gaussian 82(TM) system (copyright 1983,
 Carnegie Mellon University). Gaussian is a federally registered
 trademark of Gaussian, Inc.
  
 This software contains proprietary and confidential information,
 including trade secrets, belonging to Gaussian, Inc.
  
 This software is provided under written license and may be
 used, copied, transmitted, or stored only in accord with that
 written license.
  
 The following legend is applicable only to US Government
 contracts under FAR:
  
                    RESTRICTED RIGHTS LEGEND
  
 Use, reproduction and disclosure by the US Government is
 subject to restrictions as set forth in subparagraphs (a)
 and (c) of the Commercial Computer Software - Restricted
 Rights clause in FAR 52.227-19.
  
 Gaussian, Inc.
 340 Quinnipiac St., Bldg. 40, Wallingford CT 06492
  
  
 ---------------------------------------------------------------
 Warning -- This program may not be used in any manner that
 competes with the business of Gaussian, Inc. or will provide
 assistance to any competitor of Gaussian, Inc.  The licensee
 of this program is prohibited from giving any competitor of
 Gaussian, Inc. access to this program.  By using this program,
 the user acknowledges that Gaussian, Inc. is engaged in the
 business of creating and licensing software in the field of
 computational chemistry and represents and warrants to the
 licensee that it is not a competitor of Gaussian, Inc. and that
 it will not use this program in any manner prohibited above.
 ---------------------------------------------------------------
  

 Cite this work as:
 Gaussian 16, Revision A.03,
 M. J. Frisch, G. W. Trucks, H. B. Schlegel, G. E. Scuseria, 
 M. A. Robb, J. R. Cheeseman, G. Scalmani, V. Barone, 
 G. A. Petersson, H. Nakatsuji, X. Li, M. Caricato, A. V. Marenich, 
 J. Bloino, B. G. Janesko, R. Gomperts, B. Mennucci, H. P. Hratchian, 
 J. V. Ortiz, A. F. Izmaylov, J. L. Sonnenberg, D. Williams-Young, 
 F. Ding, F. Lipparini, F. Egidi, J. Goings, B. Peng, A. Petrone, 
 T. Henderson, D. Ranasinghe, V. G. Zakrzewski, J. Gao, N. Rega, 
 G. Zheng, W. Liang, M. Hada, M. Ehara, K. Toyota, R. Fukuda, 
 J. Hasegawa, M. Ishida, T. Nakajima, Y. Honda, O. Kitao, H. Nakai, 
 T. Vreven, K. Throssell, J. A. Montgomery, Jr., J. E. Peralta, 
 F. Ogliaro, M. J. Bearpark, J. J. Heyd, E. N. Brothers, K. N. Kudin, 
 V. N. Staroverov, T. A. Keith, R. Kobayashi, J. Normand, 
 K. Raghavachari, A. P. Rendell, J. C. Burant, S. S. Iyengar, 
 J. Tomasi, M. Cossi, J. M. Millam, M. Klene, C. Adamo, R. Cammi, 
 J. W. Ochterski, R. L. Martin, K. Morokuma, O. Farkas, 
 J. B. Foresman, and D. J. Fox, Gaussian, Inc., Wallingford CT, 2016.
 
 ******************************************
 Gaussian 16:  ES64L-G16RevA.03 25-Dec-2016
                18-Jul-2024 
 ******************************************
 %nprocshared=10
 Will use up to   10 processors via shared memory.
 %mem=20GB
 %Chk=PICLBAFTFYTURY-HQZQWKOLSA-N_conf_2_0.chk
 -------------------------------------------------------
 # opt=CalcFc B3LYP/6-31G** SCRF=(Solvent=water) scf=xqc
 -------------------------------------------------------
 1/10=4,18=20,19=15,26=3,38=1/1,3;
 2/9=110,12=2,17=6,18=5,40=1/2;
 3/5=1,6=6,7=101,11=2,25=1,30=1,70=2201,71=2,72=1,74=-5,140=1/1,2,3;
 4//1;
 5/5=2,8=3,13=1,38=5,53=1/2,8;
 8/6=4,10=90,11=11/1;
 11/6=1,8=1,9=11,15=111,16=1/1,2,10;
 10/6=1,13=1/2;
 6/7=2,8=2,9=2,10=2,28=1/1;
 7/10=1,18=20,25=1/1,2,3,16;
 1/10=4,18=20,19=15,26=3/3(2);
 2/9=110/2;
 99//99;
 2/9=110/2;
 3/5=1,6=6,7=101,11=2,25=1,30=1,70=2205,71=1,72=1,74=-5/1,2,3;
 4/5=5,16=3,69=1/1;
 5/5=2,8=3,13=1,38=5,53=1/2,8;
 7//1,2,3,16;
 1/18=20,19=15,26=3/3(-5);
 2/9=110/2;
 6/7=2,8=2,9=2,10=2,19=2,28=1/1;
 99/9=1/99;
 ----------------------------------
 PICLBAFTFYTURY-HQZQWKOLSA-N_conf_2
 ----------------------------------
 Symbolic Z-matrix:
 Charge =  0 Multiplicity = 1
 C                    -7.78469   1.4647    0.17152 
 C                    -6.89812   1.01446  -0.98378 
 C                    -5.99238  -0.20389  -0.69992 
 N                    -5.03445   0.14313   0.35977 
 C                    -3.87881  -0.75927   0.48547 
 C                    -3.1035   -0.42727   1.77861 
 C                    -1.95897   0.54521   1.51882 
 C                    -0.88545  -0.08858   0.60819 
 C                    -0.01885   1.02175  -0.02946 
 C                     1.48183   0.69508  -0.2072 
 C                     2.22435   0.59493   1.14438 
 C                     2.96218  -0.72596   1.35009 
 C                     3.8295   -1.17581   0.16103 
 N                     5.26942  -0.88409   0.27174 
 C                     5.65024   0.53412   0.32967 
 C                     6.0496    0.90191   1.76044 
 C                     6.79442   0.84138  -0.66402 
 C                     8.108     0.11303  -0.4078 
 C                     3.25213  -0.77162  -1.20934 
 C                     1.75211  -0.50428  -1.12624 
 C                    -1.52153  -1.02513  -0.44378 
 C                    -2.97021  -0.65885  -0.75625 
 C                    -6.81812  -1.44568  -0.34832 
 H                    -7.19532   1.75388   1.04714 
 H                    -8.37214   2.33716  -0.13216 
 H                    -8.48836   0.68123   0.46775 
 H                    -6.27234   1.86184  -1.29308 
 H                    -7.54136   0.78334  -1.84222 
 H                    -5.45898  -0.40294  -1.63681 
 H                    -5.52796   0.18843   1.25121 
 H                    -4.23291  -1.79109   0.59472 
 H                    -3.76893  -0.0245    2.55179 
 H                    -2.69397  -1.3561    2.19873 
 H                    -2.35832   1.46486   1.07123 
 H                    -1.49574   0.83548   2.46981 
 H                    -0.24479  -0.71093   1.24564 
 H                    -0.07425   1.92742   0.58939 
 H                    -0.4408    1.30413  -1.00261 
 H                     1.90541   1.5753   -0.71489 
 H                     2.93802   1.42447   1.21413 
 H                     1.53462   0.74515   1.98393 
 H                     2.20444  -1.50302   1.52706 
 H                     3.54693  -0.69719   2.27621 
 H                     3.78536  -2.27471   0.19254 
 H                     5.73725  -1.33074  -0.5163 
 H                     4.81862   1.18128   0.0327 
 H                     6.4331    1.92735   1.80251 
 H                     6.82569   0.23603   2.15296 
 H                     5.19577   0.84797   2.44132 
 H                     6.45672   0.60695  -1.68175 
 H                     6.99083   1.92042  -0.65156 
 H                     8.5408    0.39318   0.55599 
 H                     8.83548   0.37794  -1.18212 
 H                     7.98274  -0.97205  -0.42987 
 H                     3.44781  -1.57037  -1.93581 
 H                     3.74276   0.12406  -1.60924 
 H                     1.3611   -0.29674  -2.12923 
 H                     1.25     -1.40764  -0.76368 
 H                    -0.94574  -1.02932  -1.37456 
 H                    -1.49519  -2.05518  -0.06391 
 H                    -2.98974   0.35821  -1.17092 
 H                    -3.34881  -1.32182  -1.54379 
 H                    -6.19592  -2.34681  -0.33887 
 H                    -7.29129  -1.35743   0.63567 
 H                    -7.60926  -1.60676  -1.0885 
 

 GradGradGradGradGradGradGradGradGradGradGradGradGradGradGradGradGradGrad
 Berny optimization.
 Initialization pass.
                           ----------------------------
                           !    Initial Parameters    !
                           ! (Angstroms and Degrees)  !
 --------------------------                            --------------------------
 ! Name  Definition              Value          Derivative Info.                !
 --------------------------------------------------------------------------------
 ! R1    R(1,2)                  1.5243         calculate D2E/DX2 analytically  !
 ! R2    R(1,24)                 1.0944         calculate D2E/DX2 analytically  !
 ! R3    R(1,25)                 1.0948         calculate D2E/DX2 analytically  !
 ! R4    R(1,26)                 1.0939         calculate D2E/DX2 analytically  !
 ! R5    R(2,3)                  1.5444         calculate D2E/DX2 analytically  !
 ! R6    R(2,27)                 1.0979         calculate D2E/DX2 analytically  !
 ! R7    R(2,28)                 1.0973         calculate D2E/DX2 analytically  !
 ! R8    R(3,4)                  1.47           calculate D2E/DX2 analytically  !
 ! R9    R(3,23)                 1.5322         calculate D2E/DX2 analytically  !
 ! R10   R(3,29)                 1.0963         calculate D2E/DX2 analytically  !
 ! R11   R(4,5)                  1.4716         calculate D2E/DX2 analytically  !
 ! R12   R(4,30)                 1.0199         calculate D2E/DX2 analytically  !
 ! R13   R(5,6)                  1.5439         calculate D2E/DX2 analytically  !
 ! R14   R(5,22)                 1.5419         calculate D2E/DX2 analytically  !
 ! R15   R(5,31)                 1.0963         calculate D2E/DX2 analytically  !
 ! R16   R(6,7)                  1.5242         calculate D2E/DX2 analytically  !
 ! R17   R(6,32)                 1.0967         calculate D2E/DX2 analytically  !
 ! R18   R(6,33)                 1.0986         calculate D2E/DX2 analytically  !
 ! R19   R(7,8)                  1.5438         calculate D2E/DX2 analytically  !
 ! R20   R(7,34)                 1.098          calculate D2E/DX2 analytically  !
 ! R21   R(7,35)                 1.0969         calculate D2E/DX2 analytically  !
 ! R22   R(8,9)                  1.5461         calculate D2E/DX2 analytically  !
 ! R23   R(8,21)                 1.5454         calculate D2E/DX2 analytically  !
 ! R24   R(8,36)                 1.0973         calculate D2E/DX2 analytically  !
 ! R25   R(9,10)                 1.5461         calculate D2E/DX2 analytically  !
 ! R26   R(9,37)                 1.0983         calculate D2E/DX2 analytically  !
 ! R27   R(9,38)                 1.0976         calculate D2E/DX2 analytically  !
 ! R28   R(10,11)                1.5454         calculate D2E/DX2 analytically  !
 ! R29   R(10,20)                1.535          calculate D2E/DX2 analytically  !
 ! R30   R(10,39)                1.1009         calculate D2E/DX2 analytically  !
 ! R31   R(11,12)                1.5269         calculate D2E/DX2 analytically  !
 ! R32   R(11,40)                1.0965         calculate D2E/DX2 analytically  !
 ! R33   R(11,41)                1.0969         calculate D2E/DX2 analytically  !
 ! R34   R(12,13)                1.539          calculate D2E/DX2 analytically  !
 ! R35   R(12,42)                1.0997         calculate D2E/DX2 analytically  !
 ! R36   R(12,43)                1.0957         calculate D2E/DX2 analytically  !
 ! R37   R(13,14)                1.4733         calculate D2E/DX2 analytically  !
 ! R38   R(13,19)                1.541          calculate D2E/DX2 analytically  !
 ! R39   R(13,44)                1.1002         calculate D2E/DX2 analytically  !
 ! R40   R(14,15)                1.4696         calculate D2E/DX2 analytically  !
 ! R41   R(14,45)                1.0195         calculate D2E/DX2 analytically  !
 ! R42   R(15,16)                1.5303         calculate D2E/DX2 analytically  !
 ! R43   R(15,17)                1.5463         calculate D2E/DX2 analytically  !
 ! R44   R(15,46)                1.0948         calculate D2E/DX2 analytically  !
 ! R45   R(16,47)                1.0956         calculate D2E/DX2 analytically  !
 ! R46   R(16,48)                1.0954         calculate D2E/DX2 analytically  !
 ! R47   R(16,49)                1.0934         calculate D2E/DX2 analytically  !
 ! R48   R(17,18)                1.5237         calculate D2E/DX2 analytically  !
 ! R49   R(17,50)                1.0976         calculate D2E/DX2 analytically  !
 ! R50   R(17,51)                1.0968         calculate D2E/DX2 analytically  !
 ! R51   R(18,52)                1.093          calculate D2E/DX2 analytically  !
 ! R52   R(18,53)                1.095          calculate D2E/DX2 analytically  !
 ! R53   R(18,54)                1.0925         calculate D2E/DX2 analytically  !
 ! R54   R(19,20)                1.5259         calculate D2E/DX2 analytically  !
 ! R55   R(19,55)                1.0973         calculate D2E/DX2 analytically  !
 ! R56   R(19,56)                1.0968         calculate D2E/DX2 analytically  !
 ! R57   R(20,57)                1.0963         calculate D2E/DX2 analytically  !
 ! R58   R(20,58)                1.0953         calculate D2E/DX2 analytically  !
 ! R59   R(21,22)                1.5266         calculate D2E/DX2 analytically  !
 ! R60   R(21,59)                1.0945         calculate D2E/DX2 analytically  !
 ! R61   R(21,60)                1.0982         calculate D2E/DX2 analytically  !
 ! R62   R(22,61)                1.0985         calculate D2E/DX2 analytically  !
 ! R63   R(22,62)                1.0968         calculate D2E/DX2 analytically  !
 ! R64   R(23,63)                1.0951         calculate D2E/DX2 analytically  !
 ! R65   R(23,64)                1.0954         calculate D2E/DX2 analytically  !
 ! R66   R(23,65)                1.0953         calculate D2E/DX2 analytically  !
 ! A1    A(2,1,24)             111.7921         calculate D2E/DX2 analytically  !
 ! A2    A(2,1,25)             109.7099         calculate D2E/DX2 analytically  !
 ! A3    A(2,1,26)             111.5813         calculate D2E/DX2 analytically  !
 ! A4    A(24,1,25)            107.4782         calculate D2E/DX2 analytically  !
 ! A5    A(24,1,26)            108.6019         calculate D2E/DX2 analytically  !
 ! A6    A(25,1,26)            107.5            calculate D2E/DX2 analytically  !
 ! A7    A(1,2,3)              115.773          calculate D2E/DX2 analytically  !
 ! A8    A(1,2,27)             108.4856         calculate D2E/DX2 analytically  !
 ! A9    A(1,2,28)             108.3127         calculate D2E/DX2 analytically  !
 ! A10   A(3,2,27)             109.0489         calculate D2E/DX2 analytically  !
 ! A11   A(3,2,28)             108.7484         calculate D2E/DX2 analytically  !
 ! A12   A(27,2,28)            106.0393         calculate D2E/DX2 analytically  !
 ! A13   A(2,3,4)              109.1735         calculate D2E/DX2 analytically  !
 ! A14   A(2,3,23)             111.4366         calculate D2E/DX2 analytically  !
 ! A15   A(2,3,29)             105.7529         calculate D2E/DX2 analytically  !
 ! A16   A(4,3,23)             112.1533         calculate D2E/DX2 analytically  !
 ! A17   A(4,3,29)             109.9902         calculate D2E/DX2 analytically  !
 ! A18   A(23,3,29)            108.1297         calculate D2E/DX2 analytically  !
 ! A19   A(3,4,5)              115.3752         calculate D2E/DX2 analytically  !
 ! A20   A(3,4,30)             108.9793         calculate D2E/DX2 analytically  !
 ! A21   A(5,4,30)             109.4243         calculate D2E/DX2 analytically  !
 ! A22   A(4,5,6)              109.5139         calculate D2E/DX2 analytically  !
 ! A23   A(4,5,22)             110.7337         calculate D2E/DX2 analytically  !
 ! A24   A(4,5,31)             109.3899         calculate D2E/DX2 analytically  !
 ! A25   A(6,5,22)             111.3828         calculate D2E/DX2 analytically  !
 ! A26   A(6,5,31)             106.3265         calculate D2E/DX2 analytically  !
 ! A27   A(22,5,31)            109.3824         calculate D2E/DX2 analytically  !
 ! A28   A(5,6,7)              111.81           calculate D2E/DX2 analytically  !
 ! A29   A(5,6,32)             111.3935         calculate D2E/DX2 analytically  !
 ! A30   A(5,6,33)             109.0078         calculate D2E/DX2 analytically  !
 ! A31   A(7,6,32)             109.9654         calculate D2E/DX2 analytically  !
 ! A32   A(7,6,33)             108.9468         calculate D2E/DX2 analytically  !
 ! A33   A(32,6,33)            105.4904         calculate D2E/DX2 analytically  !
 ! A34   A(6,7,8)              111.1473         calculate D2E/DX2 analytically  !
 ! A35   A(6,7,34)             109.3157         calculate D2E/DX2 analytically  !
 ! A36   A(6,7,35)             109.7657         calculate D2E/DX2 analytically  !
 ! A37   A(8,7,34)             110.8741         calculate D2E/DX2 analytically  !
 ! A38   A(8,7,35)             109.0485         calculate D2E/DX2 analytically  !
 ! A39   A(34,7,35)            106.5804         calculate D2E/DX2 analytically  !
 ! A40   A(7,8,9)              109.7678         calculate D2E/DX2 analytically  !
 ! A41   A(7,8,21)             111.3519         calculate D2E/DX2 analytically  !
 ! A42   A(7,8,36)             107.2272         calculate D2E/DX2 analytically  !
 ! A43   A(9,8,21)             112.6541         calculate D2E/DX2 analytically  !
 ! A44   A(9,8,36)             108.6411         calculate D2E/DX2 analytically  !
 ! A45   A(21,8,36)            106.9792         calculate D2E/DX2 analytically  !
 ! A46   A(8,9,10)             116.0867         calculate D2E/DX2 analytically  !
 ! A47   A(8,9,37)             109.3616         calculate D2E/DX2 analytically  !
 ! A48   A(8,9,38)             109.5686         calculate D2E/DX2 analytically  !
 ! A49   A(10,9,37)            106.7361         calculate D2E/DX2 analytically  !
 ! A50   A(10,9,38)            109.0            calculate D2E/DX2 analytically  !
 ! A51   A(37,9,38)            105.5463         calculate D2E/DX2 analytically  !
 ! A52   A(9,10,11)            112.3041         calculate D2E/DX2 analytically  !
 ! A53   A(9,10,20)            113.8804         calculate D2E/DX2 analytically  !
 ! A54   A(9,10,39)            104.9243         calculate D2E/DX2 analytically  !
 ! A55   A(11,10,20)           112.8556         calculate D2E/DX2 analytically  !
 ! A56   A(11,10,39)           105.6817         calculate D2E/DX2 analytically  !
 ! A57   A(20,10,39)           106.3123         calculate D2E/DX2 analytically  !
 ! A58   A(10,11,12)           113.9583         calculate D2E/DX2 analytically  !
 ! A59   A(10,11,40)           108.6218         calculate D2E/DX2 analytically  !
 ! A60   A(10,11,41)           111.0032         calculate D2E/DX2 analytically  !
 ! A61   A(12,11,40)           109.3525         calculate D2E/DX2 analytically  !
 ! A62   A(12,11,41)           108.6153         calculate D2E/DX2 analytically  !
 ! A63   A(40,11,41)           104.8904         calculate D2E/DX2 analytically  !
 ! A64   A(11,12,13)           114.904          calculate D2E/DX2 analytically  !
 ! A65   A(11,12,42)           107.4574         calculate D2E/DX2 analytically  !
 ! A66   A(11,12,43)           110.4294         calculate D2E/DX2 analytically  !
 ! A67   A(13,12,42)           107.8258         calculate D2E/DX2 analytically  !
 ! A68   A(13,12,43)           111.0984         calculate D2E/DX2 analytically  !
 ! A69   A(42,12,43)           104.4936         calculate D2E/DX2 analytically  !
 ! A70   A(12,13,14)           115.7762         calculate D2E/DX2 analytically  !
 ! A71   A(12,13,19)           113.5318         calculate D2E/DX2 analytically  !
 ! A72   A(12,13,44)           104.3127         calculate D2E/DX2 analytically  !
 ! A73   A(14,13,19)           112.3997         calculate D2E/DX2 analytically  !
 ! A74   A(14,13,44)           103.5804         calculate D2E/DX2 analytically  !
 ! A75   A(19,13,44)           105.8075         calculate D2E/DX2 analytically  !
 ! A76   A(13,14,15)           116.57           calculate D2E/DX2 analytically  !
 ! A77   A(13,14,45)           107.677          calculate D2E/DX2 analytically  !
 ! A78   A(15,14,45)           109.5328         calculate D2E/DX2 analytically  !
 ! A79   A(14,15,16)           109.6586         calculate D2E/DX2 analytically  !
 ! A80   A(14,15,17)           110.9881         calculate D2E/DX2 analytically  !
 ! A81   A(14,15,46)           111.2795         calculate D2E/DX2 analytically  !
 ! A82   A(16,15,17)           111.0983         calculate D2E/DX2 analytically  !
 ! A83   A(16,15,46)           108.0455         calculate D2E/DX2 analytically  !
 ! A84   A(17,15,46)           105.6823         calculate D2E/DX2 analytically  !
 ! A85   A(15,16,47)           110.621          calculate D2E/DX2 analytically  !
 ! A86   A(15,16,48)           111.952          calculate D2E/DX2 analytically  !
 ! A87   A(15,16,49)           111.5035         calculate D2E/DX2 analytically  !
 ! A88   A(47,16,48)           107.8919         calculate D2E/DX2 analytically  !
 ! A89   A(47,16,49)           107.194          calculate D2E/DX2 analytically  !
 ! A90   A(48,16,49)           107.4668         calculate D2E/DX2 analytically  !
 ! A91   A(15,17,18)           115.7774         calculate D2E/DX2 analytically  !
 ! A92   A(15,17,50)           109.0116         calculate D2E/DX2 analytically  !
 ! A93   A(15,17,51)           108.7045         calculate D2E/DX2 analytically  !
 ! A94   A(18,17,50)           108.6064         calculate D2E/DX2 analytically  !
 ! A95   A(18,17,51)           108.2985         calculate D2E/DX2 analytically  !
 ! A96   A(50,17,51)           106.0058         calculate D2E/DX2 analytically  !
 ! A97   A(17,18,52)           111.5385         calculate D2E/DX2 analytically  !
 ! A98   A(17,18,53)           109.7678         calculate D2E/DX2 analytically  !
 ! A99   A(17,18,54)           111.8715         calculate D2E/DX2 analytically  !
 ! A100  A(52,18,53)           107.3658         calculate D2E/DX2 analytically  !
 ! A101  A(52,18,54)           108.5282         calculate D2E/DX2 analytically  !
 ! A102  A(53,18,54)           107.5876         calculate D2E/DX2 analytically  !
 ! A103  A(13,19,20)           111.4593         calculate D2E/DX2 analytically  !
 ! A104  A(13,19,55)           109.3302         calculate D2E/DX2 analytically  !
 ! A105  A(13,19,56)           111.7679         calculate D2E/DX2 analytically  !
 ! A106  A(20,19,55)           109.8093         calculate D2E/DX2 analytically  !
 ! A107  A(20,19,56)           108.4531         calculate D2E/DX2 analytically  !
 ! A108  A(55,19,56)           105.8602         calculate D2E/DX2 analytically  !
 ! A109  A(10,20,19)           110.0349         calculate D2E/DX2 analytically  !
 ! A110  A(10,20,57)           109.6972         calculate D2E/DX2 analytically  !
 ! A111  A(10,20,58)           111.4406         calculate D2E/DX2 analytically  !
 ! A112  A(19,20,57)           109.5078         calculate D2E/DX2 analytically  !
 ! A113  A(19,20,58)           108.9156         calculate D2E/DX2 analytically  !
 ! A114  A(57,20,58)           107.1855         calculate D2E/DX2 analytically  !
 ! A115  A(8,21,22)            112.6132         calculate D2E/DX2 analytically  !
 ! A116  A(8,21,59)            111.3878         calculate D2E/DX2 analytically  !
 ! A117  A(8,21,60)            108.8496         calculate D2E/DX2 analytically  !
 ! A118  A(22,21,59)           109.0309         calculate D2E/DX2 analytically  !
 ! A119  A(22,21,60)           108.5791         calculate D2E/DX2 analytically  !
 ! A120  A(59,21,60)           106.1382         calculate D2E/DX2 analytically  !
 ! A121  A(5,22,21)            112.2552         calculate D2E/DX2 analytically  !
 ! A122  A(5,22,61)            110.7206         calculate D2E/DX2 analytically  !
 ! A123  A(5,22,62)            109.5995         calculate D2E/DX2 analytically  !
 ! A124  A(21,22,61)           108.4382         calculate D2E/DX2 analytically  !
 ! A125  A(21,22,62)           109.238          calculate D2E/DX2 analytically  !
 ! A126  A(61,22,62)           106.4062         calculate D2E/DX2 analytically  !
 ! A127  A(3,23,63)            111.266          calculate D2E/DX2 analytically  !
 ! A128  A(3,23,64)            111.9404         calculate D2E/DX2 analytically  !
 ! A129  A(3,23,65)            110.6944         calculate D2E/DX2 analytically  !
 ! A130  A(63,23,64)           107.696          calculate D2E/DX2 analytically  !
 ! A131  A(63,23,65)           107.17           calculate D2E/DX2 analytically  !
 ! A132  A(64,23,65)           107.8712         calculate D2E/DX2 analytically  !
 ! D1    D(24,1,2,3)            60.1766         calculate D2E/DX2 analytically  !
 ! D2    D(24,1,2,27)          -62.7501         calculate D2E/DX2 analytically  !
 ! D3    D(24,1,2,28)         -177.428          calculate D2E/DX2 analytically  !
 ! D4    D(25,1,2,3)           179.3083         calculate D2E/DX2 analytically  !
 ! D5    D(25,1,2,27)           56.3816         calculate D2E/DX2 analytically  !
 ! D6    D(25,1,2,28)          -58.2963         calculate D2E/DX2 analytically  !
 ! D7    D(26,1,2,3)           -61.6659         calculate D2E/DX2 analytically  !
 ! D8    D(26,1,2,27)          175.4074         calculate D2E/DX2 analytically  !
 ! D9    D(26,1,2,28)           60.7296         calculate D2E/DX2 analytically  !
 ! D10   D(1,2,3,4)            -63.4726         calculate D2E/DX2 analytically  !
 ! D11   D(1,2,3,23)            60.9594         calculate D2E/DX2 analytically  !
 ! D12   D(1,2,3,29)           178.2237         calculate D2E/DX2 analytically  !
 ! D13   D(27,2,3,4)            59.1568         calculate D2E/DX2 analytically  !
 ! D14   D(27,2,3,23)         -176.4111         calculate D2E/DX2 analytically  !
 ! D15   D(27,2,3,29)          -59.1469         calculate D2E/DX2 analytically  !
 ! D16   D(28,2,3,4)           174.3631         calculate D2E/DX2 analytically  !
 ! D17   D(28,2,3,23)          -61.2049         calculate D2E/DX2 analytically  !
 ! D18   D(28,2,3,29)           56.0594         calculate D2E/DX2 analytically  !
 ! D19   D(2,3,4,5)           -163.7289         calculate D2E/DX2 analytically  !
 ! D20   D(2,3,4,30)            72.7422         calculate D2E/DX2 analytically  !
 ! D21   D(23,3,4,5)            72.2605         calculate D2E/DX2 analytically  !
 ! D22   D(23,3,4,30)          -51.2684         calculate D2E/DX2 analytically  !
 ! D23   D(29,3,4,5)           -48.112          calculate D2E/DX2 analytically  !
 ! D24   D(29,3,4,30)         -171.6409         calculate D2E/DX2 analytically  !
 ! D25   D(2,3,23,63)          168.95           calculate D2E/DX2 analytically  !
 ! D26   D(2,3,23,64)          -70.4912         calculate D2E/DX2 analytically  !
 ! D27   D(2,3,23,65)           49.895          calculate D2E/DX2 analytically  !
 ! D28   D(4,3,23,63)          -68.3106         calculate D2E/DX2 analytically  !
 ! D29   D(4,3,23,64)           52.2482         calculate D2E/DX2 analytically  !
 ! D30   D(4,3,23,65)          172.6343         calculate D2E/DX2 analytically  !
 ! D31   D(29,3,23,63)          53.1355         calculate D2E/DX2 analytically  !
 ! D32   D(29,3,23,64)         173.6943         calculate D2E/DX2 analytically  !
 ! D33   D(29,3,23,65)         -65.9195         calculate D2E/DX2 analytically  !
 ! D34   D(3,4,5,6)           -169.9861         calculate D2E/DX2 analytically  !
 ! D35   D(3,4,5,22)            66.8009         calculate D2E/DX2 analytically  !
 ! D36   D(3,4,5,31)           -53.8243         calculate D2E/DX2 analytically  !
 ! D37   D(30,4,5,6)           -46.6921         calculate D2E/DX2 analytically  !
 ! D38   D(30,4,5,22)         -169.9051         calculate D2E/DX2 analytically  !
 ! D39   D(30,4,5,31)           69.4697         calculate D2E/DX2 analytically  !
 ! D40   D(4,5,6,7)            -93.9168         calculate D2E/DX2 analytically  !
 ! D41   D(4,5,6,32)            29.5716         calculate D2E/DX2 analytically  !
 ! D42   D(4,5,6,33)           145.5695         calculate D2E/DX2 analytically  !
 ! D43   D(22,5,6,7)            28.9117         calculate D2E/DX2 analytically  !
 ! D44   D(22,5,6,32)          152.4            calculate D2E/DX2 analytically  !
 ! D45   D(22,5,6,33)          -91.6021         calculate D2E/DX2 analytically  !
 ! D46   D(31,5,6,7)           147.9945         calculate D2E/DX2 analytically  !
 ! D47   D(31,5,6,32)          -88.5171         calculate D2E/DX2 analytically  !
 ! D48   D(31,5,6,33)           27.4808         calculate D2E/DX2 analytically  !
 ! D49   D(4,5,22,21)          153.6666         calculate D2E/DX2 analytically  !
 ! D50   D(4,5,22,61)           32.3229         calculate D2E/DX2 analytically  !
 ! D51   D(4,5,22,62)          -84.7579         calculate D2E/DX2 analytically  !
 ! D52   D(6,5,22,21)           31.5403         calculate D2E/DX2 analytically  !
 ! D53   D(6,5,22,61)          -89.8034         calculate D2E/DX2 analytically  !
 ! D54   D(6,5,22,62)          153.1158         calculate D2E/DX2 analytically  !
 ! D55   D(31,5,22,21)         -85.7036         calculate D2E/DX2 analytically  !
 ! D56   D(31,5,22,61)         152.9526         calculate D2E/DX2 analytically  !
 ! D57   D(31,5,22,62)          35.8718         calculate D2E/DX2 analytically  !
 ! D58   D(5,6,7,8)            -64.9099         calculate D2E/DX2 analytically  !
 ! D59   D(5,6,7,34)            57.8018         calculate D2E/DX2 analytically  !
 ! D60   D(5,6,7,35)           174.3701         calculate D2E/DX2 analytically  !
 ! D61   D(32,6,7,8)           170.7992         calculate D2E/DX2 analytically  !
 ! D62   D(32,6,7,34)          -66.4891         calculate D2E/DX2 analytically  !
 ! D63   D(32,6,7,35)           50.0792         calculate D2E/DX2 analytically  !
 ! D64   D(33,6,7,8)            55.6393         calculate D2E/DX2 analytically  !
 ! D65   D(33,6,7,34)          178.3511         calculate D2E/DX2 analytically  !
 ! D66   D(33,6,7,35)          -65.0807         calculate D2E/DX2 analytically  !
 ! D67   D(6,7,8,9)            160.5041         calculate D2E/DX2 analytically  !
 ! D68   D(6,7,8,21)            35.0576         calculate D2E/DX2 analytically  !
 ! D69   D(6,7,8,36)           -81.6533         calculate D2E/DX2 analytically  !
 ! D70   D(34,7,8,9)            38.6957         calculate D2E/DX2 analytically  !
 ! D71   D(34,7,8,21)          -86.7508         calculate D2E/DX2 analytically  !
 ! D72   D(34,7,8,36)          156.5383         calculate D2E/DX2 analytically  !
 ! D73   D(35,7,8,9)           -78.3542         calculate D2E/DX2 analytically  !
 ! D74   D(35,7,8,21)          156.1992         calculate D2E/DX2 analytically  !
 ! D75   D(35,7,8,36)           39.4883         calculate D2E/DX2 analytically  !
 ! D76   D(7,8,9,10)           143.6549         calculate D2E/DX2 analytically  !
 ! D77   D(7,8,9,37)            22.8646         calculate D2E/DX2 analytically  !
 ! D78   D(7,8,9,38)           -92.3753         calculate D2E/DX2 analytically  !
 ! D79   D(21,8,9,10)          -91.6481         calculate D2E/DX2 analytically  !
 ! D80   D(21,8,9,37)          147.5617         calculate D2E/DX2 analytically  !
 ! D81   D(21,8,9,38)           32.3217         calculate D2E/DX2 analytically  !
 ! D82   D(36,8,9,10)           26.6951         calculate D2E/DX2 analytically  !
 ! D83   D(36,8,9,37)          -94.0951         calculate D2E/DX2 analytically  !
 ! D84   D(36,8,9,38)          150.6649         calculate D2E/DX2 analytically  !
 ! D85   D(7,8,21,22)           25.2459         calculate D2E/DX2 analytically  !
 ! D86   D(7,8,21,59)          148.0995         calculate D2E/DX2 analytically  !
 ! D87   D(7,8,21,60)          -95.2123         calculate D2E/DX2 analytically  !
 ! D88   D(9,8,21,22)          -98.5788         calculate D2E/DX2 analytically  !
 ! D89   D(9,8,21,59)           24.2748         calculate D2E/DX2 analytically  !
 ! D90   D(9,8,21,60)          140.963          calculate D2E/DX2 analytically  !
 ! D91   D(36,8,21,22)         142.1079         calculate D2E/DX2 analytically  !
 ! D92   D(36,8,21,59)         -95.0385         calculate D2E/DX2 analytically  !
 ! D93   D(36,8,21,60)          21.6498         calculate D2E/DX2 analytically  !
 ! D94   D(8,9,10,11)          -68.4784         calculate D2E/DX2 analytically  !
 ! D95   D(8,9,10,20)           61.3685         calculate D2E/DX2 analytically  !
 ! D96   D(8,9,10,39)          177.2108         calculate D2E/DX2 analytically  !
 ! D97   D(37,9,10,11)          53.7088         calculate D2E/DX2 analytically  !
 ! D98   D(37,9,10,20)        -176.4443         calculate D2E/DX2 analytically  !
 ! D99   D(37,9,10,39)         -60.602          calculate D2E/DX2 analytically  !
 ! D100  D(38,9,10,11)         167.2581         calculate D2E/DX2 analytically  !
 ! D101  D(38,9,10,20)         -62.8949         calculate D2E/DX2 analytically  !
 ! D102  D(38,9,10,39)          52.9473         calculate D2E/DX2 analytically  !
 ! D103  D(9,10,11,12)         124.774          calculate D2E/DX2 analytically  !
 ! D104  D(9,10,11,40)        -113.0591         calculate D2E/DX2 analytically  !
 ! D105  D(9,10,11,41)           1.7651         calculate D2E/DX2 analytically  !
 ! D106  D(20,10,11,12)         -5.5986         calculate D2E/DX2 analytically  !
 ! D107  D(20,10,11,40)        116.5683         calculate D2E/DX2 analytically  !
 ! D108  D(20,10,11,41)       -128.6075         calculate D2E/DX2 analytically  !
 ! D109  D(39,10,11,12)       -121.3789         calculate D2E/DX2 analytically  !
 ! D110  D(39,10,11,40)          0.788          calculate D2E/DX2 analytically  !
 ! D111  D(39,10,11,41)        115.6121         calculate D2E/DX2 analytically  !
 ! D112  D(9,10,20,19)        -178.4698         calculate D2E/DX2 analytically  !
 ! D113  D(9,10,20,57)          60.994          calculate D2E/DX2 analytically  !
 ! D114  D(9,10,20,58)         -57.5447         calculate D2E/DX2 analytically  !
 ! D115  D(11,10,20,19)        -48.899          calculate D2E/DX2 analytically  !
 ! D116  D(11,10,20,57)       -169.4352         calculate D2E/DX2 analytically  !
 ! D117  D(11,10,20,58)         72.0261         calculate D2E/DX2 analytically  !
 ! D118  D(39,10,20,19)         66.5039         calculate D2E/DX2 analytically  !
 ! D119  D(39,10,20,57)        -54.0323         calculate D2E/DX2 analytically  !
 ! D120  D(39,10,20,58)       -172.571          calculate D2E/DX2 analytically  !
 ! D121  D(10,11,12,13)         47.7772         calculate D2E/DX2 analytically  !
 ! D122  D(10,11,12,42)        -72.21           calculate D2E/DX2 analytically  !
 ! D123  D(10,11,12,43)        174.3928         calculate D2E/DX2 analytically  !
 ! D124  D(40,11,12,13)        -73.9868         calculate D2E/DX2 analytically  !
 ! D125  D(40,11,12,42)        166.026          calculate D2E/DX2 analytically  !
 ! D126  D(40,11,12,43)         52.6288         calculate D2E/DX2 analytically  !
 ! D127  D(41,11,12,13)        172.0782         calculate D2E/DX2 analytically  !
 ! D128  D(41,11,12,42)         52.091          calculate D2E/DX2 analytically  !
 ! D129  D(41,11,12,43)        -61.3062         calculate D2E/DX2 analytically  !
 ! D130  D(11,12,13,14)         99.015          calculate D2E/DX2 analytically  !
 ! D131  D(11,12,13,19)        -33.1948         calculate D2E/DX2 analytically  !
 ! D132  D(11,12,13,44)       -147.8864         calculate D2E/DX2 analytically  !
 ! D133  D(42,12,13,14)       -141.2017         calculate D2E/DX2 analytically  !
 ! D134  D(42,12,13,19)         86.5886         calculate D2E/DX2 analytically  !
 ! D135  D(42,12,13,44)        -28.1031         calculate D2E/DX2 analytically  !
 ! D136  D(43,12,13,14)        -27.2571         calculate D2E/DX2 analytically  !
 ! D137  D(43,12,13,19)       -159.4669         calculate D2E/DX2 analytically  !
 ! D138  D(43,12,13,44)         85.8415         calculate D2E/DX2 analytically  !
 ! D139  D(12,13,14,15)        -63.3696         calculate D2E/DX2 analytically  !
 ! D140  D(12,13,14,45)        173.1442         calculate D2E/DX2 analytically  !
 ! D141  D(19,13,14,15)         69.3643         calculate D2E/DX2 analytically  !
 ! D142  D(19,13,14,45)        -54.1219         calculate D2E/DX2 analytically  !
 ! D143  D(44,13,14,15)       -176.8902         calculate D2E/DX2 analytically  !
 ! D144  D(44,13,14,45)         59.6236         calculate D2E/DX2 analytically  !
 ! D145  D(12,13,19,20)        -21.6011         calculate D2E/DX2 analytically  !
 ! D146  D(12,13,19,55)       -143.1871         calculate D2E/DX2 analytically  !
 ! D147  D(12,13,19,56)         99.9452         calculate D2E/DX2 analytically  !
 ! D148  D(14,13,19,20)       -155.4289         calculate D2E/DX2 analytically  !
 ! D149  D(14,13,19,55)         82.9851         calculate D2E/DX2 analytically  !
 ! D150  D(14,13,19,56)        -33.8826         calculate D2E/DX2 analytically  !
 ! D151  D(44,13,19,20)         92.1975         calculate D2E/DX2 analytically  !
 ! D152  D(44,13,19,55)        -29.3885         calculate D2E/DX2 analytically  !
 ! D153  D(44,13,19,56)       -146.2562         calculate D2E/DX2 analytically  !
 ! D154  D(13,14,15,16)        105.3114         calculate D2E/DX2 analytically  !
 ! D155  D(13,14,15,17)       -131.5643         calculate D2E/DX2 analytically  !
 ! D156  D(13,14,15,46)        -14.1704         calculate D2E/DX2 analytically  !
 ! D157  D(45,14,15,16)       -132.1642         calculate D2E/DX2 analytically  !
 ! D158  D(45,14,15,17)         -9.0399         calculate D2E/DX2 analytically  !
 ! D159  D(45,14,15,46)        108.3539         calculate D2E/DX2 analytically  !
 ! D160  D(14,15,16,47)        174.2637         calculate D2E/DX2 analytically  !
 ! D161  D(14,15,16,48)         53.8939         calculate D2E/DX2 analytically  !
 ! D162  D(14,15,16,49)        -66.5451         calculate D2E/DX2 analytically  !
 ! D163  D(17,15,16,47)         51.2044         calculate D2E/DX2 analytically  !
 ! D164  D(17,15,16,48)        -69.1654         calculate D2E/DX2 analytically  !
 ! D165  D(17,15,16,49)        170.3956         calculate D2E/DX2 analytically  !
 ! D166  D(46,15,16,47)        -64.2896         calculate D2E/DX2 analytically  !
 ! D167  D(46,15,16,48)        175.3406         calculate D2E/DX2 analytically  !
 ! D168  D(46,15,16,49)         54.9016         calculate D2E/DX2 analytically  !
 ! D169  D(14,15,17,18)        -62.5907         calculate D2E/DX2 analytically  !
 ! D170  D(14,15,17,50)         60.1721         calculate D2E/DX2 analytically  !
 ! D171  D(14,15,17,51)        175.295          calculate D2E/DX2 analytically  !
 ! D172  D(16,15,17,18)         59.7008         calculate D2E/DX2 analytically  !
 ! D173  D(16,15,17,50)       -177.5364         calculate D2E/DX2 analytically  !
 ! D174  D(16,15,17,51)        -62.4135         calculate D2E/DX2 analytically  !
 ! D175  D(46,15,17,18)        176.6494         calculate D2E/DX2 analytically  !
 ! D176  D(46,15,17,50)        -60.5877         calculate D2E/DX2 analytically  !
 ! D177  D(46,15,17,51)         54.5351         calculate D2E/DX2 analytically  !
 ! D178  D(15,17,18,52)        -62.8376         calculate D2E/DX2 analytically  !
 ! D179  D(15,17,18,53)        178.2928         calculate D2E/DX2 analytically  !
 ! D180  D(15,17,18,54)         58.9356         calculate D2E/DX2 analytically  !
 ! D181  D(50,17,18,52)        174.1859         calculate D2E/DX2 analytically  !
 ! D182  D(50,17,18,53)         55.3164         calculate D2E/DX2 analytically  !
 ! D183  D(50,17,18,54)        -64.0408         calculate D2E/DX2 analytically  !
 ! D184  D(51,17,18,52)         59.4923         calculate D2E/DX2 analytically  !
 ! D185  D(51,17,18,53)        -59.3773         calculate D2E/DX2 analytically  !
 ! D186  D(51,17,18,54)       -178.7345         calculate D2E/DX2 analytically  !
 ! D187  D(13,19,20,10)         63.7398         calculate D2E/DX2 analytically  !
 ! D188  D(13,19,20,57)       -175.6099         calculate D2E/DX2 analytically  !
 ! D189  D(13,19,20,58)        -58.6892         calculate D2E/DX2 analytically  !
 ! D190  D(55,19,20,10)       -174.9527         calculate D2E/DX2 analytically  !
 ! D191  D(55,19,20,57)        -54.3024         calculate D2E/DX2 analytically  !
 ! D192  D(55,19,20,58)         62.6182         calculate D2E/DX2 analytically  !
 ! D193  D(56,19,20,10)        -59.7122         calculate D2E/DX2 analytically  !
 ! D194  D(56,19,20,57)         60.9382         calculate D2E/DX2 analytically  !
 ! D195  D(56,19,20,58)        177.8588         calculate D2E/DX2 analytically  !
 ! D196  D(8,21,22,5)          -61.1846         calculate D2E/DX2 analytically  !
 ! D197  D(8,21,22,61)          61.4587         calculate D2E/DX2 analytically  !
 ! D198  D(8,21,22,62)         177.0334         calculate D2E/DX2 analytically  !
 ! D199  D(59,21,22,5)         174.6513         calculate D2E/DX2 analytically  !
 ! D200  D(59,21,22,61)        -62.7054         calculate D2E/DX2 analytically  !
 ! D201  D(59,21,22,62)         52.8693         calculate D2E/DX2 analytically  !
 ! D202  D(60,21,22,5)          59.4289         calculate D2E/DX2 analytically  !
 ! D203  D(60,21,22,61)       -177.9278         calculate D2E/DX2 analytically  !
 ! D204  D(60,21,22,62)        -62.3531         calculate D2E/DX2 analytically  !
 --------------------------------------------------------------------------------
 Trust Radius=3.00D-01 FncErr=1.00D-07 GrdErr=1.00D-06 EigMax=2.50D+02 EigMin=1.00D-04
 Number of steps in this run=    390 maximum allowed number of steps=    390.
 GradGradGradGradGradGradGradGradGradGradGradGradGradGradGradGradGradGrad

 Stoichiometry    C21H42N2
 Framework group  C1[X(C21H42N2)]
 Deg. of freedom   189
 Full point group                 C1      NOp   1
 Largest Abelian subgroup         C1      NOp   1
 Largest concise Abelian subgroup C1      NOp   1
                         Standard orientation:                         
 ---------------------------------------------------------------------
 Center     Atomic      Atomic             Coordinates (Angstroms)
 Number     Number       Type             X           Y           Z
 ---------------------------------------------------------------------
      1          6           0        7.790788    0.945167    1.213847
      2          6           0        6.927360   -0.291854    1.432278
      3          6           0        6.022467   -0.696842    0.248020
      4          7           0        5.043942    0.371920    0.000578
      5          6           0        3.890544   -0.009012   -0.830196
      6          6           0        3.090465    1.254839   -1.212435
      7          6           0        1.946176    1.516273   -0.240107
      8          6           0        0.892292    0.389973   -0.304470
      9          6           0        0.032041    0.404761    0.980120
     10          6           0       -1.463616    0.056626    0.800791
     11          6           0       -2.229899    1.147034    0.018518
     12          6           0       -2.965007    0.625081   -1.213813
     13          6           0       -3.808587   -0.640250   -0.977650
     14          7           0       -5.251645   -0.420165   -0.777977
     15          6           0       -5.640212    0.357625    0.406832
     16          6           0       -6.067063    1.764428   -0.018111
     17          6           0       -6.767736   -0.353206    1.190650
     18          6           0       -8.082234   -0.535152    0.441907
     19          6           0       -3.208533   -1.592096    0.075231
     20          6           0       -1.711549   -1.355633    0.252886
     21          6           0        1.551699   -0.983503   -0.563499
     22          6           0        3.004012   -1.034898   -0.095939
     23          6           0        6.847649   -1.025076   -1.000527
     24          1           0        7.184347    1.833163    1.010416
     25          1           0        8.379456    1.148235    2.114262
     26          1           0        8.492730    0.804964    0.386596
     27          1           0        6.303226   -0.128299    2.320545
     28          1           0        7.587069   -1.134098    1.676177
     29          1           0        5.507015   -1.610603    0.566202
     30          1           0        5.521076    1.166418   -0.425314
     31          1           0        4.247530   -0.444060   -1.771074
     32          1           0        3.739910    2.136576   -1.272235
     33          1           0        2.677860    1.125295   -2.222346
     34          1           0        2.349135    1.617399    0.776244
     35          1           0        1.464494    2.471535   -0.482336
     36          1           0        0.243215    0.600964   -1.163716
     37          1           0        0.071952    1.404295    1.433590
     38          1           0        0.470121   -0.273369    1.723771
     39          1           0       -1.882161    0.071190    1.818909
     40          1           0       -2.948668    1.623856    0.695542
     41          1           0       -1.556154    1.955060   -0.291790
     42          1           0       -2.206882    0.387201   -1.974056
     43          1           0       -3.566500    1.421370   -1.666142
     44          1           0       -3.759781   -1.182092   -1.933965
     45          1           0       -5.703049   -1.333818   -0.749029
     46          1           0       -4.806469    0.454025    1.109807
     47          1           0       -6.456144    2.325023    0.839044
     48          1           0       -6.846922    1.741003   -0.786917
     49          1           0       -5.225404    2.333897   -0.421641
     50          1           0       -6.410620   -1.338839    1.515890
     51          1           0       -6.969487    0.213208    2.108004
     52          1           0       -8.533677    0.426350    0.184221
     53          1           0       -8.796891   -1.072922    1.073617
     54          1           0       -7.951425   -1.114191   -0.475252
     55          1           0       -3.387266   -2.630741   -0.230280
     56          1           0       -3.696139   -1.478559    1.051054
     57          1           0       -1.303514   -2.098638    0.948162
     58          1           0       -1.211752   -1.504881   -0.710214
     59          1           0        0.992818   -1.791809   -0.081626
     60          1           0        1.523427   -1.193068   -1.641126
     61          1           0        3.026168   -0.861942    0.988652
     62          1           0        3.399911   -2.045094   -0.256712
     63          1           0        6.229689   -1.495189   -1.772771
     64          1           0        7.302572   -0.129551   -1.437553
     65          1           0        7.652768   -1.727262   -0.758804
 ---------------------------------------------------------------------
 Rotational constants (GHZ):           0.9094731           0.0666643           0.0659246
 Standard basis: 6-31G(d,p) (6D, 7F)
 There are   555 symmetry adapted cartesian basis functions of A   symmetry.
 There are   555 symmetry adapted basis functions of A   symmetry.
   555 basis functions,   938 primitive gaussians,   555 cartesian basis functions
    91 alpha electrons       91 beta electrons
       nuclear repulsion energy      2035.5810413162 Hartrees.
 NAtoms=   65 NActive=   65 NUniq=   65 SFac= 1.00D+00 NAtFMM=   60 NAOKFM=T Big=T
 Integral buffers will be    131072 words long.
 Raffenetti 2 integral format.
 Two-electron integral symmetry is turned on.
 Force inversion solution in PCM.
 ------------------------------------------------------------------------------
 Polarizable Continuum Model (PCM)
 =================================
 Model                : PCM.
 Atomic radii         : UFF (Universal Force Field).
 Polarization charges : Total charges.
 Charge compensation  : None.
 Solution method      : Matrix inversion.
 Cavity type          : Scaled VdW (van der Waals Surface) (Alpha=1.100).
 Cavity algorithm     : GePol (No added spheres)
                        Default sphere list used, NSphG=   65.
                        Lebedev-Laikov grids with approx.  5.0 points / Ang**2.
                        Smoothing algorithm: York/Karplus (Gamma=1.0000).
                        Polarization charges: spherical gaussians, with
                                              point-specific exponents (IZeta= 3).
                        Self-potential: point-specific (ISelfS= 7).
                        Self-field    : sphere-specific E.n sum rule (ISelfD= 2).
 1st derivatives      : Analytical E(r).r(x)/FMM algorithm (CHGder, D1EAlg=3).
                        Cavity 1st derivative terms included.
 2nd derivatives      : Analytical E(r).r(xy)/FMM algorithm (CHGder, D2EAlg=3).
                        Cavity 2nd derivative terms included.
 Solvent              : Water, Eps=  78.355300 Eps(inf)=   1.777849
 ------------------------------------------------------------------------------
 One-electron integrals computed using PRISM.
 NBasis=   555 RedAO= T EigKep=  1.83D-03  NBF=   555
 NBsUse=   555 1.00D-06 EigRej= -1.00D+00 NBFU=   555
 ExpMin= 1.61D-01 ExpMax= 4.17D+03 ExpMxC= 6.27D+02 IAcc=3 IRadAn=         5 AccDes= 0.00D+00
 Harris functional with IExCor=  402 and IRadAn=       5 diagonalized for initial guess.
 HarFok:  IExCor=  402 AccDes= 0.00D+00 IRadAn=         5 IDoV= 1 UseB2=F ITyADJ=14
 ICtDFT=  3500011 ScaDFX=  1.000000  1.000000  1.000000  1.000000
 FoFCou: FMM=F IPFlag=           0 FMFlag=      100000 FMFlg1=        2001
         NFxFlg=           0 DoJE=T BraDBF=F KetDBF=T FulRan=T
         wScrn=  0.000000 ICntrl=       500 IOpCl=  0 I1Cent=   200000004 NGrid=           0
         NMat0=    1 NMatS0=      1 NMatT0=    0 NMatD0=    1 NMtDS0=    0 NMtDT0=    0
 Petite list used in FoFCou.
 Requested convergence on RMS density matrix=1.00D-08 within  32 cycles.
 Requested convergence on MAX density matrix=1.00D-06.
 Requested convergence on             energy=1.00D-06.
 No special actions if energy rises.
 Inv3:  Mode=1 IEnd=    39967500.
 Iteration    1 A*A^-1 deviation from unit magnitude is 3.33D-15 for    570.
 Iteration    1 A*A^-1 deviation from orthogonality  is 2.44D-15 for   3530   1628.
 Iteration    1 A^-1*A deviation from unit magnitude is 3.33D-15 for   2018.
 Iteration    1 A^-1*A deviation from orthogonality  is 3.31D-14 for   3514   3499.
 Error on total polarization charges =  0.01560
 SCF Done:  E(RB3LYP) =  -935.085052468     A.U. after   11 cycles
            NFock= 11  Conv=0.33D-08     -V/T= 2.0097
 QCSCF skips out because SCF is already converged.
 DoSCS=F DFT=T ScalE2(SS,OS)=  1.000000  1.000000
 Range of M.O.s used for correlation:     1   555
 NBasis=   555 NAE=    91 NBE=    91 NFC=     0 NFV=     0
 NROrb=    555 NOA=    91 NOB=    91 NVA=   464 NVB=   464
 Symmetrizing basis deriv contribution to polar:
 IMax=3 JMax=2 DiffMx= 0.00D+00
 G2DrvN: will do    66 centers at a time, making    1 passes.
 Calling FoFCou, ICntrl=  3107 FMM=T I1Cent=   0 AccDes= 0.00D+00.
 NEqPCM:  Using equilibrium solvation (IEInf=0, Eps=  78.3553, EpsInf=   1.7778)
 G2PCM: DoFxE=T DoFxN=T DoGrad=T DoDP/DQ/DG/TGxP=FFFF NFrqRd=   0 IEInf=0 SqF1=F DoCFld=F IF1Alg=4.
 End of G2Drv F.D. properties file   721 does not exist.
 End of G2Drv F.D. properties file   722 does not exist.
 End of G2Drv F.D. properties file   788 does not exist.
          IDoAtm=11111111111111111111111111111111111111111111111111
          IDoAtm=111111111111111
 NEqPCM:  Using equilibrium solvation (IEInf=0, Eps=  78.3553, EpsInf=   1.7778)
          Differentiating once with respect to nuclear coordinates.
 CalDSu exits because no D1Ps are significant.
          There are   198 degrees of freedom in the 1st order CPHF.  IDoFFX=6 NUNeed=     0.
    192 vectors produced by pass  0 Test12= 4.22D-14 1.00D-09 XBig12= 8.21D-02 4.65D-02.
 AX will form    72 AO Fock derivatives at one time.
    192 vectors produced by pass  1 Test12= 4.22D-14 1.00D-09 XBig12= 7.42D-03 9.69D-03.
    192 vectors produced by pass  2 Test12= 4.22D-14 1.00D-09 XBig12= 5.98D-05 1.13D-03.
    192 vectors produced by pass  3 Test12= 4.22D-14 1.00D-09 XBig12= 9.70D-08 2.78D-05.
    192 vectors produced by pass  4 Test12= 4.22D-14 1.00D-09 XBig12= 9.56D-11 9.88D-07.
     72 vectors produced by pass  5 Test12= 4.22D-14 1.00D-09 XBig12= 6.41D-14 2.88D-08.
      1 vectors produced by pass  6 Test12= 4.22D-14 1.00D-09 XBig12= 5.55D-17 1.39D-09.
 InvSVY:  IOpt=1 It=  1 EMax= 4.44D-16
 Solved reduced A of dimension  1033 with   198 vectors.
 End of Minotr F.D. properties file   721 does not exist.
 End of Minotr F.D. properties file   722 does not exist.
 End of Minotr F.D. properties file   788 does not exist.

 **********************************************************************

            Population analysis using the SCF density.

 **********************************************************************

 Orbital symmetries:
       Occupied  (A) (A) (A) (A) (A) (A) (A) (A) (A) (A) (A) (A)
                 (A) (A) (A) (A) (A) (A) (A) (A) (A) (A) (A) (A)
                 (A) (A) (A) (A) (A) (A) (A) (A) (A) (A) (A) (A)
                 (A) (A) (A) (A) (A) (A) (A) (A) (A) (A) (A) (A)
                 (A) (A) (A) (A) (A) (A) (A) (A) (A) (A) (A) (A)
                 (A) (A) (A) (A) (A) (A) (A) (A) (A) (A) (A) (A)
                 (A) (A) (A) (A) (A) (A) (A) (A) (A) (A) (A) (A)
                 (A) (A) (A) (A) (A) (A) (A)
       Virtual   (A) (A) (A) (A) (A) (A) (A) (A) (A) (A) (A) (A)
                 (A) (A) (A) (A) (A) (A) (A) (A) (A) (A) (A) (A)
                 (A) (A) (A) (A) (A) (A) (A) (A) (A) (A) (A) (A)
                 (A) (A) (A) (A) (A) (A) (A) (A) (A) (A) (A) (A)
                 (A) (A) (A) (A) (A) (A) (A) (A) (A) (A) (A) (A)
                 (A) (A) (A) (A) (A) (A) (A) (A) (A) (A) (A) (A)
                 (A) (A) (A) (A) (A) (A) (A) (A) (A) (A) (A) (A)
                 (A) (A) (A) (A) (A) (A) (A) (A) (A) (A) (A) (A)
                 (A) (A) (A) (A) (A) (A) (A) (A) (A) (A) (A) (A)
                 (A) (A) (A) (A) (A) (A) (A) (A) (A) (A) (A) (A)
                 (A) (A) (A) (A) (A) (A) (A) (A) (A) (A) (A) (A)
                 (A) (A) (A) (A) (A) (A) (A) (A) (A) (A) (A) (A)
                 (A) (A) (A) (A) (A) (A) (A) (A) (A) (A) (A) (A)
                 (A) (A) (A) (A) (A) (A) (A) (A) (A) (A) (A) (A)
                 (A) (A) (A) (A) (A) (A) (A) (A) (A) (A) (A) (A)
                 (A) (A) (A) (A) (A) (A) (A) (A) (A) (A) (A) (A)
                 (A) (A) (A) (A) (A) (A) (A) (A) (A) (A) (A) (A)
                 (A) (A) (A) (A) (A) (A) (A) (A) (A) (A) (A) (A)
                 (A) (A) (A) (A) (A) (A) (A) (A) (A) (A) (A) (A)
                 (A) (A) (A) (A) (A) (A) (A) (A) (A) (A) (A) (A)
                 (A) (A) (A) (A) (A) (A) (A) (A) (A) (A) (A) (A)
                 (A) (A) (A) (A) (A) (A) (A) (A) (A) (A) (A) (A)
                 (A) (A) (A) (A) (A) (A) (A) (A) (A) (A) (A) (A)
                 (A) (A) (A) (A) (A) (A) (A) (A) (A) (A) (A) (A)
                 (A) (A) (A) (A) (A) (A) (A) (A) (A) (A) (A) (A)
                 (A) (A) (A) (A) (A) (A) (A) (A) (A) (A) (A) (A)
                 (A) (A) (A) (A) (A) (A) (A) (A) (A) (A) (A) (A)
                 (A) (A) (A) (A) (A) (A) (A) (A) (A) (A) (A) (A)
                 (A) (A) (A) (A) (A) (A) (A) (A) (A) (A) (A) (A)
                 (A) (A) (A) (A) (A) (A) (A) (A) (A) (A) (A) (A)
                 (A) (A) (A) (A) (A) (A) (A) (A) (A) (A) (A) (A)
                 (A) (A) (A) (A) (A) (A) (A) (A) (A) (A) (A) (A)
                 (A) (A) (A) (A) (A) (A) (A) (A) (A) (A) (A) (A)
                 (A) (A) (A) (A) (A) (A) (A) (A) (A) (A) (A) (A)
                 (A) (A) (A) (A) (A) (A) (A) (A) (A) (A) (A) (A)
                 (A) (A) (A) (A) (A) (A) (A) (A) (A) (A) (A) (A)
                 (A) (A) (A) (A) (A) (A) (A) (A) (A) (A) (A) (A)
                 (A) (A) (A) (A) (A) (A) (A) (A) (A) (A) (A) (A)
                 (A) (A) (A) (A) (A) (A) (A) (A)
 The electronic state is 1-A.
 Alpha  occ. eigenvalues --  -14.30410 -14.30290 -10.20307 -10.20214 -10.20157
 Alpha  occ. eigenvalues --  -10.20062 -10.17591 -10.17583 -10.17521 -10.17191
 Alpha  occ. eigenvalues --  -10.17184 -10.17110 -10.16977 -10.16952 -10.16935
 Alpha  occ. eigenvalues --  -10.16920 -10.16918 -10.16917 -10.16855 -10.16778
 Alpha  occ. eigenvalues --  -10.16767 -10.16570 -10.16254  -0.89746  -0.89634
 Alpha  occ. eigenvalues --   -0.82886  -0.81276  -0.77994  -0.76963  -0.74088
 Alpha  occ. eigenvalues --   -0.73578  -0.73268  -0.71785  -0.70965  -0.69653
 Alpha  occ. eigenvalues --   -0.65193  -0.63641  -0.63074  -0.61606  -0.60790
 Alpha  occ. eigenvalues --   -0.59080  -0.56714  -0.55254  -0.55121  -0.51686
 Alpha  occ. eigenvalues --   -0.51209  -0.49404  -0.48471  -0.47909  -0.46821
 Alpha  occ. eigenvalues --   -0.45777  -0.45191  -0.44956  -0.44357  -0.43255
 Alpha  occ. eigenvalues --   -0.43156  -0.42495  -0.41665  -0.40906  -0.40046
 Alpha  occ. eigenvalues --   -0.39399  -0.39095  -0.38457  -0.37896  -0.37751
 Alpha  occ. eigenvalues --   -0.37598  -0.37008  -0.36872  -0.36799  -0.36747
 Alpha  occ. eigenvalues --   -0.36466  -0.35781  -0.35106  -0.34934  -0.34805
 Alpha  occ. eigenvalues --   -0.33816  -0.33758  -0.32662  -0.32318  -0.32165
 Alpha  occ. eigenvalues --   -0.31869  -0.31351  -0.31098  -0.30197  -0.29868
 Alpha  occ. eigenvalues --   -0.29186  -0.28546  -0.28228  -0.27446  -0.20944
 Alpha  occ. eigenvalues --   -0.20696
 Alpha virt. eigenvalues --    0.06604   0.07905   0.08445   0.09021   0.10306
 Alpha virt. eigenvalues --    0.10378   0.10636   0.11412   0.12012   0.12753
 Alpha virt. eigenvalues --    0.13084   0.13386   0.13740   0.14356   0.14573
 Alpha virt. eigenvalues --    0.14648   0.14839   0.15513   0.15708   0.16212
 Alpha virt. eigenvalues --    0.16453   0.16782   0.17458   0.17543   0.17681
 Alpha virt. eigenvalues --    0.18113   0.18350   0.18646   0.18911   0.19221
 Alpha virt. eigenvalues --    0.19625   0.19916   0.20165   0.20290   0.20545
 Alpha virt. eigenvalues --    0.20743   0.21225   0.21576   0.22108   0.22309
 Alpha virt. eigenvalues --    0.22656   0.22769   0.23041   0.23897   0.24220
 Alpha virt. eigenvalues --    0.24338   0.24648   0.25131   0.26163   0.26272
 Alpha virt. eigenvalues --    0.26562   0.26880   0.28050   0.28305   0.29074
 Alpha virt. eigenvalues --    0.29357   0.29513   0.30319   0.30990   0.31601
 Alpha virt. eigenvalues --    0.32754   0.33180   0.35076   0.35259   0.35699
 Alpha virt. eigenvalues --    0.36447   0.49812   0.50059   0.50295   0.51326
 Alpha virt. eigenvalues --    0.51986   0.52472   0.52630   0.53702   0.53975
 Alpha virt. eigenvalues --    0.54577   0.54812   0.55238   0.55727   0.56277
 Alpha virt. eigenvalues --    0.56915   0.57410   0.58060   0.59337   0.59729
 Alpha virt. eigenvalues --    0.60350   0.60626   0.60890   0.61779   0.61866
 Alpha virt. eigenvalues --    0.62841   0.63592   0.64271   0.65490   0.65922
 Alpha virt. eigenvalues --    0.66423   0.66658   0.67405   0.67692   0.68384
 Alpha virt. eigenvalues --    0.69149   0.69381   0.69899   0.70246   0.70700
 Alpha virt. eigenvalues --    0.72635   0.73372   0.74446   0.74757   0.75138
 Alpha virt. eigenvalues --    0.76433   0.76551   0.77681   0.78157   0.78989
 Alpha virt. eigenvalues --    0.79351   0.80866   0.81560   0.81997   0.82308
 Alpha virt. eigenvalues --    0.82998   0.83632   0.83790   0.84500   0.84931
 Alpha virt. eigenvalues --    0.85141   0.85326   0.85951   0.86348   0.86806
 Alpha virt. eigenvalues --    0.87115   0.87190   0.87435   0.87621   0.88345
 Alpha virt. eigenvalues --    0.88802   0.88895   0.89396   0.89947   0.90205
 Alpha virt. eigenvalues --    0.90635   0.91286   0.91672   0.92205   0.92623
 Alpha virt. eigenvalues --    0.93187   0.93391   0.93793   0.93992   0.94289
 Alpha virt. eigenvalues --    0.94751   0.94850   0.95500   0.96024   0.96152
 Alpha virt. eigenvalues --    0.97237   0.97814   0.98852   0.99046   0.99191
 Alpha virt. eigenvalues --    0.99605   0.99959   1.00401   1.00567   1.01606
 Alpha virt. eigenvalues --    1.01773   1.02136   1.03087   1.05085   1.05421
 Alpha virt. eigenvalues --    1.06677   1.09857   1.11593   1.12514   1.14467
 Alpha virt. eigenvalues --    1.15343   1.16180   1.18345   1.19461   1.22737
 Alpha virt. eigenvalues --    1.23719   1.25714   1.26113   1.27145   1.28881
 Alpha virt. eigenvalues --    1.30703   1.33239   1.35755   1.39241   1.39994
 Alpha virt. eigenvalues --    1.40824   1.41859   1.44335   1.45085   1.47439
 Alpha virt. eigenvalues --    1.48956   1.49099   1.49832   1.51135   1.52271
 Alpha virt. eigenvalues --    1.53382   1.54411   1.55296   1.57331   1.58553
 Alpha virt. eigenvalues --    1.59040   1.59732   1.61261   1.62469   1.63522
 Alpha virt. eigenvalues --    1.64183   1.65844   1.66312   1.67904   1.68717
 Alpha virt. eigenvalues --    1.70036   1.70438   1.70959   1.71919   1.72182
 Alpha virt. eigenvalues --    1.74183   1.74490   1.76758   1.78104   1.79024
 Alpha virt. eigenvalues --    1.79916   1.81423   1.82014   1.82397   1.83134
 Alpha virt. eigenvalues --    1.83345   1.84048   1.84863   1.86080   1.86175
 Alpha virt. eigenvalues --    1.86901   1.88553   1.88805   1.89519   1.89563
 Alpha virt. eigenvalues --    1.90355   1.92020   1.92773   1.93657   1.93805
 Alpha virt. eigenvalues --    1.94303   1.95010   1.95987   1.96766   1.97625
 Alpha virt. eigenvalues --    1.98071   1.98727   1.99566   2.00044   2.00221
 Alpha virt. eigenvalues --    2.01514   2.02580   2.02810   2.04400   2.04851
 Alpha virt. eigenvalues --    2.05194   2.05871   2.06132   2.06595   2.07303
 Alpha virt. eigenvalues --    2.07991   2.08432   2.09274   2.09316   2.10381
 Alpha virt. eigenvalues --    2.11251   2.11497   2.12889   2.13330   2.13634
 Alpha virt. eigenvalues --    2.13787   2.14168   2.14688   2.14797   2.15762
 Alpha virt. eigenvalues --    2.16848   2.17211   2.17887   2.18944   2.19939
 Alpha virt. eigenvalues --    2.20524   2.21144   2.22427   2.22747   2.24443
 Alpha virt. eigenvalues --    2.25009   2.25384   2.27032   2.27405   2.27607
 Alpha virt. eigenvalues --    2.28060   2.28399   2.28858   2.29237   2.29941
 Alpha virt. eigenvalues --    2.30623   2.30892   2.31462   2.32436   2.33218
 Alpha virt. eigenvalues --    2.34419   2.35241   2.36032   2.36670   2.37336
 Alpha virt. eigenvalues --    2.38099   2.38369   2.39226   2.40255   2.40824
 Alpha virt. eigenvalues --    2.40917   2.41053   2.42457   2.43109   2.44149
 Alpha virt. eigenvalues --    2.44709   2.46143   2.47045   2.47589   2.49177
 Alpha virt. eigenvalues --    2.50851   2.51466   2.51851   2.53424   2.54307
 Alpha virt. eigenvalues --    2.54972   2.56344   2.57050   2.58376   2.58663
 Alpha virt. eigenvalues --    2.59784   2.60195   2.61469   2.62053   2.62870
 Alpha virt. eigenvalues --    2.63296   2.64513   2.64986   2.65650   2.67140
 Alpha virt. eigenvalues --    2.67896   2.69084   2.69436   2.70167   2.70352
 Alpha virt. eigenvalues --    2.70779   2.71016   2.72094   2.73276   2.73397
 Alpha virt. eigenvalues --    2.75014   2.75584   2.76011   2.76285   2.77394
 Alpha virt. eigenvalues --    2.77931   2.78270   2.79122   2.79417   2.79711
 Alpha virt. eigenvalues --    2.81165   2.81518   2.81994   2.82484   2.83554
 Alpha virt. eigenvalues --    2.85120   2.86028   2.86383   2.86864   2.87843
 Alpha virt. eigenvalues --    2.87989   2.88483   2.89306   2.89601   2.89941
 Alpha virt. eigenvalues --    2.90443   2.91254   2.91784   2.92054   2.92227
 Alpha virt. eigenvalues --    2.92615   2.93029   2.94337   2.94551   2.95962
 Alpha virt. eigenvalues --    2.97297   2.98684   2.98957   2.99815   3.00011
 Alpha virt. eigenvalues --    3.02364   3.03554   3.03954   3.04650   3.20310
 Alpha virt. eigenvalues --    3.20378   3.22143   3.23068   3.26847   3.28516
 Alpha virt. eigenvalues --    3.29799   3.30749   3.31396   3.31985   3.32188
 Alpha virt. eigenvalues --    3.33535   3.34330   3.36201   3.36694   3.37641
 Alpha virt. eigenvalues --    3.39680   3.40061   3.41065   3.41551   3.42338
 Alpha virt. eigenvalues --    3.44470   3.45818   3.46588   3.47394   3.47588
 Alpha virt. eigenvalues --    3.47787   3.47977   3.48840   3.49320   3.49801
 Alpha virt. eigenvalues --    3.49970   3.50550   3.52953   3.53840   3.54205
 Alpha virt. eigenvalues --    3.54988   3.55568   3.57051   3.57283   3.60405
 Alpha virt. eigenvalues --    3.61274   4.09736   4.12761   4.27927   4.31894
 Alpha virt. eigenvalues --    4.33429   4.35213   4.44162   4.48974   4.49331
 Alpha virt. eigenvalues --    4.51929   4.54475   4.58510   4.61947   4.62233
 Alpha virt. eigenvalues --    4.63087   4.64385   4.71380   4.72317   4.74783
 Alpha virt. eigenvalues --    4.83665   4.85689   4.88567   4.91695
          Condensed to atoms (all electrons):
 Mulliken charges:
               1
     1  C   -0.333652
     2  C   -0.165460
     3  C    0.069332
     4  N   -0.543442
     5  C    0.108864
     6  C   -0.211208
     7  C   -0.189089
     8  C   -0.034316
     9  C   -0.194382
    10  C   -0.046146
    11  C   -0.192250
    12  C   -0.197609
    13  C    0.071173
    14  N   -0.537421
    15  C    0.088400
    16  C   -0.301770
    17  C   -0.202934
    18  C   -0.323596
    19  C   -0.197804
    20  C   -0.184884
    21  C   -0.199012
    22  C   -0.186355
    23  C   -0.323873
    24  H    0.104553
    25  H    0.103390
    26  H    0.107245
    27  H    0.087244
    28  H    0.087100
    29  H    0.097239
    30  H    0.240373
    31  H    0.067655
    32  H    0.087678
    33  H    0.092558
    34  H    0.093185
    35  H    0.089237
    36  H    0.085854
    37  H    0.082798
    38  H    0.083946
    39  H    0.077675
    40  H    0.096826
    41  H    0.091328
    42  H    0.100781
    43  H    0.094733
    44  H    0.083980
    45  H    0.242624
    46  H    0.082344
    47  H    0.088879
    48  H    0.100942
    49  H    0.101218
    50  H    0.094602
    51  H    0.096688
    52  H    0.109725
    53  H    0.103561
    54  H    0.105538
    55  H    0.087308
    56  H    0.096604
    57  H    0.086065
    58  H    0.096709
    59  H    0.095411
    60  H    0.087858
    61  H    0.095778
    62  H    0.093229
    63  H    0.104576
    64  H    0.103645
    65  H    0.098749
 Sum of Mulliken charges =  -0.00000
 Mulliken charges with hydrogens summed into heavy atoms:
               1
     1  C   -0.018463
     2  C    0.008884
     3  C    0.166571
     4  N   -0.303069
     5  C    0.176520
     6  C   -0.030971
     7  C   -0.006667
     8  C    0.051538
     9  C   -0.027638
    10  C    0.031530
    11  C   -0.004096
    12  C   -0.002096
    13  C    0.155153
    14  N   -0.294796
    15  C    0.170744
    16  C   -0.010730
    17  C   -0.011644
    18  C   -0.004772
    19  C   -0.013892
    20  C   -0.002109
    21  C   -0.015743
    22  C    0.002651
    23  C   -0.016904
 APT charges:
               1
     1  C   -1.604085
     2  C   -0.798286
     3  C   -0.095130
     4  N   -0.937111
     5  C   -0.421573
     6  C   -0.886548
     7  C   -0.694029
     8  C   -0.248634
     9  C   -0.685590
    10  C   -0.477147
    11  C   -0.764930
    12  C   -0.669213
    13  C   -0.487111
    14  N   -1.057466
    15  C    0.249698
    16  C   -1.303117
    17  C   -0.597416
    18  C   -1.916288
    19  C   -0.892540
    20  C   -0.478952
    21  C   -0.615337
    22  C   -0.762614
    23  C   -1.577271
    24  H   -0.190525
    25  H    1.001775
    26  H    0.827120
    27  H   -0.038756
    28  H    0.853557
    29  H    0.094637
    30  H    0.789199
    31  H    0.512034
    32  H    0.628913
    33  H    0.273178
    34  H    0.348551
    35  H    0.352467
    36  H    0.255518
    37  H    0.364376
    38  H    0.321999
    39  H    0.428139
    40  H    0.532932
    41  H    0.221099
    42  H    0.142758
    43  H    0.584557
    44  H    0.416331
    45  H    0.838185
    46  H   -0.172152
    47  H    0.651979
    48  H    0.876783
    49  H   -0.205552
    50  H    0.120224
    51  H    0.564142
    52  H    0.676147
    53  H    1.048314
    54  H    0.162811
    55  H    0.515814
    56  H    0.446402
    57  H    0.352189
    58  H    0.188644
    59  H    0.248547
    60  H    0.359895
    61  H    0.231302
    62  H    0.552643
    63  H   -0.063930
    64  H    0.634870
    65  H    0.973574
 Sum of APT charges =  -0.00000
 APT charges with hydrogens summed into heavy atoms:
               1
     1  C    0.034286
     2  C    0.016515
     3  C   -0.000493
     4  N   -0.147912
     5  C    0.090461
     6  C    0.015543
     7  C    0.006989
     8  C    0.006884
     9  C    0.000784
    10  C   -0.049007
    11  C   -0.010900
    12  C    0.058101
    13  C   -0.070780
    14  N   -0.219281
    15  C    0.077545
    16  C    0.020092
    17  C    0.086950
    18  C   -0.029015
    19  C    0.069676
    20  C    0.061881
    21  C   -0.006895
    22  C    0.021332
    23  C   -0.032757
 Electronic spatial extent (au):  <R**2>=          16708.1747
 Charge=             -0.0000 electrons
 Dipole moment (field-independent basis, Debye):
    X=              0.7257    Y=             -1.1269    Z=             -0.1341  Tot=              1.3470
 Quadrupole moment (field-independent basis, Debye-Ang):
   XX=           -148.8131   YY=           -146.2922   ZZ=           -150.2872
   XY=              3.7442   XZ=            -11.3464   YZ=             -0.7145
 Traceless Quadrupole moment (field-independent basis, Debye-Ang):
   XX=             -0.3489   YY=              2.1720   ZZ=             -1.8231
   XY=              3.7442   XZ=            -11.3464   YZ=             -0.7145
 Octapole moment (field-independent basis, Debye-Ang**2):
  XXX=             61.9977  YYY=             -4.7138  ZZZ=              1.0937  XYY=             -2.3359
  XXY=            -31.5908  XXZ=             21.4974  XZZ=              4.8076  YZZ=             -1.0748
  YYZ=             -3.5910  XYZ=            -12.0969
 Hexadecapole moment (field-independent basis, Debye-Ang**3):
 XXXX=         -20709.1656 YYYY=          -1146.8321 ZZZZ=           -896.9989 XXXY=            141.6185
 XXXZ=           -334.1388 YYYX=             37.6744 YYYZ=             -2.2467 ZZZX=             -9.2602
 ZZZY=              4.1352 XXYY=          -3593.9902 XXZZ=          -3678.8769 YYZZ=           -338.7071
 XXYZ=            -19.4325 YYXZ=              4.1610 ZZXY=             10.6672
 N-N= 2.035581041316D+03 E-N=-6.234716581770D+03  KE= 9.261250137995D+02
  Exact polarizability:   0.000   0.000   0.000   0.000   0.000   0.000
 Approx polarizability: 324.476  -1.074 314.966  -0.687   2.220 312.306
 D2PCM: PCM CHGder 2nd derivatives, FixD1E=F FixD2E=F DoIter=F DoCFld=F I1PDM=0
 Calling FoFJK, ICntrl=    100147 FMM=F ISym2X=0 I1Cent= 0 IOpClX= 0 NMat=1 NMatS=1 NMatT=0.
 ***** Axes restored to original set *****
 -------------------------------------------------------------------
 Center     Atomic                   Forces (Hartrees/Bohr)
 Number     Number              X              Y              Z
 -------------------------------------------------------------------
      1        6          -0.002433015    0.001435253    0.001218330
      2        6           0.000594675    0.001560741   -0.004502533
      3        6          -0.009598581    0.006372589    0.005354228
      4        7           0.007676801    0.006890985   -0.005847089
      5        6          -0.007186211    0.003666385    0.007038293
      6        6           0.002213865   -0.000073243    0.002596056
      7        6           0.000470242   -0.002160811    0.003549669
      8        6           0.004436679    0.007229925   -0.001794374
      9        6           0.004378309   -0.000361016    0.001369704
     10        6          -0.007883330    0.008269319   -0.005562286
     11        6           0.004360762    0.004755633    0.006477333
     12        6          -0.003731600   -0.000748676    0.004667859
     13        6           0.009179803   -0.017127576   -0.004109056
     14        7          -0.001007329   -0.001299363    0.004575943
     15        6           0.011275348   -0.000260869   -0.001450081
     16        6           0.000624543    0.005820300    0.004803632
     17        6          -0.002268490    0.002853281   -0.001308903
     18        6           0.003785661    0.000001733   -0.000912967
     19        6          -0.006511792   -0.000316426   -0.004625716
     20        6           0.001084908    0.001086326   -0.001963774
     21        6          -0.001264027   -0.007214880    0.000866963
     22        6          -0.001050161   -0.002509738   -0.004519749
     23        6          -0.002225591   -0.006501859   -0.004432871
     24        1          -0.000284281    0.000015515    0.000876956
     25        1          -0.000546680    0.000285933    0.001272656
     26        1          -0.000422467    0.000322714    0.001524206
     27        1           0.001859768   -0.001909753    0.000186508
     28        1           0.000413127   -0.001358518   -0.000873133
     29        1           0.004017268    0.000337875    0.003320784
     30        1           0.000914111   -0.002793686   -0.002430842
     31        1           0.002202956   -0.006439603   -0.003124470
     32        1          -0.002976923   -0.000681247   -0.001723413
     33        1           0.000148134    0.000469485   -0.000487678
     34        1           0.000321195   -0.000721428   -0.001094026
     35        1           0.000420613    0.001853396   -0.000847682
     36        1           0.000758967    0.001210562    0.001169333
     37        1          -0.000355992   -0.000180062    0.000476088
     38        1          -0.001437509   -0.000284157   -0.000683128
     39        1          -0.000327920   -0.002012260   -0.002589047
     40        1          -0.000094963   -0.000034025    0.000616735
     41        1          -0.001090435   -0.000616431   -0.000554727
     42        1           0.001606254    0.000214100   -0.002123628
     43        1           0.002320358   -0.000238418   -0.002034650
     44        1           0.000740039    0.000423027   -0.000538137
     45        1          -0.002784595    0.001171157    0.001040750
     46        1          -0.003234641    0.000697503   -0.000855226
     47        1           0.000156050    0.001350699    0.000661105
     48        1          -0.001113129   -0.000242189   -0.001854095
     49        1          -0.000470956   -0.000846844   -0.000058930
     50        1          -0.002134834    0.000038277    0.000053568
     51        1          -0.001425555    0.000674263    0.000484578
     52        1           0.000609217   -0.001286799    0.000873114
     53        1           0.000645936   -0.000924009    0.000169920
     54        1           0.001069320   -0.001865142    0.000948695
     55        1           0.001763674    0.000265376    0.000524375
     56        1           0.001388326    0.001381962    0.002622492
     57        1          -0.002449425   -0.000376949    0.000379178
     58        1          -0.001556846   -0.000177657    0.000151523
     59        1           0.000705034    0.000341345    0.001328668
     60        1          -0.000042304   -0.000820182   -0.001237013
     61        1          -0.003671696    0.000360102    0.002850355
     62        1           0.000385211    0.001273161   -0.000418060
     63        1          -0.000341302    0.000066678    0.000872198
     64        1           0.000189852    0.000900368   -0.000271508
     65        1          -0.000794427   -0.001212158   -0.000093004
 -------------------------------------------------------------------
 Cartesian Forces:  Max     0.017127576 RMS     0.003187725
 FormGI is forming the generalized inverse of G from B-inverse, IUseBI=4.

 GradGradGradGradGradGradGradGradGradGradGradGradGradGradGradGradGradGrad
 Berny optimization.
 Internal  Forces:  Max     0.009236936 RMS     0.001988844
 Search for a local minimum.
 Step number   1 out of a maximum of  390
 All quantities printed in internal units (Hartrees-Bohrs-Radians)
 Mixed Optimization -- RFO/linear search
 Second derivative matrix not updated -- analytic derivatives used.
 ITU=  0
     Eigenvalues ---   -0.00018   0.00056   0.00086   0.00110   0.00197
     Eigenvalues ---    0.00215   0.00228   0.00241   0.00281   0.00299
     Eigenvalues ---    0.00367   0.00400   0.00460   0.00512   0.00535
     Eigenvalues ---    0.00620   0.00732   0.00880   0.01427   0.01558
     Eigenvalues ---    0.02043   0.02075   0.02171   0.02247   0.03337
     Eigenvalues ---    0.03446   0.03557   0.03609   0.03673   0.03706
     Eigenvalues ---    0.03887   0.03906   0.03934   0.03939   0.03947
     Eigenvalues ---    0.03959   0.03976   0.03989   0.04000   0.04067
     Eigenvalues ---    0.04095   0.04195   0.04300   0.04323   0.04385
     Eigenvalues ---    0.04425   0.04472   0.04538   0.04587   0.04603
     Eigenvalues ---    0.04622   0.04651   0.04702   0.04707   0.04725
     Eigenvalues ---    0.04824   0.04893   0.05058   0.05113   0.05188
     Eigenvalues ---    0.05343   0.05404   0.05419   0.05483   0.05525
     Eigenvalues ---    0.05673   0.06095   0.06150   0.06276   0.06369
     Eigenvalues ---    0.06795   0.07011   0.07043   0.07078   0.07332
     Eigenvalues ---    0.07527   0.07528   0.07576   0.07635   0.07772
     Eigenvalues ---    0.07899   0.09494   0.09546   0.09926   0.09993
     Eigenvalues ---    0.10383   0.10470   0.10487   0.10668   0.10946
     Eigenvalues ---    0.11055   0.11195   0.12078   0.12189   0.12390
     Eigenvalues ---    0.12475   0.13261   0.13358   0.13494   0.13957
     Eigenvalues ---    0.14012   0.14412   0.14646   0.14726   0.15473
     Eigenvalues ---    0.16033   0.16119   0.17432   0.18209   0.18564
     Eigenvalues ---    0.18698   0.19006   0.19288   0.19365   0.20217
     Eigenvalues ---    0.20693   0.20951   0.21148   0.22218   0.22325
     Eigenvalues ---    0.22459   0.23293   0.24195   0.24566   0.24625
     Eigenvalues ---    0.24980   0.25493   0.25949   0.26140   0.26979
     Eigenvalues ---    0.27057   0.27161   0.27352   0.27518   0.28465
     Eigenvalues ---    0.28834   0.29128   0.29265   0.29608   0.29805
     Eigenvalues ---    0.30783   0.30981   0.31286   0.31472   0.31646
     Eigenvalues ---    0.32171   0.32290   0.32359   0.32531   0.32558
     Eigenvalues ---    0.32576   0.32611   0.32674   0.32697   0.32705
     Eigenvalues ---    0.32733   0.32763   0.32950   0.33031   0.33127
     Eigenvalues ---    0.33235   0.33333   0.33372   0.33417   0.33445
     Eigenvalues ---    0.33481   0.33502   0.33524   0.33573   0.33613
     Eigenvalues ---    0.33633   0.33699   0.33737   0.33839   0.33883
     Eigenvalues ---    0.34007   0.34023   0.34167   0.34385   0.34546
     Eigenvalues ---    0.34676   0.34714   0.34918   0.34929   0.35323
     Eigenvalues ---    0.38306   0.39558   0.43365   0.43369
 RFO step:  Lambda=-9.51957493D-03 EMin=-1.79121778D-04
 Linear search not attempted -- first point.
 Iteration  1 RMS(Cart)=  0.20984672 RMS(Int)=  0.00531938
 Iteration  2 RMS(Cart)=  0.01652380 RMS(Int)=  0.00048976
 Iteration  3 RMS(Cart)=  0.00005157 RMS(Int)=  0.00048923
 Iteration  4 RMS(Cart)=  0.00000002 RMS(Int)=  0.00048923
 Variable       Old X    -DE/DX   Delta X   Delta X   Delta X     New X
                                 (Linear)    (Quad)   (Total)
    R1        2.88048   0.00646   0.00000   0.01717   0.01717   2.89765
[...]

   391    H   33  S      Val( 1S)     0.76246
   392    H   33  S      Ryd( 2S)     0.00191
   393    H   33  px     Ryd( 2p)     0.00014
   394    H   33  py     Ryd( 2p)     0.00011
   395    H   33  pz     Ryd( 2p)     0.00032

   396    H   34  S      Val( 1S)     0.76858
   397    H   34  S      Ryd( 2S)     0.00227
   398    H   34  px     Ryd( 2p)     0.00016
   399    H   34  py     Ryd( 2p)     0.00010
   400    H   34  pz     Ryd( 2p)     0.00030

   401    H   35  S      Val( 1S)     0.76099
   402    H   35  S      Ryd( 2S)     0.00371
   403    H   35  px     Ryd( 2p)     0.00014
   404    H   35  py     Ryd( 2p)     0.00031
   405    H   35  pz     Ryd( 2p)     0.00010

   406    H   36  S      Val( 1S)     0.77272
   407    H   36  S      Ryd( 2S)     0.01341
   408    H   36  px     Ryd( 2p)     0.00022
   409    H   36  py     Ryd( 2p)     0.00012
   410    H   36  pz     Ryd( 2p)     0.00025

   411    H   37  S      Val( 1S)     0.76340
   412    H   37  S      Ryd( 2S)     0.00182
   413    H   37  px     Ryd( 2p)     0.00010
   414    H   37  py     Ryd( 2p)     0.00032
   415    H   37  pz     Ryd( 2p)     0.00014

   416    H   38  S      Val( 1S)     0.76760
   417    H   38  S      Ryd( 2S)     0.00210
   418    H   38  px     Ryd( 2p)     0.00016
   419    H   38  py     Ryd( 2p)     0.00018
   420    H   38  pz     Ryd( 2p)     0.00023

   421    H   39  S      Val( 1S)     0.75818
   422    H   39  S      Ryd( 2S)     0.00497
   423    H   39  px     Ryd( 2p)     0.00014
   424    H   39  py     Ryd( 2p)     0.00012
   425    H   39  pz     Ryd( 2p)     0.00035

   426    H   40  S      Val( 1S)     0.78073
   427    H   40  S      Ryd( 2S)     0.01382
   428    H   40  px     Ryd( 2p)     0.00026
   429    H   40  py     Ryd( 2p)     0.00015
   430    H   40  pz     Ryd( 2p)     0.00018

   431    H   41  S      Val( 1S)     0.77286
   432    H   41  S      Ryd( 2S)     0.01006
   433    H   41  px     Ryd( 2p)     0.00018
   434    H   41  py     Ryd( 2p)     0.00025
   435    H   41  pz     Ryd( 2p)     0.00012

   436    H   42  S      Val( 1S)     0.79583
   437    H   42  S      Ryd( 2S)     0.02421
   438    H   42  px     Ryd( 2p)     0.00024
   439    H   42  py     Ryd( 2p)     0.00011
   440    H   42  pz     Ryd( 2p)     0.00021

   441    H   43  S      Val( 1S)     0.75325
   442    H   43  S      Ryd( 2S)     0.00638
   443    H   43  px     Ryd( 2p)     0.00017
   444    H   43  py     Ryd( 2p)     0.00022
   445    H   43  pz     Ryd( 2p)     0.00016

   446    H   44  S      Val( 1S)     0.78352
   447    H   44  S      Ryd( 2S)     0.03936
   448    H   44  px     Ryd( 2p)     0.00008
   449    H   44  py     Ryd( 2p)     0.00021
   450    H   44  pz     Ryd( 2p)     0.00030

   451    H   45  S      Val( 1S)     0.66222
   452    H   45  S      Ryd( 2S)     0.06335
   453    H   45  px     Ryd( 2p)     0.00032
   454    H   45  py     Ryd( 2p)     0.00058
   455    H   45  pz     Ryd( 2p)     0.00023

   456    H   46  S      Val( 1S)     0.72187
   457    H   46  S      Ryd( 2S)     0.01517
   458    H   46  px     Ryd( 2p)     0.00021
   459    H   46  py     Ryd( 2p)     0.00010
   460    H   46  pz     Ryd( 2p)     0.00029

   461    H   47  S      Val( 1S)     0.75646
   462    H   47  S      Ryd( 2S)     0.00849
   463    H   47  px     Ryd( 2p)     0.00013
   464    H   47  py     Ryd( 2p)     0.00017
   465    H   47  pz     Ryd( 2p)     0.00020

   466    H   48  S      Val( 1S)     0.75625
   467    H   48  S      Ryd( 2S)     0.00353
   468    H   48  px     Ryd( 2p)     0.00017
   469    H   48  py     Ryd( 2p)     0.00008
   470    H   48  pz     Ryd( 2p)     0.00026

   471    H   49  S      Val( 1S)     0.76904
   472    H   49  S      Ryd( 2S)     0.01093
   473    H   49  px     Ryd( 2p)     0.00029
   474    H   49  py     Ryd( 2p)     0.00013
   475    H   49  pz     Ryd( 2p)     0.00009

   476    H   50  S      Val( 1S)     0.77850
   477    H   50  S      Ryd( 2S)     0.02009
   478    H   50  px     Ryd( 2p)     0.00009
   479    H   50  py     Ryd( 2p)     0.00031
   480    H   50  pz     Ryd( 2p)     0.00015

   481    H   51  S      Val( 1S)     0.75334
   482    H   51  S      Ryd( 2S)     0.00889
   483    H   51  px     Ryd( 2p)     0.00013
   484    H   51  py     Ryd( 2p)     0.00016
   485    H   51  pz     Ryd( 2p)     0.00025

   486    H   52  S      Val( 1S)     0.77037
   487    H   52  S      Ryd( 2S)     0.00569
   488    H   52  px     Ryd( 2p)     0.00011
   489    H   52  py     Ryd( 2p)     0.00029
   490    H   52  pz     Ryd( 2p)     0.00012

   491    H   53  S      Val( 1S)     0.76809
   492    H   53  S      Ryd( 2S)     0.00583
   493    H   53  px     Ryd( 2p)     0.00026
   494    H   53  py     Ryd( 2p)     0.00013
   495    H   53  pz     Ryd( 2p)     0.00012

   496    H   54  S      Val( 1S)     0.78202
   497    H   54  S      Ryd( 2S)     0.01150
   498    H   54  px     Ryd( 2p)     0.00012
   499    H   54  py     Ryd( 2p)     0.00017
   500    H   54  pz     Ryd( 2p)     0.00025

   501    H   55  S      Val( 1S)     0.77166
   502    H   55  S      Ryd( 2S)     0.02438
   503    H   55  px     Ryd( 2p)     0.00009
   504    H   55  py     Ryd( 2p)     0.00035
   505    H   55  pz     Ryd( 2p)     0.00008

   506    H   56  S      Val( 1S)     0.76214
   507    H   56  S      Ryd( 2S)     0.01017
   508    H   56  px     Ryd( 2p)     0.00014
   509    H   56  py     Ryd( 2p)     0.00014
   510    H   56  pz     Ryd( 2p)     0.00028

   511    H   57  S      Val( 1S)     0.74554
   512    H   57  S      Ryd( 2S)     0.00342
   513    H   57  px     Ryd( 2p)     0.00014
   514    H   57  py     Ryd( 2p)     0.00020
   515    H   57  pz     Ryd( 2p)     0.00022

   516    H   58  S      Val( 1S)     0.76760
   517    H   58  S      Ryd( 2S)     0.00881
   518    H   58  px     Ryd( 2p)     0.00017
   519    H   58  py     Ryd( 2p)     0.00011
   520    H   58  pz     Ryd( 2p)     0.00028

   521    H   59  S      Val( 1S)     0.75872
   522    H   59  S      Ryd( 2S)     0.00138
   523    H   59  px     Ryd( 2p)     0.00017
   524    H   59  py     Ryd( 2p)     0.00023
   525    H   59  pz     Ryd( 2p)     0.00015

   526    H   60  S      Val( 1S)     0.76750
   527    H   60  S      Ryd( 2S)     0.00368
   528    H   60  px     Ryd( 2p)     0.00010
   529    H   60  py     Ryd( 2p)     0.00012
   530    H   60  pz     Ryd( 2p)     0.00035

   531    H   61  S      Val( 1S)     0.76373
   532    H   61  S      Ryd( 2S)     0.00237
   533    H   61  px     Ryd( 2p)     0.00010
   534    H   61  py     Ryd( 2p)     0.00012
   535    H   61  pz     Ryd( 2p)     0.00033

   536    H   62  S      Val( 1S)     0.75719
   537    H   62  S      Ryd( 2S)     0.00153
   538    H   62  px     Ryd( 2p)     0.00014
   539    H   62  py     Ryd( 2p)     0.00033
   540    H   62  pz     Ryd( 2p)     0.00009

   541    H   63  S      Val( 1S)     0.76328
   542    H   63  S      Ryd( 2S)     0.00076
   543    H   63  px     Ryd( 2p)     0.00019
   544    H   63  py     Ryd( 2p)     0.00014
   545    H   63  pz     Ryd( 2p)     0.00019

   546    H   64  S      Val( 1S)     0.77084
   547    H   64  S      Ryd( 2S)     0.00105
   548    H   64  px     Ryd( 2p)     0.00016
   549    H   64  py     Ryd( 2p)     0.00020
   550    H   64  pz     Ryd( 2p)     0.00016

   551    H   65  S      Val( 1S)     0.76218
   552    H   65  S      Ryd( 2S)     0.00097
   553    H   65  px     Ryd( 2p)     0.00020
   554    H   65  py     Ryd( 2p)     0.00022
   555    H   65  pz     Ryd( 2p)     0.00011


 Summary of Natural Population Analysis:                  
                                                          
                                       Natural Population 
                Natural  -----------------------------------------------
    Atom  No    Charge         Core      Valence    Rydberg      Total
 -----------------------------------------------------------------------
      C    1   -0.69680      1.99947     4.69029    0.00705     6.69680
      C    2   -0.46576      1.99932     4.45451    0.01193     6.46576
      C    3   -0.06083      1.99923     4.04437    0.01723     6.06083
      N    4   -0.72552      1.99952     5.70983    0.01618     7.72552
      C    5   -0.05066      1.99922     4.03472    0.01672     6.05066
      C    6   -0.47110      1.99930     4.45882    0.01298     6.47110
      C    7   -0.46490      1.99931     4.45371    0.01187     6.46490
      C    8   -0.25921      1.99922     4.24549    0.01450     6.25921
      C    9   -0.45389      1.99928     4.44098    0.01363     6.45389
      C   10   -0.25269      1.99923     4.23806    0.01540     6.25269
      C   11   -0.47481      1.99931     4.46265    0.01285     6.47481
      C   12   -0.48422      1.99929     4.47205    0.01289     6.48422
      C   13   -0.09879      1.99918     4.08172    0.01789     6.09879
      N   14   -0.19888      1.99933     5.18915    0.01040     7.19888
      C   15   -0.11087      1.99916     4.09476    0.01695     6.11087
      C   16   -0.69570      1.99938     4.68711    0.00921     6.69570
      C   17   -0.48988      1.99932     4.47714    0.01343     6.48988
      C   18   -0.69820      1.99946     4.69033    0.00840     6.69820
      C   19   -0.45542      1.99925     4.44407    0.01210     6.45542
      C   20   -0.46943      1.99928     4.45801    0.01214     6.46943
      C   21   -0.46583      1.99931     4.45469    0.01183     6.46583
      C   22   -0.48323      1.99930     4.47228    0.01165     6.48323
      C   23   -0.71118      1.99942     4.70418    0.00758     6.71118
      H   24    0.22772      0.00000     0.77044    0.00184     0.77228
      H   25    0.23979      0.00000     0.75896    0.00125     0.76021
      H   26    0.22921      0.00000     0.76938    0.00141     0.77079
      H   27    0.23720      0.00000     0.76028    0.00252     0.76280
      H   28    0.23512      0.00000     0.76298    0.00191     0.76488
      H   29    0.23874      0.00000     0.75891    0.00235     0.76126
      H   30    0.38311      0.00000     0.61326    0.00363     0.61689
      H   31    0.21116      0.00000     0.78532    0.00352     0.78884
      H   32    0.23921      0.00000     0.75887    0.00192     0.76079
      H   33    0.23507      0.00000     0.76246    0.00248     0.76493
      H   34    0.22859      0.00000     0.76858    0.00283     0.77141
      H   35    0.23475      0.00000     0.76099    0.00426     0.76525
      H   36    0.21328      0.00000     0.77272    0.01401     0.78672
      H   37    0.23422      0.00000     0.76340    0.00238     0.76578
      H   38    0.22973      0.00000     0.76760    0.00267     0.77027
      H   39    0.23624      0.00000     0.75818    0.00557     0.76376
      H   40    0.20486      0.00000     0.78073    0.01441     0.79514
      H   41    0.21654      0.00000     0.77286    0.01060     0.78346
      H   42    0.17940      0.00000     0.79583    0.02477     0.82060
      H   43    0.23980      0.00000     0.75325    0.00694     0.76020
      H   44    0.17654      0.00000     0.78352    0.03994     0.82346
      H   45    0.27329      0.00000     0.66222    0.06449     0.72671
      H   46    0.26236      0.00000     0.72187    0.01577     0.73764
      H   47    0.23454      0.00000     0.75646    0.00899     0.76546
      H   48    0.23970      0.00000     0.75625    0.00405     0.76030
      H   49    0.21951      0.00000     0.76904    0.01145     0.78049
      H   50    0.20086      0.00000     0.77850    0.02064     0.79914
      H   51    0.23724      0.00000     0.75334    0.00942     0.76276
      H   52    0.22342      0.00000     0.77037    0.00621     0.77658
      H   53    0.22557      0.00000     0.76809    0.00634     0.77443
      H   54    0.20594      0.00000     0.78202    0.01204     0.79406
      H   55    0.20343      0.00000     0.77166    0.02491     0.79657
      H   56    0.22713      0.00000     0.76214    0.01073     0.77287
      H   57    0.25049      0.00000     0.74554    0.00397     0.74951
      H   58    0.22302      0.00000     0.76760    0.00938     0.77698
      H   59    0.23935      0.00000     0.75872    0.00193     0.76065
      H   60    0.22825      0.00000     0.76750    0.00425     0.77175
      H   61    0.23334      0.00000     0.76373    0.00293     0.76666
      H   62    0.24071      0.00000     0.75719    0.00209     0.75929
      H   63    0.23544      0.00000     0.76328    0.00128     0.76456
      H   64    0.22759      0.00000     0.77084    0.00157     0.77241
      H   65    0.23633      0.00000     0.76218    0.00149     0.76367
 =======================================================================
   * Total *   -0.00000     45.98408   135.34597    0.66994   182.00000

                                 Natural Population      
 --------------------------------------------------------
   Core                      45.98408 ( 99.9654% of  46)
   Valence                  135.34597 ( 99.5191% of 136)
   Natural Minimal Basis    181.33006 ( 99.6319% of 182)
   Natural Rydberg Basis      0.66994 (  0.3681% of 182)
 --------------------------------------------------------

    Atom  No          Natural Electron Configuration
 ----------------------------------------------------------------------------
      C    1      [core]2S( 1.10)2p( 3.59)
      C    2      [core]2S( 1.04)2p( 3.42)3p( 0.01)
      C    3      [core]2S( 0.95)2p( 3.10)3p( 0.01)3d( 0.01)
      N    4      [core]2S( 1.35)2p( 4.36)3p( 0.01)
      C    5      [core]2S( 0.95)2p( 3.09)3p( 0.01)3d( 0.01)
      C    6      [core]2S( 1.03)2p( 3.43)3p( 0.01)
      C    7      [core]2S( 1.03)2p( 3.43)3p( 0.01)
      C    8      [core]2S( 0.97)2p( 3.27)3p( 0.01)
      C    9      [core]2S( 1.02)2p( 3.42)3p( 0.01)
      C   10      [core]2S( 0.97)2p( 3.27)3p( 0.01)
      C   11      [core]2S( 1.04)2p( 3.42)3p( 0.01)
      C   12      [core]2S( 1.04)2p( 3.43)3p( 0.01)
      C   13      [core]2S( 0.97)2p( 3.11)3p( 0.01)
      N   14      [core]2S( 1.37)2p( 3.82)
      C   15      [core]2S( 0.98)2p( 3.11)3p( 0.01)
      C   16      [core]2S( 1.11)2p( 3.57)3p( 0.01)
      C   17      [core]2S( 1.04)2p( 3.44)3p( 0.01)
      C   18      [core]2S( 1.11)2p( 3.58)3p( 0.01)
      C   19      [core]2S( 1.05)2p( 3.39)3p( 0.01)
      C   20      [core]2S( 1.03)2p( 3.43)3p( 0.01)
      C   21      [core]2S( 1.03)2p( 3.43)3p( 0.01)
      C   22      [core]2S( 1.03)2p( 3.44)3p( 0.01)
      C   23      [core]2S( 1.11)2p( 3.60)
      H   24            1S( 0.77)
      H   25            1S( 0.76)
      H   26            1S( 0.77)
      H   27            1S( 0.76)
      H   28            1S( 0.76)
      H   29            1S( 0.76)
      H   30            1S( 0.61)
      H   31            1S( 0.79)
      H   32            1S( 0.76)
      H   33            1S( 0.76)
      H   34            1S( 0.77)
      H   35            1S( 0.76)
      H   36            1S( 0.77)2S( 0.01)
      H   37            1S( 0.76)
      H   38            1S( 0.77)
      H   39            1S( 0.76)
      H   40            1S( 0.78)2S( 0.01)
      H   41            1S( 0.77)2S( 0.01)
      H   42            1S( 0.80)2S( 0.02)
      H   43            1S( 0.75)2S( 0.01)
      H   44            1S( 0.78)2S( 0.04)
      H   45            1S( 0.66)2S( 0.06)
      H   46            1S( 0.72)2S( 0.02)
      H   47            1S( 0.76)2S( 0.01)
      H   48            1S( 0.76)
      H   49            1S( 0.77)2S( 0.01)
      H   50            1S( 0.78)2S( 0.02)
      H   51            1S( 0.75)2S( 0.01)
      H   52            1S( 0.77)2S( 0.01)
      H   53            1S( 0.77)2S( 0.01)
      H   54            1S( 0.78)2S( 0.01)
      H   55            1S( 0.77)2S( 0.02)
      H   56            1S( 0.76)2S( 0.01)
      H   57            1S( 0.75)
      H   58            1S( 0.77)2S( 0.01)
      H   59            1S( 0.76)
      H   60            1S( 0.77)
      H   61            1S( 0.76)
      H   62            1S( 0.76)
      H   63            1S( 0.76)
      H   64            1S( 0.77)
      H   65            1S( 0.76)


 NBO analysis skipped by request.
 1\1\GINC-DRG2-W008\SP\RB3LYP TD-FC\6-31G(d,p)\C21H42N2\QDUEZ\18-Jul-20
 24\0\\# TD(NStates=10, Root=1) B3LYP/6-31G** SCRF=(Solvent=water) volu
 me pop=NPA density=current Geom=AllCheck Guess=Read\\PICLBAFTFYTURY-HQ
 ZQWKOLSA-N_conf_2\\0,1\C,0,-7.8669293096,1.2673222404,0.431871655\C,0,
 -7.0049333861,0.9346284983,-0.7926538581\C,0,-6.0242816362,-0.24491118
 34,-0.6216098167\N,0,-5.0566114887,0.0699746541,0.4469178379\C,0,-3.87
 389723,-0.8049771828,0.5504412618\C,0,-3.0646733871,-0.3992295583,1.80
 86098954\C,0,-1.9864434029,0.6349003696,1.473652981\C,0,-0.8861112177,
 0.0338334483,0.5637281446\C,0,-0.0924431253,1.1604060995,-0.1408899829
 \C,0,1.413688599,0.9254875126,-0.398465143\C,0,2.2442894182,0.81570950
 79,0.9229144461\C,0,2.8741191938,-0.5703588972,1.1391549223\C,0,3.7651
 288539,-1.0590164616,-0.0324151093\N,0,5.2153962316,-0.8798738939,0.20
 35870711\C,0,5.7732660983,0.4897818466,0.2681806821\C,0,5.9234807962,0
 .9629246807,1.7236059928\C,0,7.1180168861,0.5499259938,-0.4885843089\C
 ,0,8.2270717584,-0.3657739416,0.047468619\C,0,3.2508495266,-0.49599869
 51,-1.3861326084\C,0,1.7363990218,-0.2474190295,-1.3485180043\C,0,-1.5
 198706235,-0.9913743678,-0.4243927753\C,0,-2.9959555102,-0.6839366101,
 -0.7173560642\C,0,-6.7529382365,-1.5896852726,-0.4365899951\H,0,-7.251
 133306,1.5528698579,1.2914764186\H,0,-8.5307735718,2.1105440222,0.2152
 816663\H,0,-8.4972654867,0.4246126613,0.7340589408\H,0,-6.4192121808,1
 .8204967032,-1.0660103809\H,0,-7.6595308207,0.7148370395,-1.645855785\
 H,0,-5.4527210536,-0.304273248,-1.5553428494\H,0,-5.5494459818,0.02415
 22924,1.3374473464\H,0,-4.159277918,-1.8657891355,0.6630069814\H,0,-3.
 748420323,-0.016311889,2.5761133355\H,0,-2.5907296327,-1.2901689195,2.
 239524099\H,0,-2.4620255363,1.4857284347,0.9681425605\H,0,-1.529342078
 5,1.0357235331,2.3860988904\H,0,-0.1967825187,-0.5166213409,1.21740608
 52\H,0,-0.1666647282,2.0716443888,0.4685044048\H,0,-0.5884214963,1.402
 0883714,-1.0923632407\H,0,1.7629068138,1.8298338656,-0.9167416628\H,0,
 3.033473361,1.5758897465,0.9143172055\H,0,1.6113553606,1.0571902734,1.
 7854120821\H,0,2.0651251545,-1.2980102162,1.2726213936\H,0,3.452160741
 4,-0.5949462333,2.0679287843\H,0,3.6423794926,-2.1490388887,-0.0762329
 886\H,0,5.6883989846,-1.3773922656,-0.5473231148\H,0,5.1094613127,1.20
 60789819,-0.241717296\H,0,6.385320474,1.9564621385,1.7599789127\H,0,6.
 5457221443,0.2708111689,2.2986592427\H,0,4.9546910409,1.0303845278,2.2
 243472615\H,0,6.9275258712,0.3077170748,-1.542952043\H,0,7.4713466121,
 1.5883059091,-0.4734665849\H,0,8.5103888157,-0.1020238306,1.0710795183
 \H,0,9.1244827109,-0.2823764266,-0.5740338208\H,0,7.9243176114,-1.4177
 772962,0.0495713796\H,0,3.5185299543,-1.1896146673,-2.1921207763\H,0,3
 .7540823767,0.4524835676,-1.6149909837\H,0,1.3531213251,-0.0244002474,
 -2.3518598337\H,0,1.2326652361,-1.1660490412,-1.0239422724\H,0,-0.9605
 256036,-1.011264198,-1.3641736772\H,0,-1.4464329155,-2.0042391189,-0.0
 072753789\H,0,-3.0882209798,0.338642683,-1.1053054149\H,0,-3.364844251
 7,-1.3504918827,-1.5045655041\H,0,-6.0466939277,-2.425077467,-0.407828
 7768\H,0,-7.3264524741,-1.6083931818,0.4969970853\H,0,-7.4491564387,-1
 .774577505,-1.2622261664\\Version=ES64L-G16RevA.03\State=1-A\HF=-935.0
 912121\RMSD=1.476e-09\Dipole=0.8231812,-0.1520953,-0.0652729\Quadrupol
 e=7.1292661,-4.6869093,-2.4423568,5.4536351,0.5239784,-1.0337784\PG=C0
 1 [X(C21H42N2)]\\@


 You can't act like a skunk without someone's getting wind of it.
 -- Lorene Workman
 Job cpu time:       0 days  3 hours 25 minutes 10.8 seconds.
 Elapsed time:       0 days  1 hours  8 minutes 34.8 seconds.
 File lengths (MBytes):  RWF=   2302 Int=      0 D2E=      0 Chk=    148 Scr=      1
 Normal termination of Gaussian 16 at Thu Jul 18 22:21:14 2024.
