 Entering Gaussian System, Link 0=g16
 Initial command:
 /opt/sw/arch/manual/gaussian/G16_A03/g16/l1.exe "/scratch/1380962/Gau-184043.inp" -scrdir="/scratch/1380962/"
 Entering Link 1 = /opt/sw/arch/manual/gaussian/G16_A03/g16/l1.exe PID=    184044.
  
 Copyright (c) 1988,1990,1992,1993,1995,1998,2003,2009,2016,
            Gaussian, Inc.  All Rights Reserved.
  
 This is part of the Gaussian(R) 16 program.  It is based on
 the Gaussian(R) 09 system (copyright 2009, Gaussian, Inc.),
 the Gaussian(R) 03 system (copyright 2003, Gaussian, Inc.),
 the Gaussian(R) 98 system (copyright 1998, Gaussian, Inc.),
 the Gaussian(R) 94 system (copyright 1995, Gaussian, Inc.),
 the Gaussian 92(TM) system (copyright 1992, Gaussian, Inc.),
 the Gaussian 90(TM) system (copyright 1990, Gaussian, Inc.),
 the Gaussian 88(TM) system (copyright 1988, Gaussian, Inc.),
 the Gaussian 86(TM) system (copyright 1986, Carnegie Mellon
 University), and the Gaussian 82(TM) system (copyright 1983,
 Carnegie Mellon University). Gaussian is a federally registered
 trademark of Gaussian, Inc.
  
 This software contains proprietary and confidential information,
 including trade secrets, belonging to Gaussian, Inc.
  
 This software is provided under written license and may be
 used, copied, transmitted, or stored only in accord with that
 written license.
  
 The following legend is applicable only to US Government
 contracts under FAR:
  
                    RESTRICTED RIGHTS LEGEND
  
 Use, reproduction and disclosure by the US Government is
 subject to restrictions as set forth in subparagraphs (a)
 and (c) of the Commercial Computer Software - Restricted
 Rights clause in FAR 52.227-19.
  
 Gaussian, Inc.
 340 Quinnipiac St., Bldg. 40, Wallingford CT 06492
  
  
 ---------------------------------------------------------------
 Warning -- This program may not be used in any manner that
 competes with the business of Gaussian, Inc. or will provide
 assistance to any competitor of Gaussian, Inc.  The licensee
 of this program is prohibited from giving any competitor of
 Gaussian, Inc. access to this program.  By using this program,
 the user acknowledges that Gaussian, Inc. is engaged in the
 business of creating and licensing software in the field of
 computational chemistry and represents and warrants to the
 licensee that it is not a competitor of Gaussian, Inc. and that
 it will not use this program in any manner prohibited above.
 ---------------------------------------------------------------
  

 Cite this work as:
 Gaussian 16, Revision A.03,
 M. J. Frisch, G. W. Trucks, H. B. Schlegel, G. E. Scuseria, 
 M. A. Robb, J. R. Cheeseman, G. Scalmani, V. Barone, 
 G. A. Petersson, H. Nakatsuji, X. Li, M. Caricato, A. V. Marenich, 
 J. Bloino, B. G. Janesko, R. Gomperts, B. Mennucci, H. P. Hratchian, 
 J. V. Ortiz, A. F. Izmaylov, J. L. Sonnenberg, D. Williams-Young, 
 F. Ding, F. Lipparini, F. Egidi, J. Goings, B. Peng, A. Petrone, 
 T. Henderson, D. Ranasinghe, V. G. Zakrzewski, J. Gao, N. Rega, 
 G. Zheng, W. Liang, M. Hada, M. Ehara, K. Toyota, R. Fukuda, 
 J. Hasegawa, M. Ishida, T. Nakajima, Y. Honda, O. Kitao, H. Nakai, 
 T. Vreven, K. Throssell, J. A. Montgomery, Jr., J. E. Peralta, 
 F. Ogliaro, M. J. Bearpark, J. J. Heyd, E. N. Brothers, K. N. Kudin, 
 V. N. Staroverov, T. A. Keith, R. Kobayashi, J. Normand, 
 K. Raghavachari, A. P. Rendell, J. C. Burant, S. S. Iyengar, 
 J. Tomasi, M. Cossi, J. M. Millam, M. Klene, C. Adamo, R. Cammi, 
 J. W. Ochterski, R. L. Martin, K. Morokuma, O. Farkas, 
 J. B. Foresman, and D. J. Fox, Gaussian, Inc., Wallingford CT, 2016.
 
 ******************************************
 Gaussian 16:  ES64L-G16RevA.03 25-Dec-2016
                18-Jul-2024 
 ******************************************
 %nprocshared=10
 Will use up to   10 processors via shared memory.
 %mem=20GB
 %Chk=PICLBAFTFYTURY-HQZQWKOLSA-N_conf_1_0.chk
 -------------------------------------------------------
 # opt=CalcFc B3LYP/6-31G** SCRF=(Solvent=water) scf=xqc
 -------------------------------------------------------
 1/10=4,18=20,19=15,26=3,38=1/1,3;
 2/9=110,12=2,17=6,18=5,40=1/2;
 3/5=1,6=6,7=101,11=2,25=1,30=1,70=2201,71=2,72=1,74=-5,140=1/1,2,3;
 4//1;
 5/5=2,8=3,13=1,38=5,53=1/2,8;
 8/6=4,10=90,11=11/1;
 11/6=1,8=1,9=11,15=111,16=1/1,2,10;
 10/6=1,13=1/2;
 6/7=2,8=2,9=2,10=2,28=1/1;
 7/10=1,18=20,25=1/1,2,3,16;
 1/10=4,18=20,19=15,26=3/3(2);
 2/9=110/2;
 99//99;
 2/9=110/2;
 3/5=1,6=6,7=101,11=2,25=1,30=1,70=2205,71=1,72=1,74=-5/1,2,3;
 4/5=5,16=3,69=1/1;
 5/5=2,8=3,13=1,38=5,53=1/2,8;
 7//1,2,3,16;
 1/18=20,19=15,26=3/3(-5);
 2/9=110/2;
 6/7=2,8=2,9=2,10=2,19=2,28=1/1;
 99/9=1/99;
 ----------------------------------
 PICLBAFTFYTURY-HQZQWKOLSA-N_conf_1
 ----------------------------------
 Symbolic Z-matrix:
 Charge =  0 Multiplicity = 1
 C                     5.51221   2.4444    1.01734 
 C                     5.69612   1.03238   1.55913 
 C                     6.08983  -0.02252   0.50469 
 N                     5.17003  -0.09582  -0.63832 
 C                     3.80573  -0.54405  -0.32622 
 C                     2.93944  -0.37583  -1.57901 
 C                     1.46715  -0.71979  -1.31982 
 C                     1.24335  -1.66776  -0.13045 
 C                    -0.11415  -2.4064   -0.18933 
 C                    -1.40744  -1.57766  -0.01209 
 C                    -1.32742  -0.52762   1.09864 
 C                    -2.68844   0.11833   1.39159 
 C                    -3.6739    0.0765    0.20386 
 N                    -4.65775   1.15144   0.3817 
 C                    -5.89385   0.99443  -0.39628 
 C                    -6.85231  -0.00253   0.26286 
 C                    -6.55312   2.37869  -0.58303 
 C                    -6.95761   3.09555   0.69983 
 C                    -2.90169   0.20679  -1.11397 
 C                    -1.92689  -0.96178  -1.32363 
 C                     2.39663  -2.6803   -0.05688 
 C                     3.75765  -2.0065    0.15403 
 C                     7.49758   0.24774  -0.04114 
 H                     6.43365   2.82447   0.56639 
 H                     5.23905   3.12365   1.83142 
 H                     4.71605   2.48593   0.26846 
 H                     4.77415   0.72505   2.06521 
 H                     6.46699   1.05803   2.34009 
 H                     6.13478  -0.99744   1.00489 
 H                     5.56476  -0.70262  -1.3581 
 H                     3.37748   0.10634   0.44701 
 H                     3.00091   0.65103  -1.96156 
 H                     3.31883  -1.02545  -2.38061 
 H                     1.05998  -1.15393  -2.24135 
 H                     0.9146    0.21039  -1.14319 
 H                     1.27774  -1.08073   0.79562 
 H                    -0.11452  -3.15164   0.61873 
 H                    -0.17951  -2.98323  -1.12303 
 H                    -2.17147  -2.30711   0.29992 
 H                    -0.62596   0.26561   0.80652 
 H                    -0.93408  -0.96883   2.0221 
 H                    -3.15453  -0.38949   2.24695 
 H                    -2.50642   1.15207   1.72026 
 H                    -4.17752  -0.89769   0.22869 
 H                    -4.89776   1.23844   1.36972 
 H                    -5.66502   0.62928  -1.40486 
 H                    -6.44389  -1.01646   0.24509 
 H                    -7.05861   0.25347   1.30801 
 H                    -7.80616  -0.0282   -0.27358 
 H                    -7.442     2.26774  -1.21794 
 H                    -5.86011   3.02726  -1.13695 
 H                    -7.67475   2.51112   1.28131 
 H                    -7.42799   4.05324   0.45726 
 H                    -6.08733   3.30802   1.32698 
 H                    -2.33449   1.1468   -1.11206 
 H                    -3.57159   0.25527  -1.97852 
 H                    -1.11355  -0.61189  -1.96517 
 H                    -2.4351   -1.75086  -1.89389 
 H                     2.42514  -3.26162  -0.98763 
 H                     2.23265  -3.40304   0.75187 
 H                     4.5202   -2.61419  -0.3531 
 H                     4.00901  -2.0365    1.22244 
 H                     8.22155   0.34228   0.77648 
 H                     7.54135   1.16476  -0.6386 
 H                     7.83234  -0.577    -0.6813 
 

 GradGradGradGradGradGradGradGradGradGradGradGradGradGradGradGradGradGrad
 Berny optimization.
 Initialization pass.
                           ----------------------------
                           !    Initial Parameters    !
                           ! (Angstroms and Degrees)  !
 --------------------------                            --------------------------
 ! Name  Definition              Value          Derivative Info.                !
 --------------------------------------------------------------------------------
 ! R1    R(1,2)                  1.5235         calculate D2E/DX2 analytically  !
 ! R2    R(1,24)                 1.094          calculate D2E/DX2 analytically  !
 ! R3    R(1,25)                 1.0949         calculate D2E/DX2 analytically  !
 ! R4    R(1,26)                 1.0938         calculate D2E/DX2 analytically  !
 ! R5    R(2,3)                  1.5426         calculate D2E/DX2 analytically  !
 ! R6    R(2,27)                 1.0957         calculate D2E/DX2 analytically  !
 ! R7    R(2,28)                 1.0976         calculate D2E/DX2 analytically  !
 ! R8    R(3,4)                  1.469          calculate D2E/DX2 analytically  !
 ! R9    R(3,23)                 1.5339         calculate D2E/DX2 analytically  !
 ! R10   R(3,29)                 1.0967         calculate D2E/DX2 analytically  !
 ! R11   R(4,5)                  1.4696         calculate D2E/DX2 analytically  !
 ! R12   R(4,30)                 1.0208         calculate D2E/DX2 analytically  !
 ! R13   R(5,6)                  1.5324         calculate D2E/DX2 analytically  !
 ! R14   R(5,22)                 1.54           calculate D2E/DX2 analytically  !
 ! R15   R(5,31)                 1.0974         calculate D2E/DX2 analytically  !
 ! R16   R(6,7)                  1.534          calculate D2E/DX2 analytically  !
 ! R17   R(6,32)                 1.0975         calculate D2E/DX2 analytically  !
 ! R18   R(6,33)                 1.0993         calculate D2E/DX2 analytically  !
 ! R19   R(7,8)                  1.5373         calculate D2E/DX2 analytically  !
 ! R20   R(7,34)                 1.097          calculate D2E/DX2 analytically  !
 ! R21   R(7,35)                 1.0962         calculate D2E/DX2 analytically  !
 ! R22   R(8,9)                  1.5466         calculate D2E/DX2 analytically  !
 ! R23   R(8,21)                 1.5365         calculate D2E/DX2 analytically  !
 ! R24   R(8,36)                 1.097          calculate D2E/DX2 analytically  !
 ! R25   R(9,10)                 1.5462         calculate D2E/DX2 analytically  !
 ! R26   R(9,37)                 1.0992         calculate D2E/DX2 analytically  !
 ! R27   R(9,38)                 1.0994         calculate D2E/DX2 analytically  !
 ! R28   R(10,11)                1.5306         calculate D2E/DX2 analytically  !
 ! R29   R(10,20)                1.5392         calculate D2E/DX2 analytically  !
 ! R30   R(10,39)                1.1014         calculate D2E/DX2 analytically  !
 ! R31   R(11,12)                1.5347         calculate D2E/DX2 analytically  !
 ! R32   R(11,40)                1.0985         calculate D2E/DX2 analytically  !
 ! R33   R(11,41)                1.0964         calculate D2E/DX2 analytically  !
 ! R34   R(12,13)                1.5439         calculate D2E/DX2 analytically  !
 ! R35   R(12,42)                1.0985         calculate D2E/DX2 analytically  !
 ! R36   R(12,43)                1.0999         calculate D2E/DX2 analytically  !
 ! R37   R(13,14)                1.468          calculate D2E/DX2 analytically  !
 ! R38   R(13,19)                1.533          calculate D2E/DX2 analytically  !
 ! R39   R(13,44)                1.097          calculate D2E/DX2 analytically  !
 ! R40   R(14,15)                1.469          calculate D2E/DX2 analytically  !
 ! R41   R(14,45)                1.0205         calculate D2E/DX2 analytically  !
 ! R42   R(15,16)                1.532          calculate D2E/DX2 analytically  !
 ! R43   R(15,17)                1.5446         calculate D2E/DX2 analytically  !
 ! R44   R(15,46)                1.0968         calculate D2E/DX2 analytically  !
 ! R45   R(16,47)                1.0932         calculate D2E/DX2 analytically  !
 ! R46   R(16,48)                1.0956         calculate D2E/DX2 analytically  !
 ! R47   R(16,49)                1.0947         calculate D2E/DX2 analytically  !
 ! R48   R(17,18)                1.5242         calculate D2E/DX2 analytically  !
 ! R49   R(17,50)                1.098          calculate D2E/DX2 analytically  !
 ! R50   R(17,51)                1.099          calculate D2E/DX2 analytically  !
 ! R51   R(18,52)                1.0927         calculate D2E/DX2 analytically  !
 ! R52   R(18,53)                1.0942         calculate D2E/DX2 analytically  !
 ! R53   R(18,54)                1.0935         calculate D2E/DX2 analytically  !
 ! R54   R(19,20)                1.5361         calculate D2E/DX2 analytically  !
 ! R55   R(19,55)                1.0979         calculate D2E/DX2 analytically  !
 ! R56   R(19,56)                1.0948         calculate D2E/DX2 analytically  !
 ! R57   R(20,57)                1.0934         calculate D2E/DX2 analytically  !
 ! R58   R(20,58)                1.0982         calculate D2E/DX2 analytically  !
 ! R59   R(21,22)                1.5333         calculate D2E/DX2 analytically  !
 ! R60   R(21,59)                1.0977         calculate D2E/DX2 analytically  !
 ! R61   R(21,60)                1.097          calculate D2E/DX2 analytically  !
 ! R62   R(22,61)                1.0991         calculate D2E/DX2 analytically  !
 ! R63   R(22,62)                1.098          calculate D2E/DX2 analytically  !
 ! R64   R(23,63)                1.0962         calculate D2E/DX2 analytically  !
 ! R65   R(23,64)                1.0954         calculate D2E/DX2 analytically  !
 ! R66   R(23,65)                1.0964         calculate D2E/DX2 analytically  !
 ! A1    A(2,1,24)             111.5241         calculate D2E/DX2 analytically  !
 ! A2    A(2,1,25)             109.9188         calculate D2E/DX2 analytically  !
 ! A3    A(2,1,26)             111.5019         calculate D2E/DX2 analytically  !
 ! A4    A(24,1,25)            107.5234         calculate D2E/DX2 analytically  !
 ! A5    A(24,1,26)            108.5211         calculate D2E/DX2 analytically  !
 ! A6    A(25,1,26)            107.6928         calculate D2E/DX2 analytically  !
 ! A7    A(1,2,3)              114.9305         calculate D2E/DX2 analytically  !
 ! A8    A(1,2,27)             108.8221         calculate D2E/DX2 analytically  !
 ! A9    A(1,2,28)             108.4299         calculate D2E/DX2 analytically  !
 ! A10   A(3,2,27)             109.7945         calculate D2E/DX2 analytically  !
 ! A11   A(3,2,28)             108.8485         calculate D2E/DX2 analytically  !
 ! A12   A(27,2,28)            105.5973         calculate D2E/DX2 analytically  !
 ! A13   A(2,3,4)              113.9651         calculate D2E/DX2 analytically  !
 ! A14   A(2,3,23)             110.9153         calculate D2E/DX2 analytically  !
 ! A15   A(2,3,29)             107.8555         calculate D2E/DX2 analytically  !
 ! A16   A(4,3,23)             107.8524         calculate D2E/DX2 analytically  !
 ! A17   A(4,3,29)             109.6455         calculate D2E/DX2 analytically  !
 ! A18   A(23,3,29)            106.3395         calculate D2E/DX2 analytically  !
 ! A19   A(3,4,5)              115.548          calculate D2E/DX2 analytically  !
 ! A20   A(3,4,30)             109.6439         calculate D2E/DX2 analytically  !
 ! A21   A(5,4,30)             109.1125         calculate D2E/DX2 analytically  !
 ! A22   A(4,5,6)              108.5245         calculate D2E/DX2 analytically  !
 ! A23   A(4,5,22)             112.6343         calculate D2E/DX2 analytically  !
 ! A24   A(4,5,31)             109.3386         calculate D2E/DX2 analytically  !
 ! A25   A(6,5,22)             109.9712         calculate D2E/DX2 analytically  !
 ! A26   A(6,5,31)             106.8804         calculate D2E/DX2 analytically  !
 ! A27   A(22,5,31)            109.3235         calculate D2E/DX2 analytically  !
 ! A28   A(5,6,7)              112.3226         calculate D2E/DX2 analytically  !
 ! A29   A(5,6,32)             110.8553         calculate D2E/DX2 analytically  !
 ! A30   A(5,6,33)             109.643          calculate D2E/DX2 analytically  !
 ! A31   A(7,6,32)             108.8105         calculate D2E/DX2 analytically  !
 ! A32   A(7,6,33)             108.7797         calculate D2E/DX2 analytically  !
 ! A33   A(32,6,33)            106.2245         calculate D2E/DX2 analytically  !
 ! A34   A(6,7,8)              114.1244         calculate D2E/DX2 analytically  !
 ! A35   A(6,7,34)             107.6395         calculate D2E/DX2 analytically  !
 ! A36   A(6,7,35)             108.7071         calculate D2E/DX2 analytically  !
 ! A37   A(8,7,34)             110.5995         calculate D2E/DX2 analytically  !
 ! A38   A(8,7,35)             108.9775         calculate D2E/DX2 analytically  !
 ! A39   A(34,7,35)            106.5025         calculate D2E/DX2 analytically  !
 ! A40   A(7,8,9)              113.1311         calculate D2E/DX2 analytically  !
 ! A41   A(7,8,21)             109.5205         calculate D2E/DX2 analytically  !
 ! A42   A(7,8,36)             108.577          calculate D2E/DX2 analytically  !
 ! A43   A(9,8,21)             110.2386         calculate D2E/DX2 analytically  !
 ! A44   A(9,8,36)             108.3746         calculate D2E/DX2 analytically  !
 ! A45   A(21,8,36)            106.7803         calculate D2E/DX2 analytically  !
 ! A46   A(8,9,10)             118.2826         calculate D2E/DX2 analytically  !
 ! A47   A(8,9,37)             107.2239         calculate D2E/DX2 analytically  !
 ! A48   A(8,9,38)             109.5781         calculate D2E/DX2 analytically  !
 ! A49   A(10,9,37)            106.1893         calculate D2E/DX2 analytically  !
 ! A50   A(10,9,38)            109.1972         calculate D2E/DX2 analytically  !
 ! A51   A(37,9,38)            105.579          calculate D2E/DX2 analytically  !
 ! A52   A(9,10,11)            114.0263         calculate D2E/DX2 analytically  !
 ! A53   A(9,10,20)            113.5186         calculate D2E/DX2 analytically  !
 ! A54   A(9,10,39)            104.934          calculate D2E/DX2 analytically  !
 ! A55   A(11,10,20)           111.1912         calculate D2E/DX2 analytically  !
 ! A56   A(11,10,39)           106.5609         calculate D2E/DX2 analytically  !
 ! A57   A(20,10,39)           105.7987         calculate D2E/DX2 analytically  !
 ! A58   A(10,11,12)           112.3893         calculate D2E/DX2 analytically  !
 ! A59   A(10,11,40)           109.6212         calculate D2E/DX2 analytically  !
 ! A60   A(10,11,41)           110.7256         calculate D2E/DX2 analytically  !
 ! A61   A(12,11,40)           108.2484         calculate D2E/DX2 analytically  !
 ! A62   A(12,11,41)           109.0712         calculate D2E/DX2 analytically  !
 ! A63   A(40,11,41)           106.5877         calculate D2E/DX2 analytically  !
 ! A64   A(11,12,13)           114.0667         calculate D2E/DX2 analytically  !
 ! A65   A(11,12,42)           109.2878         calculate D2E/DX2 analytically  !
 ! A66   A(11,12,43)           107.8093         calculate D2E/DX2 analytically  !
 ! A67   A(13,12,42)           108.4017         calculate D2E/DX2 analytically  !
 ! A68   A(13,12,43)           111.1606         calculate D2E/DX2 analytically  !
 ! A69   A(42,12,43)           105.7838         calculate D2E/DX2 analytically  !
 ! A70   A(12,13,14)           108.3458         calculate D2E/DX2 analytically  !
 ! A71   A(12,13,19)           109.7255         calculate D2E/DX2 analytically  !
 ! A72   A(12,13,44)           107.4393         calculate D2E/DX2 analytically  !
 ! A73   A(14,13,19)           112.3034         calculate D2E/DX2 analytically  !
 ! A74   A(14,13,44)           109.8677         calculate D2E/DX2 analytically  !
 ! A75   A(19,13,44)           109.039          calculate D2E/DX2 analytically  !
 ! A76   A(13,14,15)           114.9314         calculate D2E/DX2 analytically  !
 ! A77   A(13,14,45)           109.7148         calculate D2E/DX2 analytically  !
 ! A78   A(15,14,45)           108.9033         calculate D2E/DX2 analytically  !
 ! A79   A(14,15,16)           111.601          calculate D2E/DX2 analytically  !
 ! A80   A(14,15,17)           109.1118         calculate D2E/DX2 analytically  !
 ! A81   A(14,15,46)           110.3062         calculate D2E/DX2 analytically  !
 ! A82   A(16,15,17)           111.6047         calculate D2E/DX2 analytically  !
 ! A83   A(16,15,46)           108.0307         calculate D2E/DX2 analytically  !
 ! A84   A(17,15,46)           106.0361         calculate D2E/DX2 analytically  !
 ! A85   A(15,16,47)           111.2736         calculate D2E/DX2 analytically  !
 ! A86   A(15,16,48)           112.0967         calculate D2E/DX2 analytically  !
 ! A87   A(15,16,49)           110.4606         calculate D2E/DX2 analytically  !
 ! A88   A(47,16,48)           107.6109         calculate D2E/DX2 analytically  !
 ! A89   A(47,16,49)           107.2062         calculate D2E/DX2 analytically  !
 ! A90   A(48,16,49)           107.9925         calculate D2E/DX2 analytically  !
 ! A91   A(15,17,18)           115.6583         calculate D2E/DX2 analytically  !
 ! A92   A(15,17,50)           108.9597         calculate D2E/DX2 analytically  !
 ! A93   A(15,17,51)           108.7051         calculate D2E/DX2 analytically  !
 ! A94   A(18,17,50)           108.6256         calculate D2E/DX2 analytically  !
 ! A95   A(18,17,51)           108.3006         calculate D2E/DX2 analytically  !
 ! A96   A(50,17,51)           106.1821         calculate D2E/DX2 analytically  !
 ! A97   A(17,18,52)           111.747          calculate D2E/DX2 analytically  !
 ! A98   A(17,18,53)           109.8236         calculate D2E/DX2 analytically  !
 ! A99   A(17,18,54)           111.2772         calculate D2E/DX2 analytically  !
 ! A100  A(52,18,53)           107.6957         calculate D2E/DX2 analytically  !
 ! A101  A(52,18,54)           108.7262         calculate D2E/DX2 analytically  !
 ! A102  A(53,18,54)           107.4094         calculate D2E/DX2 analytically  !
 ! A103  A(13,19,20)           111.8601         calculate D2E/DX2 analytically  !
 ! A104  A(13,19,55)           109.3614         calculate D2E/DX2 analytically  !
 ! A105  A(13,19,56)           111.9873         calculate D2E/DX2 analytically  !
 ! A106  A(20,19,55)           108.8882         calculate D2E/DX2 analytically  !
 ! A107  A(20,19,56)           108.3125         calculate D2E/DX2 analytically  !
 ! A108  A(55,19,56)           106.2348         calculate D2E/DX2 analytically  !
 ! A109  A(10,20,19)           113.7176         calculate D2E/DX2 analytically  !
 ! A110  A(10,20,57)           112.1451         calculate D2E/DX2 analytically  !
 ! A111  A(10,20,58)           108.1266         calculate D2E/DX2 analytically  !
 ! A112  A(19,20,57)           107.98           calculate D2E/DX2 analytically  !
 ! A113  A(19,20,58)           108.8926         calculate D2E/DX2 analytically  !
 ! A114  A(57,20,58)           105.6331         calculate D2E/DX2 analytically  !
 ! A115  A(8,21,22)            112.5365         calculate D2E/DX2 analytically  !
 ! A116  A(8,21,59)            109.1401         calculate D2E/DX2 analytically  !
 ! A117  A(8,21,60)            110.9338         calculate D2E/DX2 analytically  !
 ! A118  A(22,21,59)           109.0441         calculate D2E/DX2 analytically  !
 ! A119  A(22,21,60)           108.7129         calculate D2E/DX2 analytically  !
 ! A120  A(59,21,60)           106.2649         calculate D2E/DX2 analytically  !
 ! A121  A(5,22,21)            113.7115         calculate D2E/DX2 analytically  !
 ! A122  A(5,22,61)            111.0705         calculate D2E/DX2 analytically  !
 ! A123  A(5,22,62)            108.799          calculate D2E/DX2 analytically  !
 ! A124  A(21,22,61)           108.0242         calculate D2E/DX2 analytically  !
 ! A125  A(21,22,62)           108.9682         calculate D2E/DX2 analytically  !
 ! A126  A(61,22,62)           105.965          calculate D2E/DX2 analytically  !
 ! A127  A(3,23,63)            110.8497         calculate D2E/DX2 analytically  !
 ! A128  A(3,23,64)            112.2276         calculate D2E/DX2 analytically  !
 ! A129  A(3,23,65)            110.8218         calculate D2E/DX2 analytically  !
 ! A130  A(63,23,64)           107.9539         calculate D2E/DX2 analytically  !
 ! A131  A(63,23,65)           107.3815         calculate D2E/DX2 analytically  !
 ! A132  A(64,23,65)           107.4028         calculate D2E/DX2 analytically  !
 ! D1    D(24,1,2,3)           -60.625          calculate D2E/DX2 analytically  !
 ! D2    D(24,1,2,27)          175.8029         calculate D2E/DX2 analytically  !
 ! D3    D(24,1,2,28)           61.409          calculate D2E/DX2 analytically  !
 ! D4    D(25,1,2,3)          -179.7803         calculate D2E/DX2 analytically  !
 ! D5    D(25,1,2,27)           56.6476         calculate D2E/DX2 analytically  !
 ! D6    D(25,1,2,28)          -57.7463         calculate D2E/DX2 analytically  !
 ! D7    D(26,1,2,3)            60.8671         calculate D2E/DX2 analytically  !
 ! D8    D(26,1,2,27)          -62.705          calculate D2E/DX2 analytically  !
 ! D9    D(26,1,2,28)         -177.099          calculate D2E/DX2 analytically  !
 ! D10   D(1,2,3,4)            -54.8339         calculate D2E/DX2 analytically  !
 ! D11   D(1,2,3,23)            67.1058         calculate D2E/DX2 analytically  !
 ! D12   D(1,2,3,29)          -176.8207         calculate D2E/DX2 analytically  !
 ! D13   D(27,2,3,4)            68.2198         calculate D2E/DX2 analytically  !
 ! D14   D(27,2,3,23)         -169.8406         calculate D2E/DX2 analytically  !
 ! D15   D(27,2,3,29)          -53.7671         calculate D2E/DX2 analytically  !
 ! D16   D(28,2,3,4)          -176.6412         calculate D2E/DX2 analytically  !
 ! D17   D(28,2,3,23)          -54.7015         calculate D2E/DX2 analytically  !
 ! D18   D(28,2,3,29)           61.372          calculate D2E/DX2 analytically  !
 ! D19   D(2,3,4,5)            -64.979          calculate D2E/DX2 analytically  !
 ! D20   D(2,3,4,30)           171.2444         calculate D2E/DX2 analytically  !
 ! D21   D(23,3,4,5)           171.4074         calculate D2E/DX2 analytically  !
 ! D22   D(23,3,4,30)           47.6308         calculate D2E/DX2 analytically  !
 ! D23   D(29,3,4,5)            56.0158         calculate D2E/DX2 analytically  !
 ! D24   D(29,3,4,30)          -67.7608         calculate D2E/DX2 analytically  !
 ! D25   D(2,3,23,63)           52.8376         calculate D2E/DX2 analytically  !
 ! D26   D(2,3,23,64)          -67.9575         calculate D2E/DX2 analytically  !
 ! D27   D(2,3,23,65)          171.9707         calculate D2E/DX2 analytically  !
 ! D28   D(4,3,23,63)          178.2821         calculate D2E/DX2 analytically  !
 ! D29   D(4,3,23,64)           57.487          calculate D2E/DX2 analytically  !
 ! D30   D(4,3,23,65)          -62.5848         calculate D2E/DX2 analytically  !
 ! D31   D(29,3,23,63)         -64.1696         calculate D2E/DX2 analytically  !
 ! D32   D(29,3,23,64)         175.0353         calculate D2E/DX2 analytically  !
 ! D33   D(29,3,23,65)          54.9635         calculate D2E/DX2 analytically  !
 ! D34   D(3,4,5,6)            172.2209         calculate D2E/DX2 analytically  !
 ! D35   D(3,4,5,22)           -65.7749         calculate D2E/DX2 analytically  !
 ! D36   D(3,4,5,31)            55.9799         calculate D2E/DX2 analytically  !
 ! D37   D(30,4,5,6)           -63.7245         calculate D2E/DX2 analytically  !
 ! D38   D(30,4,5,22)           58.2798         calculate D2E/DX2 analytically  !
 ! D39   D(30,4,5,31)         -179.9655         calculate D2E/DX2 analytically  !
 ! D40   D(4,5,6,7)           -175.6717         calculate D2E/DX2 analytically  !
 ! D41   D(4,5,6,32)           -53.7054         calculate D2E/DX2 analytically  !
 ! D42   D(4,5,6,33)            63.2595         calculate D2E/DX2 analytically  !
 ! D43   D(22,5,6,7)            60.7131         calculate D2E/DX2 analytically  !
 ! D44   D(22,5,6,32)         -177.3206         calculate D2E/DX2 analytically  !
 ! D45   D(22,5,6,33)          -60.3557         calculate D2E/DX2 analytically  !
 ! D46   D(31,5,6,7)           -57.8548         calculate D2E/DX2 analytically  !
 ! D47   D(31,5,6,32)           64.1115         calculate D2E/DX2 analytically  !
 ! D48   D(31,5,6,33)         -178.9236         calculate D2E/DX2 analytically  !
 ! D49   D(4,5,22,21)         -156.3601         calculate D2E/DX2 analytically  !
 ! D50   D(4,5,22,61)          -34.2613         calculate D2E/DX2 analytically  !
 ! D51   D(4,5,22,62)           82.0034         calculate D2E/DX2 analytically  !
 ! D52   D(6,5,22,21)          -35.1772         calculate D2E/DX2 analytically  !
 ! D53   D(6,5,22,61)           86.9216         calculate D2E/DX2 analytically  !
 ! D54   D(6,5,22,62)         -156.8136         calculate D2E/DX2 analytically  !
 ! D55   D(31,5,22,21)          81.8766         calculate D2E/DX2 analytically  !
 ! D56   D(31,5,22,61)        -156.0246         calculate D2E/DX2 analytically  !
 ! D57   D(31,5,22,62)         -39.7599         calculate D2E/DX2 analytically  !
 ! D58   D(5,6,7,8)            -23.6871         calculate D2E/DX2 analytically  !
 ! D59   D(5,6,7,34)          -146.8433         calculate D2E/DX2 analytically  !
 ! D60   D(5,6,7,35)            98.1723         calculate D2E/DX2 analytically  !
 ! D61   D(32,6,7,8)          -146.8092         calculate D2E/DX2 analytically  !
 ! D62   D(32,6,7,34)           90.0346         calculate D2E/DX2 analytically  !
 ! D63   D(32,6,7,35)          -24.9498         calculate D2E/DX2 analytically  !
 ! D64   D(33,6,7,8)            97.8761         calculate D2E/DX2 analytically  !
 ! D65   D(33,6,7,34)          -25.2801         calculate D2E/DX2 analytically  !
 ! D66   D(33,6,7,35)         -140.2645         calculate D2E/DX2 analytically  !
 ! D67   D(6,7,8,9)           -158.8104         calculate D2E/DX2 analytically  !
 ! D68   D(6,7,8,21)           -35.4054         calculate D2E/DX2 analytically  !
 ! D69   D(6,7,8,36)            80.8451         calculate D2E/DX2 analytically  !
 ! D70   D(34,7,8,9)           -37.2747         calculate D2E/DX2 analytically  !
 ! D71   D(34,7,8,21)           86.1303         calculate D2E/DX2 analytically  !
 ! D72   D(34,7,8,36)         -157.6192         calculate D2E/DX2 analytically  !
 ! D73   D(35,7,8,9)            79.4791         calculate D2E/DX2 analytically  !
 ! D74   D(35,7,8,21)         -157.1159         calculate D2E/DX2 analytically  !
 ! D75   D(35,7,8,36)          -40.8654         calculate D2E/DX2 analytically  !
 ! D76   D(7,8,9,10)           -67.7847         calculate D2E/DX2 analytically  !
 ! D77   D(7,8,9,37)           172.3293         calculate D2E/DX2 analytically  !
 ! D78   D(7,8,9,38)            58.2071         calculate D2E/DX2 analytically  !
 ! D79   D(21,8,9,10)          169.2069         calculate D2E/DX2 analytically  !
 ! D80   D(21,8,9,37)           49.321          calculate D2E/DX2 analytically  !
 ! D81   D(21,8,9,38)          -64.8013         calculate D2E/DX2 analytically  !
 ! D82   D(36,8,9,10)           52.675          calculate D2E/DX2 analytically  !
 ! D83   D(36,8,9,37)          -67.2109         calculate D2E/DX2 analytically  !
 ! D84   D(36,8,9,38)          178.6668         calculate D2E/DX2 analytically  !
 ! D85   D(7,8,21,22)           61.014          calculate D2E/DX2 analytically  !
 ! D86   D(7,8,21,59)          -60.1818         calculate D2E/DX2 analytically  !
 ! D87   D(7,8,21,60)         -176.9374         calculate D2E/DX2 analytically  !
 ! D88   D(9,8,21,22)         -173.8915         calculate D2E/DX2 analytically  !
 ! D89   D(9,8,21,59)           64.9127         calculate D2E/DX2 analytically  !
 ! D90   D(9,8,21,60)          -51.8429         calculate D2E/DX2 analytically  !
 ! D91   D(36,8,21,22)         -56.3694         calculate D2E/DX2 analytically  !
 ! D92   D(36,8,21,59)        -177.5652         calculate D2E/DX2 analytically  !
 ! D93   D(36,8,21,60)          65.6792         calculate D2E/DX2 analytically  !
 ! D94   D(8,9,10,11)          -42.3863         calculate D2E/DX2 analytically  !
 ! D95   D(8,9,10,20)           86.342          calculate D2E/DX2 analytically  !
 ! D96   D(8,9,10,39)         -158.61           calculate D2E/DX2 analytically  !
 ! D97   D(37,9,10,11)          78.0342         calculate D2E/DX2 analytically  !
 ! D98   D(37,9,10,20)        -153.2375         calculate D2E/DX2 analytically  !
 ! D99   D(37,9,10,39)         -38.1896         calculate D2E/DX2 analytically  !
 ! D100  D(38,9,10,11)        -168.562          calculate D2E/DX2 analytically  !
 ! D101  D(38,9,10,20)         -39.8337         calculate D2E/DX2 analytically  !
 ! D102  D(38,9,10,39)          75.2142         calculate D2E/DX2 analytically  !
 ! D103  D(9,10,11,12)        -171.0029         calculate D2E/DX2 analytically  !
 ! D104  D(9,10,11,40)          68.5724         calculate D2E/DX2 analytically  !
 ! D105  D(9,10,11,41)         -48.7467         calculate D2E/DX2 analytically  !
 ! D106  D(20,10,11,12)         59.0998         calculate D2E/DX2 analytically  !
 ! D107  D(20,10,11,40)        -61.3249         calculate D2E/DX2 analytically  !
 ! D108  D(20,10,11,41)       -178.6439         calculate D2E/DX2 analytically  !
 ! D109  D(39,10,11,12)        -55.7304         calculate D2E/DX2 analytically  !
 ! D110  D(39,10,11,40)       -176.1551         calculate D2E/DX2 analytically  !
 ! D111  D(39,10,11,41)         66.5258         calculate D2E/DX2 analytically  !
 ! D112  D(9,10,20,19)        -160.9746         calculate D2E/DX2 analytically  !
 ! D113  D(9,10,20,57)         -38.0993         calculate D2E/DX2 analytically  !
 ! D114  D(9,10,20,58)          77.9638         calculate D2E/DX2 analytically  !
 ! D115  D(11,10,20,19)        -30.8111         calculate D2E/DX2 analytically  !
 ! D116  D(11,10,20,57)         92.0642         calculate D2E/DX2 analytically  !
 ! D117  D(11,10,20,58)       -151.8727         calculate D2E/DX2 analytically  !
 ! D118  D(39,10,20,19)         84.492          calculate D2E/DX2 analytically  !
 ! D119  D(39,10,20,57)       -152.6327         calculate D2E/DX2 analytically  !
 ! D120  D(39,10,20,58)        -36.5696         calculate D2E/DX2 analytically  !
 ! D121  D(10,11,12,13)        -24.932          calculate D2E/DX2 analytically  !
 ! D122  D(10,11,12,42)         96.5741         calculate D2E/DX2 analytically  !
 ! D123  D(10,11,12,43)       -148.8997         calculate D2E/DX2 analytically  !
 ! D124  D(40,11,12,13)         96.2821         calculate D2E/DX2 analytically  !
 ! D125  D(40,11,12,42)       -142.2118         calculate D2E/DX2 analytically  !
 ! D126  D(40,11,12,43)        -27.6856         calculate D2E/DX2 analytically  !
 ! D127  D(41,11,12,13)       -148.1204         calculate D2E/DX2 analytically  !
 ! D128  D(41,11,12,42)        -26.6143         calculate D2E/DX2 analytically  !
 ! D129  D(41,11,12,43)         87.912          calculate D2E/DX2 analytically  !
 ! D130  D(11,12,13,14)       -156.9182         calculate D2E/DX2 analytically  !
 ! D131  D(11,12,13,19)        -33.9853         calculate D2E/DX2 analytically  !
 ! D132  D(11,12,13,44)         84.4312         calculate D2E/DX2 analytically  !
 ! D133  D(42,12,13,14)         81.087          calculate D2E/DX2 analytically  !
 ! D134  D(42,12,13,19)       -155.9801         calculate D2E/DX2 analytically  !
 ! D135  D(42,12,13,44)        -37.5636         calculate D2E/DX2 analytically  !
 ! D136  D(43,12,13,14)        -34.7729         calculate D2E/DX2 analytically  !
 ! D137  D(43,12,13,19)         88.16           calculate D2E/DX2 analytically  !
 ! D138  D(43,12,13,44)       -153.4235         calculate D2E/DX2 analytically  !
 ! D139  D(12,13,14,15)       -161.1928         calculate D2E/DX2 analytically  !
 ! D140  D(12,13,14,45)        -38.0938         calculate D2E/DX2 analytically  !
 ! D141  D(19,13,14,15)         77.4505         calculate D2E/DX2 analytically  !
 ! D142  D(19,13,14,45)       -159.4505         calculate D2E/DX2 analytically  !
 ! D143  D(44,13,14,15)        -44.0922         calculate D2E/DX2 analytically  !
 ! D144  D(44,13,14,45)         79.0068         calculate D2E/DX2 analytically  !
 ! D145  D(12,13,19,20)         62.3737         calculate D2E/DX2 analytically  !
 ! D146  D(12,13,19,55)        -58.3361         calculate D2E/DX2 analytically  !
 ! D147  D(12,13,19,56)       -175.8175         calculate D2E/DX2 analytically  !
 ! D148  D(14,13,19,20)       -177.0631         calculate D2E/DX2 analytically  !
 ! D149  D(14,13,19,55)         62.2271         calculate D2E/DX2 analytically  !
 ! D150  D(14,13,19,56)        -55.2543         calculate D2E/DX2 analytically  !
 ! D151  D(44,13,19,20)        -55.0479         calculate D2E/DX2 analytically  !
 ! D152  D(44,13,19,55)       -175.7577         calculate D2E/DX2 analytically  !
 ! D153  D(44,13,19,56)         66.7608         calculate D2E/DX2 analytically  !
 ! D154  D(13,14,15,16)         79.0414         calculate D2E/DX2 analytically  !
 ! D155  D(13,14,15,17)       -157.1574         calculate D2E/DX2 analytically  !
 ! D156  D(13,14,15,46)        -41.0566         calculate D2E/DX2 analytically  !
 ! D157  D(45,14,15,16)        -44.4902         calculate D2E/DX2 analytically  !
 ! D158  D(45,14,15,17)         79.311          calculate D2E/DX2 analytically  !
 ! D159  D(45,14,15,46)       -164.5882         calculate D2E/DX2 analytically  !
 ! D160  D(14,15,16,47)        -66.8808         calculate D2E/DX2 analytically  !
 ! D161  D(14,15,16,48)         53.6823         calculate D2E/DX2 analytically  !
 ! D162  D(14,15,16,49)        174.1666         calculate D2E/DX2 analytically  !
 ! D163  D(17,15,16,47)        170.7376         calculate D2E/DX2 analytically  !
 ! D164  D(17,15,16,48)        -68.6993         calculate D2E/DX2 analytically  !
 ! D165  D(17,15,16,49)         51.785          calculate D2E/DX2 analytically  !
 ! D166  D(46,15,16,47)         54.5462         calculate D2E/DX2 analytically  !
 ! D167  D(46,15,16,48)        175.1093         calculate D2E/DX2 analytically  !
 ! D168  D(46,15,16,49)        -64.4064         calculate D2E/DX2 analytically  !
 ! D169  D(14,15,17,18)        -60.8794         calculate D2E/DX2 analytically  !
 ! D170  D(14,15,17,50)        176.4591         calculate D2E/DX2 analytically  !
 ! D171  D(14,15,17,51)         61.1547         calculate D2E/DX2 analytically  !
 ! D172  D(16,15,17,18)         62.9196         calculate D2E/DX2 analytically  !
 ! D173  D(16,15,17,50)        -59.7419         calculate D2E/DX2 analytically  !
 ! D174  D(16,15,17,51)       -175.0463         calculate D2E/DX2 analytically  !
 ! D175  D(46,15,17,18)       -179.679          calculate D2E/DX2 analytically  !
 ! D176  D(46,15,17,50)         57.6595         calculate D2E/DX2 analytically  !
 ! D177  D(46,15,17,51)        -57.6449         calculate D2E/DX2 analytically  !
 ! D178  D(15,17,18,52)        -59.5754         calculate D2E/DX2 analytically  !
 ! D179  D(15,17,18,53)       -179.0254         calculate D2E/DX2 analytically  !
 ! D180  D(15,17,18,54)         62.1786         calculate D2E/DX2 analytically  !
 ! D181  D(50,17,18,52)         63.2629         calculate D2E/DX2 analytically  !
 ! D182  D(50,17,18,53)        -56.1871         calculate D2E/DX2 analytically  !
 ! D183  D(50,17,18,54)       -174.9831         calculate D2E/DX2 analytically  !
 ! D184  D(51,17,18,52)        178.1752         calculate D2E/DX2 analytically  !
 ! D185  D(51,17,18,53)         58.7251         calculate D2E/DX2 analytically  !
 ! D186  D(51,17,18,54)        -60.0709         calculate D2E/DX2 analytically  !
 ! D187  D(13,19,20,10)        -28.5664         calculate D2E/DX2 analytically  !
 ! D188  D(13,19,20,57)       -153.6973         calculate D2E/DX2 analytically  !
 ! D189  D(13,19,20,58)         92.0658         calculate D2E/DX2 analytically  !
 ! D190  D(55,19,20,10)         92.4181         calculate D2E/DX2 analytically  !
 ! D191  D(55,19,20,57)        -32.7128         calculate D2E/DX2 analytically  !
 ! D192  D(55,19,20,58)       -146.9497         calculate D2E/DX2 analytically  !
 ! D193  D(56,19,20,10)       -152.4637         calculate D2E/DX2 analytically  !
 ! D194  D(56,19,20,57)         82.4054         calculate D2E/DX2 analytically  !
 ! D195  D(56,19,20,58)        -31.8315         calculate D2E/DX2 analytically  !
 ! D196  D(8,21,22,5)          -24.1851         calculate D2E/DX2 analytically  !
 ! D197  D(8,21,22,61)        -147.9539         calculate D2E/DX2 analytically  !
 ! D198  D(8,21,22,62)          97.3573         calculate D2E/DX2 analytically  !
 ! D199  D(59,21,22,5)          97.0655         calculate D2E/DX2 analytically  !
 ! D200  D(59,21,22,61)        -26.7033         calculate D2E/DX2 analytically  !
 ! D201  D(59,21,22,62)       -141.3921         calculate D2E/DX2 analytically  !
 ! D202  D(60,21,22,5)        -147.4822         calculate D2E/DX2 analytically  !
 ! D203  D(60,21,22,61)         88.749          calculate D2E/DX2 analytically  !
 ! D204  D(60,21,22,62)        -25.9398         calculate D2E/DX2 analytically  !
 --------------------------------------------------------------------------------
 Trust Radius=3.00D-01 FncErr=1.00D-07 GrdErr=1.00D-06 EigMax=2.50D+02 EigMin=1.00D-04
 Number of steps in this run=    390 maximum allowed number of steps=    390.
 GradGradGradGradGradGradGradGradGradGradGradGradGradGradGradGradGradGrad

 Stoichiometry    C21H42N2
 Framework group  C1[X(C21H42N2)]
 Deg. of freedom   189
 Full point group                 C1      NOp   1
 Largest Abelian subgroup         C1      NOp   1
 Largest concise Abelian subgroup C1      NOp   1
                         Standard orientation:                         
 ---------------------------------------------------------------------
 Center     Atomic      Atomic             Coordinates (Angstroms)
 Number     Number       Type             X           Y           Z
 ---------------------------------------------------------------------
      1          6           0       -5.211861    3.197103   -0.141520
      2          6           0       -5.543901    2.006063   -1.031646
      3          6           0       -6.038126    0.751752   -0.281896
      4          7           0       -5.123961    0.286204    0.769513
      5          6           0       -3.815157   -0.193827    0.304486
      6          6           0       -2.928613   -0.451889    1.527462
      7          6           0       -1.501318   -0.856664    1.137447
      8          6           0       -1.383792   -1.469856   -0.267370
      9          6           0       -0.109527   -2.326685   -0.451611
     10          6           0        1.261367   -1.611526   -0.445950
     11          6           0        1.283567   -0.300447   -1.235438
     12          6           0        2.702244    0.263731   -1.391966
     13          6           0        3.685231   -0.190013   -0.291321
     14          7           0        4.773777    0.791645   -0.210675
     15          6           0        5.991700    0.312325    0.456225
     16          6           0        6.838069   -0.561362   -0.475106
     17          6           0        6.791541    1.524985    0.981002
     18          6           0        7.260192    2.515139   -0.078812
     19          6           0        2.938549   -0.341324    1.038910
     20          6           0        1.849535   -1.422134    0.963825
     21          6           0       -2.635915   -2.307972   -0.568110
     22          6           0       -3.921300   -1.472366   -0.547430
     23          6           0       -7.407116    1.003012    0.362666
     24          1           0       -6.086378    3.531331    0.424483
     25          1           0       -4.874897    4.038902   -0.755158
     26          1           0       -4.411177    2.958988    0.564621
     27          1           0       -4.661668    1.756231   -1.631523
     28          1           0       -6.312682    2.314669   -1.751741
     29          1           0       -6.186546   -0.044958   -1.020751
     30          1           0       -5.574927   -0.449044    1.315524
     31          1           0       -3.326680    0.594215   -0.282610
     32          1           0       -2.881377    0.436451    2.170255
     33          1           0       -3.368251   -1.251553    2.140462
     34          1           0       -1.135636   -1.558807    1.896898
     35          1           0       -0.856706    0.028141    1.195281
     36          1           0       -1.362921   -0.656444   -1.003111
     37          1           0       -0.190991   -2.825440   -1.427801
     38          1           0       -0.098483   -3.135390    0.293147
     39          1           0        1.944071   -2.302388   -0.965385
     40          1           0        0.669560    0.450740   -0.720349
     41          1           0        0.841208   -0.438350   -2.229148
     42          1           0        3.108229   -0.040402   -2.366361
     43          1           0        2.626005    1.360367   -1.428722
     44          1           0        4.085374   -1.166679   -0.590180
     45          1           0        5.015545    1.115343   -1.147768
     46          1           0        5.732440   -0.284614    1.339044
     47          1           0        6.327211   -1.498163   -0.713019
     48          1           0        7.063415   -0.057096   -1.421340
     49          1           0        7.787369   -0.822636    0.003250
     50          1           0        7.668004    1.162033    1.533812
     51          1           0        6.172578    2.066766    1.709757
     52          1           0        7.909621    2.039850   -0.817937
     53          1           0        7.828434    3.322443    0.393032
     54          1           0        6.412763    2.971534   -0.597864
     55          1           0        2.471481    0.615940    1.305070
     56          1           0        3.615064   -0.591292    1.862576
     57          1           0        1.080563   -1.178307    1.701903
     58          1           0        2.276931   -2.380665    1.287342
     59          1           0       -2.718723   -3.111004    0.175748
     60          1           0       -2.552332   -2.801001   -1.544457
     61          1           0       -4.739476   -2.115678   -0.194316
     62          1           0       -4.180828   -1.191252   -1.576611
     63          1           0       -8.122352    1.382866   -0.376071
     64          1           0       -7.352332    1.726936    1.182872
     65          1           0       -7.821426    0.074197    0.772202
 ---------------------------------------------------------------------
 Rotational constants (GHZ):           0.5342743           0.0727701           0.0681346
 Standard basis: 6-31G(d,p) (6D, 7F)
 There are   555 symmetry adapted cartesian basis functions of A   symmetry.
 There are   555 symmetry adapted basis functions of A   symmetry.
   555 basis functions,   938 primitive gaussians,   555 cartesian basis functions
    91 alpha electrons       91 beta electrons
       nuclear repulsion energy      2022.5050899331 Hartrees.
 NAtoms=   65 NActive=   65 NUniq=   65 SFac= 1.00D+00 NAtFMM=   60 NAOKFM=T Big=T
 Integral buffers will be    131072 words long.
 Raffenetti 2 integral format.
 Two-electron integral symmetry is turned on.
 Force inversion solution in PCM.
 ------------------------------------------------------------------------------
 Polarizable Continuum Model (PCM)
 =================================
 Model                : PCM.
 Atomic radii         : UFF (Universal Force Field).
 Polarization charges : Total charges.
 Charge compensation  : None.
 Solution method      : Matrix inversion.
 Cavity type          : Scaled VdW (van der Waals Surface) (Alpha=1.100).
 Cavity algorithm     : GePol (No added spheres)
                        Default sphere list used, NSphG=   65.
                        Lebedev-Laikov grids with approx.  5.0 points / Ang**2.
                        Smoothing algorithm: York/Karplus (Gamma=1.0000).
                        Polarization charges: spherical gaussians, with
                                              point-specific exponents (IZeta= 3).
                        Self-potential: point-specific (ISelfS= 7).
                        Self-field    : sphere-specific E.n sum rule (ISelfD= 2).
 1st derivatives      : Analytical E(r).r(x)/FMM algorithm (CHGder, D1EAlg=3).
                        Cavity 1st derivative terms included.
 2nd derivatives      : Analytical E(r).r(xy)/FMM algorithm (CHGder, D2EAlg=3).
                        Cavity 2nd derivative terms included.
 Solvent              : Water, Eps=  78.355300 Eps(inf)=   1.777849
 ------------------------------------------------------------------------------
 One-electron integrals computed using PRISM.
 NBasis=   555 RedAO= T EigKep=  1.49D-03  NBF=   555
 NBsUse=   555 1.00D-06 EigRej= -1.00D+00 NBFU=   555
 ExpMin= 1.61D-01 ExpMax= 4.17D+03 ExpMxC= 6.27D+02 IAcc=3 IRadAn=         5 AccDes= 0.00D+00
 Harris functional with IExCor=  402 and IRadAn=       5 diagonalized for initial guess.
 HarFok:  IExCor=  402 AccDes= 0.00D+00 IRadAn=         5 IDoV= 1 UseB2=F ITyADJ=14
 ICtDFT=  3500011 ScaDFX=  1.000000  1.000000  1.000000  1.000000
 FoFCou: FMM=F IPFlag=           0 FMFlag=      100000 FMFlg1=        2001
         NFxFlg=           0 DoJE=T BraDBF=F KetDBF=T FulRan=T
         wScrn=  0.000000 ICntrl=       500 IOpCl=  0 I1Cent=   200000004 NGrid=           0
         NMat0=    1 NMatS0=      1 NMatT0=    0 NMatD0=    1 NMtDS0=    0 NMtDT0=    0
 Petite list used in FoFCou.
 Requested convergence on RMS density matrix=1.00D-08 within  32 cycles.
 Requested convergence on MAX density matrix=1.00D-06.
 Requested convergence on             energy=1.00D-06.
 No special actions if energy rises.
 Inv3:  Mode=1 IEnd=    42797187.
 Iteration    1 A*A^-1 deviation from unit magnitude is 3.11D-15 for   2279.
 Iteration    1 A*A^-1 deviation from orthogonality  is 2.89D-15 for   2997   1070.
 Iteration    1 A^-1*A deviation from unit magnitude is 3.00D-15 for    739.
 Iteration    1 A^-1*A deviation from orthogonality  is 1.18D-14 for   3299   3285.
 Error on total polarization charges =  0.01565
 SCF Done:  E(RB3LYP) =  -935.093530420     A.U. after   11 cycles
            NFock= 11  Conv=0.22D-08     -V/T= 2.0097
 QCSCF skips out because SCF is already converged.
 DoSCS=F DFT=T ScalE2(SS,OS)=  1.000000  1.000000
 Range of M.O.s used for correlation:     1   555
 NBasis=   555 NAE=    91 NBE=    91 NFC=     0 NFV=     0
 NROrb=    555 NOA=    91 NOB=    91 NVA=   464 NVB=   464
 Symmetrizing basis deriv contribution to polar:
 IMax=3 JMax=2 DiffMx= 0.00D+00
 G2DrvN: will do    66 centers at a time, making    1 passes.
 Calling FoFCou, ICntrl=  3107 FMM=T I1Cent=   0 AccDes= 0.00D+00.
 NEqPCM:  Using equilibrium solvation (IEInf=0, Eps=  78.3553, EpsInf=   1.7778)
 G2PCM: DoFxE=T DoFxN=T DoGrad=T DoDP/DQ/DG/TGxP=FFFF NFrqRd=   0 IEInf=0 SqF1=F DoCFld=F IF1Alg=4.
 End of G2Drv F.D. properties file   721 does not exist.
 End of G2Drv F.D. properties file   722 does not exist.
 End of G2Drv F.D. properties file   788 does not exist.
          IDoAtm=11111111111111111111111111111111111111111111111111
          IDoAtm=111111111111111
 NEqPCM:  Using equilibrium solvation (IEInf=0, Eps=  78.3553, EpsInf=   1.7778)
          Differentiating once with respect to nuclear coordinates.
 CalDSu exits because no D1Ps are significant.
          There are   198 degrees of freedom in the 1st order CPHF.  IDoFFX=6 NUNeed=     0.
    192 vectors produced by pass  0 Test12= 4.22D-14 1.00D-09 XBig12= 9.03D-02 5.90D-02.
 AX will form    72 AO Fock derivatives at one time.
    192 vectors produced by pass  1 Test12= 4.22D-14 1.00D-09 XBig12= 5.91D-03 7.20D-03.
    192 vectors produced by pass  2 Test12= 4.22D-14 1.00D-09 XBig12= 4.08D-05 8.92D-04.
    192 vectors produced by pass  3 Test12= 4.22D-14 1.00D-09 XBig12= 7.44D-08 2.57D-05.
    192 vectors produced by pass  4 Test12= 4.22D-14 1.00D-09 XBig12= 9.87D-11 8.81D-07.
     72 vectors produced by pass  5 Test12= 4.22D-14 1.00D-09 XBig12= 5.92D-14 2.67D-08.
      3 vectors produced by pass  6 Test12= 4.22D-14 1.00D-09 XBig12= 3.93D-17 1.25D-09.
 InvSVY:  IOpt=1 It=  1 EMax= 5.00D-16
 Solved reduced A of dimension  1035 with   198 vectors.
 End of Minotr F.D. properties file   721 does not exist.
 End of Minotr F.D. properties file   722 does not exist.
 End of Minotr F.D. properties file   788 does not exist.

 **********************************************************************

            Population analysis using the SCF density.

 **********************************************************************

 Orbital symmetries:
       Occupied  (A) (A) (A) (A) (A) (A) (A) (A) (A) (A) (A) (A)
                 (A) (A) (A) (A) (A) (A) (A) (A) (A) (A) (A) (A)
                 (A) (A) (A) (A) (A) (A) (A) (A) (A) (A) (A) (A)
                 (A) (A) (A) (A) (A) (A) (A) (A) (A) (A) (A) (A)
                 (A) (A) (A) (A) (A) (A) (A) (A) (A) (A) (A) (A)
                 (A) (A) (A) (A) (A) (A) (A) (A) (A) (A) (A) (A)
                 (A) (A) (A) (A) (A) (A) (A) (A) (A) (A) (A) (A)
                 (A) (A) (A) (A) (A) (A) (A)
       Virtual   (A) (A) (A) (A) (A) (A) (A) (A) (A) (A) (A) (A)
                 (A) (A) (A) (A) (A) (A) (A) (A) (A) (A) (A) (A)
                 (A) (A) (A) (A) (A) (A) (A) (A) (A) (A) (A) (A)
                 (A) (A) (A) (A) (A) (A) (A) (A) (A) (A) (A) (A)
                 (A) (A) (A) (A) (A) (A) (A) (A) (A) (A) (A) (A)
                 (A) (A) (A) (A) (A) (A) (A) (A) (A) (A) (A) (A)
                 (A) (A) (A) (A) (A) (A) (A) (A) (A) (A) (A) (A)
                 (A) (A) (A) (A) (A) (A) (A) (A) (A) (A) (A) (A)
                 (A) (A) (A) (A) (A) (A) (A) (A) (A) (A) (A) (A)
                 (A) (A) (A) (A) (A) (A) (A) (A) (A) (A) (A) (A)
                 (A) (A) (A) (A) (A) (A) (A) (A) (A) (A) (A) (A)
                 (A) (A) (A) (A) (A) (A) (A) (A) (A) (A) (A) (A)
                 (A) (A) (A) (A) (A) (A) (A) (A) (A) (A) (A) (A)
                 (A) (A) (A) (A) (A) (A) (A) (A) (A) (A) (A) (A)
                 (A) (A) (A) (A) (A) (A) (A) (A) (A) (A) (A) (A)
                 (A) (A) (A) (A) (A) (A) (A) (A) (A) (A) (A) (A)
                 (A) (A) (A) (A) (A) (A) (A) (A) (A) (A) (A) (A)
                 (A) (A) (A) (A) (A) (A) (A) (A) (A) (A) (A) (A)
                 (A) (A) (A) (A) (A) (A) (A) (A) (A) (A) (A) (A)
                 (A) (A) (A) (A) (A) (A) (A) (A) (A) (A) (A) (A)
                 (A) (A) (A) (A) (A) (A) (A) (A) (A) (A) (A) (A)
                 (A) (A) (A) (A) (A) (A) (A) (A) (A) (A) (A) (A)
                 (A) (A) (A) (A) (A) (A) (A) (A) (A) (A) (A) (A)
                 (A) (A) (A) (A) (A) (A) (A) (A) (A) (A) (A) (A)
                 (A) (A) (A) (A) (A) (A) (A) (A) (A) (A) (A) (A)
                 (A) (A) (A) (A) (A) (A) (A) (A) (A) (A) (A) (A)
                 (A) (A) (A) (A) (A) (A) (A) (A) (A) (A) (A) (A)
                 (A) (A) (A) (A) (A) (A) (A) (A) (A) (A) (A) (A)
                 (A) (A) (A) (A) (A) (A) (A) (A) (A) (A) (A) (A)
                 (A) (A) (A) (A) (A) (A) (A) (A) (A) (A) (A) (A)
                 (A) (A) (A) (A) (A) (A) (A) (A) (A) (A) (A) (A)
                 (A) (A) (A) (A) (A) (A) (A) (A) (A) (A) (A) (A)
                 (A) (A) (A) (A) (A) (A) (A) (A) (A) (A) (A) (A)
                 (A) (A) (A) (A) (A) (A) (A) (A) (A) (A) (A) (A)
                 (A) (A) (A) (A) (A) (A) (A) (A) (A) (A) (A) (A)
                 (A) (A) (A) (A) (A) (A) (A) (A) (A) (A) (A) (A)
                 (A) (A) (A) (A) (A) (A) (A) (A) (A) (A) (A) (A)
                 (A) (A) (A) (A) (A) (A) (A) (A) (A) (A) (A) (A)
                 (A) (A) (A) (A) (A) (A) (A) (A)
 The electronic state is 1-A.
 Alpha  occ. eigenvalues --  -14.30523 -14.30436 -10.20338 -10.20284 -10.20115
 Alpha  occ. eigenvalues --  -10.20012 -10.17650 -10.17649 -10.17357 -10.17204
 Alpha  occ. eigenvalues --  -10.17147 -10.17077 -10.17020 -10.16921 -10.16911
 Alpha  occ. eigenvalues --  -10.16854 -10.16810 -10.16787 -10.16779 -10.16758
 Alpha  occ. eigenvalues --  -10.16757 -10.16615 -10.16558  -0.89898  -0.89757
 Alpha  occ. eigenvalues --   -0.82948  -0.81369  -0.77948  -0.76907  -0.74240
 Alpha  occ. eigenvalues --   -0.73383  -0.73239  -0.72011  -0.70846  -0.69170
 Alpha  occ. eigenvalues --   -0.64969  -0.63507  -0.63228  -0.60886  -0.60446
 Alpha  occ. eigenvalues --   -0.59896  -0.57424  -0.55136  -0.54786  -0.52499
 Alpha  occ. eigenvalues --   -0.51398  -0.48655  -0.48374  -0.47926  -0.46584
 Alpha  occ. eigenvalues --   -0.45659  -0.45549  -0.45234  -0.43852  -0.43464
 Alpha  occ. eigenvalues --   -0.42543  -0.42447  -0.41419  -0.41166  -0.40799
 Alpha  occ. eigenvalues --   -0.39762  -0.38706  -0.38299  -0.38008  -0.37824
 Alpha  occ. eigenvalues --   -0.37648  -0.37459  -0.37148  -0.36756  -0.36379
 Alpha  occ. eigenvalues --   -0.36076  -0.35701  -0.34984  -0.34491  -0.34423
 Alpha  occ. eigenvalues --   -0.33679  -0.33295  -0.33097  -0.32420  -0.32240
 Alpha  occ. eigenvalues --   -0.31860  -0.31443  -0.31139  -0.30437  -0.29921
 Alpha  occ. eigenvalues --   -0.29083  -0.28587  -0.28257  -0.27445  -0.21106
 Alpha  occ. eigenvalues --   -0.20762
 Alpha virt. eigenvalues --    0.06976   0.07762   0.08417   0.09303   0.09651
 Alpha virt. eigenvalues --    0.10502   0.10860   0.11716   0.12358   0.12731
 Alpha virt. eigenvalues --    0.13223   0.13388   0.13942   0.14299   0.14475
 Alpha virt. eigenvalues --    0.14682   0.15036   0.15407   0.15679   0.15922
 Alpha virt. eigenvalues --    0.16191   0.16497   0.17085   0.17507   0.17719
 Alpha virt. eigenvalues --    0.17947   0.18414   0.18459   0.19245   0.19352
 Alpha virt. eigenvalues --    0.19375   0.19605   0.20172   0.20379   0.20941
 Alpha virt. eigenvalues --    0.21202   0.21295   0.21586   0.22261   0.22663
 Alpha virt. eigenvalues --    0.22802   0.23110   0.23292   0.23519   0.24269
 Alpha virt. eigenvalues --    0.24436   0.25069   0.25625   0.25861   0.26124
 Alpha virt. eigenvalues --    0.26805   0.26948   0.27365   0.28178   0.28269
 Alpha virt. eigenvalues --    0.28549   0.30016   0.30317   0.30647   0.31405
 Alpha virt. eigenvalues --    0.32869   0.33682   0.34593   0.35205   0.36035
 Alpha virt. eigenvalues --    0.37679   0.49682   0.49715   0.50254   0.51008
 Alpha virt. eigenvalues --    0.51317   0.52492   0.52727   0.52966   0.53358
 Alpha virt. eigenvalues --    0.53687   0.54303   0.54658   0.55896   0.56523
 Alpha virt. eigenvalues --    0.56685   0.57909   0.58313   0.58550   0.58782
 Alpha virt. eigenvalues --    0.59882   0.60505   0.61018   0.62225   0.62780
 Alpha virt. eigenvalues --    0.63224   0.64491   0.64540   0.65484   0.65677
 Alpha virt. eigenvalues --    0.66195   0.67119   0.67785   0.68041   0.68626
 Alpha virt. eigenvalues --    0.69228   0.70039   0.70272   0.70740   0.71843
 Alpha virt. eigenvalues --    0.72479   0.73012   0.73662   0.74305   0.74653
 Alpha virt. eigenvalues --    0.76188   0.76633   0.77556   0.77992   0.78980
 Alpha virt. eigenvalues --    0.79303   0.80367   0.80430   0.81694   0.81851
 Alpha virt. eigenvalues --    0.82715   0.83342   0.83908   0.84225   0.84845
 Alpha virt. eigenvalues --    0.84879   0.85535   0.85776   0.86158   0.86464
 Alpha virt. eigenvalues --    0.86795   0.87095   0.87452   0.87534   0.88057
 Alpha virt. eigenvalues --    0.88673   0.89151   0.89543   0.90004   0.90495
 Alpha virt. eigenvalues --    0.90874   0.90882   0.91262   0.91842   0.91978
 Alpha virt. eigenvalues --    0.92728   0.92884   0.93451   0.93864   0.94406
 Alpha virt. eigenvalues --    0.94661   0.94951   0.95120   0.95280   0.96542
 Alpha virt. eigenvalues --    0.96826   0.97216   0.97757   0.98355   0.99319
 Alpha virt. eigenvalues --    0.99554   1.00007   1.00692   1.01227   1.02289
 Alpha virt. eigenvalues --    1.02332   1.03319   1.03573   1.04964   1.07447
 Alpha virt. eigenvalues --    1.09174   1.09648   1.11132   1.12294   1.14381
 Alpha virt. eigenvalues --    1.15360   1.17847   1.19346   1.22267   1.24541
 Alpha virt. eigenvalues --    1.25826   1.26482   1.27187   1.29053   1.29787
 Alpha virt. eigenvalues --    1.33026   1.34917   1.35573   1.38376   1.39375
 Alpha virt. eigenvalues --    1.40513   1.42393   1.44016   1.45765   1.47613
 Alpha virt. eigenvalues --    1.48408   1.48817   1.49899   1.50615   1.51507
 Alpha virt. eigenvalues --    1.53119   1.53825   1.57063   1.57656   1.58253
 Alpha virt. eigenvalues --    1.59482   1.61422   1.62080   1.62629   1.62844
 Alpha virt. eigenvalues --    1.63590   1.64512   1.66290   1.67124   1.68176
 Alpha virt. eigenvalues --    1.68661   1.71171   1.71328   1.71982   1.72324
 Alpha virt. eigenvalues --    1.72540   1.74780   1.75177   1.76675   1.77278
 Alpha virt. eigenvalues --    1.79136   1.81066   1.82104   1.82153   1.83097
 Alpha virt. eigenvalues --    1.83723   1.84920   1.85256   1.86191   1.86993
 Alpha virt. eigenvalues --    1.88119   1.88376   1.89034   1.89472   1.89873
 Alpha virt. eigenvalues --    1.90458   1.91011   1.91978   1.92276   1.92310
 Alpha virt. eigenvalues --    1.93405   1.94722   1.95156   1.96030   1.97202
 Alpha virt. eigenvalues --    1.97665   1.98213   1.99115   2.00263   2.00520
 Alpha virt. eigenvalues --    2.01242   2.01584   2.02214   2.04154   2.04404
 Alpha virt. eigenvalues --    2.05001   2.05944   2.06156   2.06292   2.07138
 Alpha virt. eigenvalues --    2.07593   2.07996   2.08717   2.08783   2.09260
 Alpha virt. eigenvalues --    2.09754   2.10476   2.10843   2.11793   2.12265
 Alpha virt. eigenvalues --    2.12797   2.13303   2.14012   2.14183   2.14613
 Alpha virt. eigenvalues --    2.16727   2.17365   2.18247   2.19292   2.20307
 Alpha virt. eigenvalues --    2.20443   2.21387   2.22496   2.23699   2.24163
 Alpha virt. eigenvalues --    2.24845   2.25566   2.26456   2.27134   2.27331
 Alpha virt. eigenvalues --    2.27810   2.27879   2.29519   2.29562   2.30600
 Alpha virt. eigenvalues --    2.31215   2.31953   2.32669   2.34305   2.34808
 Alpha virt. eigenvalues --    2.35813   2.36247   2.36433   2.37643   2.38084
 Alpha virt. eigenvalues --    2.38416   2.39058   2.39169   2.40327   2.41065
 Alpha virt. eigenvalues --    2.41786   2.42215   2.42855   2.43909   2.44637
 Alpha virt. eigenvalues --    2.45758   2.47238   2.47679   2.48585   2.49178
 Alpha virt. eigenvalues --    2.50474   2.52028   2.53089   2.54617   2.54779
 Alpha virt. eigenvalues --    2.55070   2.56430   2.56898   2.57876   2.59470
 Alpha virt. eigenvalues --    2.59759   2.60693   2.61265   2.61709   2.62443
 Alpha virt. eigenvalues --    2.64100   2.64609   2.65355   2.66147   2.66705
 Alpha virt. eigenvalues --    2.67906   2.69143   2.69842   2.70203   2.70607
 Alpha virt. eigenvalues --    2.71888   2.72068   2.73233   2.73879   2.74239
 Alpha virt. eigenvalues --    2.74552   2.75603   2.75941   2.76587   2.77629
 Alpha virt. eigenvalues --    2.78477   2.79724   2.80838   2.81012   2.81207
 Alpha virt. eigenvalues --    2.81975   2.82485   2.82798   2.83773   2.84469
 Alpha virt. eigenvalues --    2.85644   2.85984   2.86853   2.87366   2.88326
 Alpha virt. eigenvalues --    2.88820   2.89499   2.89910   2.90349   2.90893
 Alpha virt. eigenvalues --    2.90974   2.91497   2.91782   2.92194   2.92740
 Alpha virt. eigenvalues --    2.93331   2.94180   2.94326   2.96507   2.97234
 Alpha virt. eigenvalues --    2.97618   2.98954   2.99269   3.00796   3.01672
 Alpha virt. eigenvalues --    3.03823   3.04347   3.09022   3.10977   3.20009
 Alpha virt. eigenvalues --    3.20700   3.22024   3.22299   3.22751   3.23125
 Alpha virt. eigenvalues --    3.29098   3.29756   3.31066   3.31264   3.31992
 Alpha virt. eigenvalues --    3.33244   3.34100   3.34802   3.35536   3.37124
 Alpha virt. eigenvalues --    3.38303   3.39538   3.40627   3.41458   3.42338
 Alpha virt. eigenvalues --    3.43206   3.45388   3.45636   3.45940   3.47080
 Alpha virt. eigenvalues --    3.47827   3.48033   3.49346   3.49933   3.50782
 Alpha virt. eigenvalues --    3.51559   3.52113   3.53001   3.53444   3.54227
 Alpha virt. eigenvalues --    3.54611   3.55961   3.56949   3.57275   3.59893
 Alpha virt. eigenvalues --    3.61046   4.12264   4.14233   4.28277   4.32055
 Alpha virt. eigenvalues --    4.35477   4.36023   4.46799   4.47460   4.48727
 Alpha virt. eigenvalues --    4.50058   4.50855   4.54615   4.59996   4.62441
 Alpha virt. eigenvalues --    4.62496   4.65185   4.69794   4.71487   4.72858
 Alpha virt. eigenvalues --    4.73596   4.77087   4.92675   4.95676
          Condensed to atoms (all electrons):
 Mulliken charges:
               1
     1  C   -0.318329
     2  C   -0.178413
     3  C    0.097525
     4  N   -0.541078
     5  C    0.075027
     6  C   -0.199379
     7  C   -0.180753
     8  C   -0.053538
     9  C   -0.189113
    10  C   -0.053917
    11  C   -0.189711
    12  C   -0.214509
    13  C    0.105666
    14  N   -0.547379
    15  C    0.064490
    16  C   -0.323837
    17  C   -0.160213
    18  C   -0.333579
    19  C   -0.183072
    20  C   -0.187079
    21  C   -0.191298
    22  C   -0.186285
    23  C   -0.335633
    24  H    0.103210
    25  H    0.096339
    26  H    0.109636
    27  H    0.093365
    28  H    0.093870
    29  H    0.070302
    30  H    0.237875
    31  H    0.098902
    32  H    0.090242
    33  H    0.088835
    34  H    0.092515
    35  H    0.097952
    36  H    0.088631
    37  H    0.080249
    38  H    0.081724
    39  H    0.083064
    40  H    0.098936
    41  H    0.091114
    42  H    0.094744
    43  H    0.093063
    44  H    0.073361
    45  H    0.243686
    46  H    0.096216
    47  H    0.104642
    48  H    0.104017
    49  H    0.099432
    50  H    0.085226
    51  H    0.086646
    52  H    0.106155
    53  H    0.102640
    54  H    0.105215
    55  H    0.088698
    56  H    0.090765
    57  H    0.096012
    58  H    0.088083
    59  H    0.089799
    60  H    0.086882
    61  H    0.088142
    62  H    0.095141
    63  H    0.101927
    64  H    0.107386
    65  H    0.099771
 Sum of Mulliken charges =  -0.00000
 Mulliken charges with hydrogens summed into heavy atoms:
               1
     1  C   -0.009144
     2  C    0.008821
     3  C    0.167826
     4  N   -0.303203
     5  C    0.173929
     6  C   -0.020302
     7  C    0.009714
     8  C    0.035094
     9  C   -0.027140
    10  C    0.029147
    11  C    0.000338
    12  C   -0.026703
    13  C    0.179027
    14  N   -0.303693
    15  C    0.160707
    16  C   -0.015746
    17  C    0.011659
    18  C   -0.019569
    19  C   -0.003609
    20  C   -0.002985
    21  C   -0.014617
    22  C   -0.003002
    23  C   -0.026549
 APT charges:
               1
     1  C   -1.026356
     2  C   -0.605088
     3  C   -0.479156
     4  N   -0.967392
     5  C    0.151172
     6  C   -0.915041
     7  C   -0.388850
     8  C   -0.207881
     9  C   -0.888568
    10  C   -0.631700
    11  C   -0.387042
    12  C   -0.867957
    13  C   -0.371169
    14  N   -0.745083
    15  C   -0.243426
    16  C   -1.521332
    17  C   -0.959305
    18  C   -1.429854
    19  C   -0.672438
    20  C   -0.697877
    21  C   -0.902842
    22  C   -1.151697
    23  C   -1.820238
    24  H    0.976115
    25  H    0.403663
    26  H   -0.333853
    27  H   -0.249227
    28  H    0.930221
    29  H    0.288776
    30  H    0.788286
    31  H    0.012931
    32  H    0.293111
    33  H    0.539866
    34  H    0.396573
    35  H    0.107021
    36  H    0.172182
    37  H    0.445607
    38  H    0.437116
    39  H    0.522750
    40  H    0.112677
    41  H    0.378314
    42  H    0.549094
    43  H    0.268567
    44  H    0.461860
    45  H    0.627219
    46  H    0.225564
    47  H   -0.042560
    48  H    0.521609
    49  H    1.019586
    50  H    0.936508
    51  H    0.003534
    52  H    0.733552
    53  H    1.033401
    54  H   -0.285069
    55  H    0.093009
    56  H    0.616083
    57  H    0.170601
    58  H    0.569505
    59  H    0.485176
    60  H    0.460403
    61  H    0.721713
    62  H    0.422053
    63  H    0.938519
    64  H    0.399177
    65  H    0.577883
 Sum of APT charges =  -0.00000
 APT charges with hydrogens summed into heavy atoms:
               1
     1  C    0.019569
     2  C    0.075907
     3  C   -0.190380
     4  N   -0.179106
     5  C    0.164103
     6  C   -0.082064
     7  C    0.114744
     8  C   -0.035698
     9  C   -0.005845
    10  C   -0.108950
    11  C    0.103949
    12  C   -0.050295
    13  C    0.090690
    14  N   -0.117864
    15  C   -0.017862
    16  C   -0.022696
    17  C   -0.019262
    18  C    0.052030
    19  C    0.036654
    20  C    0.042229
    21  C    0.042737
    22  C   -0.007931
    23  C    0.095342
 Electronic spatial extent (au):  <R**2>=          16180.4666
 Charge=              0.0000 electrons
 Dipole moment (field-independent basis, Debye):
    X=              0.1799    Y=             -1.9806    Z=             -1.4450  Tot=              2.4583
 Quadrupole moment (field-independent basis, Debye-Ang):
   XX=           -143.4035   YY=           -151.4631   ZZ=           -147.7333
   XY=              1.2819   XZ=             -0.1737   YZ=             -3.8066
 Traceless Quadrupole moment (field-independent basis, Debye-Ang):
   XX=              4.1298   YY=             -3.9298   ZZ=             -0.2000
   XY=              1.2819   XZ=             -0.1737   YZ=             -3.8066
 Octapole moment (field-independent basis, Debye-Ang**2):
  XXX=              9.2391  YYY=             -2.6802  ZZZ=             -3.9044  XYY=             -6.5072
  XXY=            -41.6365  XXZ=            -23.8461  XZZ=              9.1257  YZZ=             -1.9418
  YYZ=             -0.6903  XYZ=              7.7919
 Hexadecapole moment (field-independent basis, Debye-Ang**3):
 XXXX=         -18575.3299 YYYY=          -2296.7412 ZZZZ=           -895.8523 XXXY=             69.4346
 XXXZ=             14.1248 YYYX=              3.7845 YYYZ=            -11.4361 ZZZX=            -15.4753
 ZZZY=             -5.2848 XXYY=          -3593.5014 XXZZ=          -3294.3342 YYZZ=           -521.7792
 XXYZ=           -102.9663 YYXZ=              1.0440 ZZXY=             18.4393
 N-N= 2.022505089933D+03 E-N=-6.208521469422D+03  KE= 9.260917989968D+02
  Exact polarizability:   0.000   0.000   0.000   0.000   0.000   0.000
 Approx polarizability: 324.212   0.099 313.750   1.166  -5.597 312.977
 D2PCM: PCM CHGder 2nd derivatives, FixD1E=F FixD2E=F DoIter=F DoCFld=F I1PDM=0
 Calling FoFJK, ICntrl=    100147 FMM=F ISym2X=0 I1Cent= 0 IOpClX= 0 NMat=1 NMatS=1 NMatT=0.
 ***** Axes restored to original set *****
 -------------------------------------------------------------------
 Center     Atomic                   Forces (Hartrees/Bohr)
 Number     Number              X              Y              Z
 -------------------------------------------------------------------
      1        6          -0.002180553    0.004237304    0.000436537
      2        6          -0.003970584   -0.001359134   -0.001173975
      3        6           0.010472243   -0.001989796   -0.005302168
      4        7          -0.005382603    0.014856020    0.006419246
      5        6           0.005847058   -0.003160496   -0.015161869
      6        6           0.000243429    0.001242241   -0.003468883
      7        6          -0.004517057    0.005269303   -0.001811071
      8        6          -0.004060201   -0.008717948   -0.002301565
      9        6           0.000715984    0.000041874    0.007520710
     10        6           0.000285389   -0.005880449   -0.000824909
     11        6           0.004852342    0.002670084   -0.000686760
     12        6          -0.002443136   -0.002251799    0.007634343
     13        6           0.002751454    0.008557971    0.006789590
     14        7           0.006335707    0.003131465   -0.008846212
     15        6          -0.008297828    0.008127268    0.008389029
     16        6          -0.005124512   -0.004493230   -0.003585650
     17        6          -0.000170403    0.001237299   -0.005761082
     18        6          -0.000571570    0.002170895    0.000893460
     19        6           0.000670977    0.002607925   -0.001728029
     20        6          -0.003160069   -0.002597215   -0.006776553
     21        6          -0.002328893   -0.004043346   -0.000470470
     22        6           0.000486010   -0.003590056    0.009658607
     23        6           0.004160498   -0.000680185    0.000071306
     24        1          -0.000518265    0.000837451   -0.001051208
     25        1           0.000202368    0.001064722   -0.000210794
     26        1           0.001201280    0.000066169   -0.000920124
     27        1          -0.000730116   -0.001058382    0.000430015
     28        1           0.000640488   -0.003688059   -0.001219304
     29        1           0.001102225   -0.002531446    0.006557320
     30        1          -0.001111697    0.000054020    0.003651477
     31        1           0.004221431    0.000391411    0.000280382
     32        1           0.003950116   -0.001477355    0.001431599
     33        1           0.003320868   -0.000042092    0.001653017
     34        1          -0.002509225   -0.001168540    0.001974043
     35        1          -0.001563091   -0.000716399   -0.000548850
     36        1          -0.001134452    0.000554123    0.000518065
     37        1           0.001901204   -0.000374697   -0.000269900
     38        1           0.000735153    0.000918037   -0.000377470
     39        1           0.000472817    0.001127189    0.000810723
     40        1           0.001270411   -0.002270938   -0.000246888
     41        1           0.001840181   -0.000226462   -0.000955234
     42        1          -0.001145736    0.000571844   -0.000498461
     43        1          -0.004853130    0.000158990   -0.003948941
     44        1           0.000658447   -0.005597810   -0.002633440
     45        1           0.000630504   -0.002293818   -0.002925216
     46        1           0.004962200   -0.000449664    0.002465469
     47        1           0.000747534   -0.000922231    0.000725542
     48        1           0.000237240    0.001079595   -0.000657859
     49        1          -0.001761969   -0.001250683    0.000456807
     50        1           0.000106649   -0.001400379   -0.000593143
     51        1           0.000471843   -0.002364297   -0.000025501
     52        1          -0.000701196    0.000251200    0.001845720
     53        1          -0.000498627    0.000633942    0.001106478
     54        1           0.000272635   -0.000271330    0.001514206
     55        1          -0.002837697    0.001803868    0.002904788
     56        1          -0.002062312    0.002013909    0.001106705
     57        1           0.001460685   -0.001192166    0.001495968
     58        1           0.001367667   -0.000917606    0.000184222
     59        1          -0.002413131   -0.000348859   -0.000824051
     60        1          -0.002869016   -0.000425667   -0.001342661
     61        1           0.001806459    0.004831627   -0.000862797
     62        1           0.000974306    0.000043912   -0.000754762
     63        1          -0.000556198   -0.000472340   -0.000507002
     64        1          -0.001601130   -0.000350999    0.000514514
     65        1          -0.000301406    0.000024212   -0.000167086
 -------------------------------------------------------------------
 Cartesian Forces:  Max     0.015161869 RMS     0.003431364
 FormGI is forming the generalized inverse of G from B-inverse, IUseBI=4.

 GradGradGradGradGradGradGradGradGradGradGradGradGradGradGradGradGradGrad
 Berny optimization.
 Internal  Forces:  Max     0.012531945 RMS     0.002141350
 Search for a local minimum.
 Step number   1 out of a maximum of  390
 All quantities printed in internal units (Hartrees-Bohrs-Radians)
 Mixed Optimization -- RFO/linear search
 Second derivative matrix not updated -- analytic derivatives used.
 ITU=  0
     Eigenvalues ---    0.00034   0.00064   0.00157   0.00169   0.00183
     Eigenvalues ---    0.00196   0.00207   0.00254   0.00303   0.00319
     Eigenvalues ---    0.00413   0.00419   0.00436   0.00486   0.00508
     Eigenvalues ---    0.00572   0.00691   0.00742   0.01546   0.01656
     Eigenvalues ---    0.01949   0.01976   0.02036   0.02158   0.03376
     Eigenvalues ---    0.03551   0.03581   0.03610   0.03666   0.03729
     Eigenvalues ---    0.03754   0.03803   0.03913   0.03924   0.03928
     Eigenvalues ---    0.03939   0.03955   0.03969   0.04041   0.04097
     Eigenvalues ---    0.04127   0.04159   0.04286   0.04332   0.04348
     Eigenvalues ---    0.04398   0.04524   0.04542   0.04586   0.04607
     Eigenvalues ---    0.04665   0.04689   0.04714   0.04733   0.04756
     Eigenvalues ---    0.04771   0.04815   0.04874   0.05137   0.05206
     Eigenvalues ---    0.05255   0.05301   0.05387   0.05489   0.05568
     Eigenvalues ---    0.05599   0.05693   0.05706   0.06100   0.06401
     Eigenvalues ---    0.06926   0.06957   0.07263   0.07365   0.07395
     Eigenvalues ---    0.07504   0.07523   0.07562   0.07582   0.07639
     Eigenvalues ---    0.07909   0.09531   0.09649   0.09839   0.09879
     Eigenvalues ---    0.10404   0.10629   0.10680   0.10756   0.10943
     Eigenvalues ---    0.11136   0.11468   0.12125   0.12218   0.12377
     Eigenvalues ---    0.12391   0.13273   0.13473   0.13552   0.13912
     Eigenvalues ---    0.14050   0.14261   0.14735   0.14751   0.15324
     Eigenvalues ---    0.15918   0.15975   0.16843   0.18481   0.18667
     Eigenvalues ---    0.18780   0.18842   0.19000   0.19141   0.19283
     Eigenvalues ---    0.19542   0.21005   0.21122   0.22419   0.22582
     Eigenvalues ---    0.23472   0.23802   0.23956   0.24490   0.24789
     Eigenvalues ---    0.25121   0.25242   0.26040   0.26612   0.26858
     Eigenvalues ---    0.27314   0.27361   0.27602   0.28004   0.28306
     Eigenvalues ---    0.28341   0.28808   0.29214   0.29997   0.30306
     Eigenvalues ---    0.31013   0.31062   0.31531   0.31569   0.31701
     Eigenvalues ---    0.32071   0.32130   0.32176   0.32255   0.32315
     Eigenvalues ---    0.32549   0.32551   0.32575   0.32691   0.32746
     Eigenvalues ---    0.32761   0.32776   0.32909   0.32927   0.33052
     Eigenvalues ---    0.33116   0.33156   0.33204   0.33304   0.33334
     Eigenvalues ---    0.33377   0.33475   0.33535   0.33565   0.33601
     Eigenvalues ---    0.33656   0.33672   0.33771   0.33881   0.33956
     Eigenvalues ---    0.33992   0.34102   0.34146   0.34323   0.34573
     Eigenvalues ---    0.34687   0.34851   0.34912   0.34974   0.36447
     Eigenvalues ---    0.38121   0.38421   0.43093   0.43211
 RFO step:  Lambda=-1.05817712D-02 EMin= 3.44709599D-04
 Linear search not attempted -- first point.
 Iteration  1 RMS(Cart)=  0.03768921 RMS(Int)=  0.00043522
 Iteration  2 RMS(Cart)=  0.00134078 RMS(Int)=  0.00013650
 Iteration  3 RMS(Cart)=  0.00000117 RMS(Int)=  0.00013650
 Iteration  4 RMS(Cart)=  0.00000000 RMS(Int)=  0.00013650
 Variable       Old X    -DE/DX   Delta X   Delta X   Delta X     New X
                                 (Linear)    (Quad)   (Total)
    R1        2.87906   0.00652   0.00000   0.01618   0.01618   2.89524
[...]
   392    H   33  S      Ryd( 2S)     0.01379
   393    H   33  px     Ryd( 2p)     0.00014
   394    H   33  py     Ryd( 2p)     0.00026
   395    H   33  pz     Ryd( 2p)     0.00017

   396    H   34  S      Val( 1S)     0.75907
   397    H   34  S      Ryd( 2S)     0.00248
   398    H   34  px     Ryd( 2p)     0.00014
   399    H   34  py     Ryd( 2p)     0.00020
   400    H   34  pz     Ryd( 2p)     0.00022

   401    H   35  S      Val( 1S)     0.76539
   402    H   35  S      Ryd( 2S)     0.00736
   403    H   35  px     Ryd( 2p)     0.00019
   404    H   35  py     Ryd( 2p)     0.00028
   405    H   35  pz     Ryd( 2p)     0.00010

   406    H   36  S      Val( 1S)     0.76977
   407    H   36  S      Ryd( 2S)     0.01206
   408    H   36  px     Ryd( 2p)     0.00012
   409    H   36  py     Ryd( 2p)     0.00025
   410    H   36  pz     Ryd( 2p)     0.00023

   411    H   37  S      Val( 1S)     0.76356
   412    H   37  S      Ryd( 2S)     0.00342
   413    H   37  px     Ryd( 2p)     0.00010
   414    H   37  py     Ryd( 2p)     0.00017
   415    H   37  pz     Ryd( 2p)     0.00030

   416    H   38  S      Val( 1S)     0.76586
   417    H   38  S      Ryd( 2S)     0.00214
   418    H   38  px     Ryd( 2p)     0.00010
   419    H   38  py     Ryd( 2p)     0.00025
   420    H   38  pz     Ryd( 2p)     0.00021

   421    H   39  S      Val( 1S)     0.75769
   422    H   39  S      Ryd( 2S)     0.00227
   423    H   39  px     Ryd( 2p)     0.00021
   424    H   39  py     Ryd( 2p)     0.00024
   425    H   39  pz     Ryd( 2p)     0.00016

   426    H   40  S      Val( 1S)     0.76926
   427    H   40  S      Ryd( 2S)     0.00376
   428    H   40  px     Ryd( 2p)     0.00018
   429    H   40  py     Ryd( 2p)     0.00024
   430    H   40  pz     Ryd( 2p)     0.00014

   431    H   41  S      Val( 1S)     0.75644
   432    H   41  S      Ryd( 2S)     0.00262
   433    H   41  px     Ryd( 2p)     0.00015
   434    H   41  py     Ryd( 2p)     0.00010
   435    H   41  pz     Ryd( 2p)     0.00031

   436    H   42  S      Val( 1S)     0.76042
   437    H   42  S      Ryd( 2S)     0.00144
   438    H   42  px     Ryd( 2p)     0.00013
   439    H   42  py     Ryd( 2p)     0.00014
   440    H   42  pz     Ryd( 2p)     0.00029

   441    H   43  S      Val( 1S)     0.75983
   442    H   43  S      Ryd( 2S)     0.00250
   443    H   43  px     Ryd( 2p)     0.00010
   444    H   43  py     Ryd( 2p)     0.00036
   445    H   43  pz     Ryd( 2p)     0.00010

   446    H   44  S      Val( 1S)     0.78711
   447    H   44  S      Ryd( 2S)     0.00270
   448    H   44  px     Ryd( 2p)     0.00016
   449    H   44  py     Ryd( 2p)     0.00033
   450    H   44  pz     Ryd( 2p)     0.00012

   451    H   45  S      Val( 1S)     0.60984
   452    H   45  S      Ryd( 2S)     0.00214
   453    H   45  px     Ryd( 2p)     0.00030
   454    H   45  py     Ryd( 2p)     0.00051
   455    H   45  pz     Ryd( 2p)     0.00060

   456    H   46  S      Val( 1S)     0.76047
   457    H   46  S      Ryd( 2S)     0.00174
   458    H   46  px     Ryd( 2p)     0.00010
   459    H   46  py     Ryd( 2p)     0.00018
   460    H   46  pz     Ryd( 2p)     0.00031

   461    H   47  S      Val( 1S)     0.76320
   462    H   47  S      Ryd( 2S)     0.00069
   463    H   47  px     Ryd( 2p)     0.00016
   464    H   47  py     Ryd( 2p)     0.00026
   465    H   47  pz     Ryd( 2p)     0.00011

   466    H   48  S      Val( 1S)     0.77076
   467    H   48  S      Ryd( 2S)     0.00100
   468    H   48  px     Ryd( 2p)     0.00012
   469    H   48  py     Ryd( 2p)     0.00014
   470    H   48  pz     Ryd( 2p)     0.00027

   471    H   49  S      Val( 1S)     0.76187
   472    H   49  S      Ryd( 2S)     0.00099
   473    H   49  px     Ryd( 2p)     0.00026
   474    H   49  py     Ryd( 2p)     0.00011
   475    H   49  pz     Ryd( 2p)     0.00015

   476    H   50  S      Val( 1S)     0.76436
   477    H   50  S      Ryd( 2S)     0.00137
   478    H   50  px     Ryd( 2p)     0.00027
   479    H   50  py     Ryd( 2p)     0.00012
   480    H   50  pz     Ryd( 2p)     0.00017

   481    H   51  S      Val( 1S)     0.76093
   482    H   51  S      Ryd( 2S)     0.00190
   483    H   51  px     Ryd( 2p)     0.00018
   484    H   51  py     Ryd( 2p)     0.00015
   485    H   51  pz     Ryd( 2p)     0.00021

   486    H   52  S      Val( 1S)     0.77053
   487    H   52  S      Ryd( 2S)     0.00089
   488    H   52  px     Ryd( 2p)     0.00019
   489    H   52  py     Ryd( 2p)     0.00013
   490    H   52  pz     Ryd( 2p)     0.00020

   491    H   53  S      Val( 1S)     0.76016
   492    H   53  S      Ryd( 2S)     0.00072
   493    H   53  px     Ryd( 2p)     0.00015
   494    H   53  py     Ryd( 2p)     0.00024
   495    H   53  pz     Ryd( 2p)     0.00013

   496    H   54  S      Val( 1S)     0.76875
   497    H   54  S      Ryd( 2S)     0.00157
   498    H   54  px     Ryd( 2p)     0.00025
   499    H   54  py     Ryd( 2p)     0.00013
   500    H   54  pz     Ryd( 2p)     0.00015

   501    H   55  S      Val( 1S)     0.76810
   502    H   55  S      Ryd( 2S)     0.00273
   503    H   55  px     Ryd( 2p)     0.00014
   504    H   55  py     Ryd( 2p)     0.00031
   505    H   55  pz     Ryd( 2p)     0.00010

   506    H   56  S      Val( 1S)     0.75816
   507    H   56  S      Ryd( 2S)     0.00117
   508    H   56  px     Ryd( 2p)     0.00020
   509    H   56  py     Ryd( 2p)     0.00009
   510    H   56  pz     Ryd( 2p)     0.00026

   511    H   57  S      Val( 1S)     0.76173
   512    H   57  S      Ryd( 2S)     0.00161
   513    H   57  px     Ryd( 2p)     0.00025
   514    H   57  py     Ryd( 2p)     0.00012
   515    H   57  pz     Ryd( 2p)     0.00020

   516    H   58  S      Val( 1S)     0.76349
   517    H   58  S      Ryd( 2S)     0.00150
   518    H   58  px     Ryd( 2p)     0.00014
   519    H   58  py     Ryd( 2p)     0.00029
   520    H   58  pz     Ryd( 2p)     0.00013

   521    H   59  S      Val( 1S)     0.76612
   522    H   59  S      Ryd( 2S)     0.00669
   523    H   59  px     Ryd( 2p)     0.00011
   524    H   59  py     Ryd( 2p)     0.00024
   525    H   59  pz     Ryd( 2p)     0.00023

   526    H   60  S      Val( 1S)     0.75723
   527    H   60  S      Ryd( 2S)     0.00779
   528    H   60  px     Ryd( 2p)     0.00010
   529    H   60  py     Ryd( 2p)     0.00016
   530    H   60  pz     Ryd( 2p)     0.00029

   531    H   61  S      Val( 1S)     0.76422
   532    H   61  S      Ryd( 2S)     0.02265
   533    H   61  px     Ryd( 2p)     0.00026
   534    H   61  py     Ryd( 2p)     0.00019
   535    H   61  pz     Ryd( 2p)     0.00012

   536    H   62  S      Val( 1S)     0.79232
   537    H   62  S      Ryd( 2S)     0.03360
   538    H   62  px     Ryd( 2p)     0.00009
   539    H   62  py     Ryd( 2p)     0.00011
   540    H   62  pz     Ryd( 2p)     0.00033

   541    H   63  S      Val( 1S)     0.75387
   542    H   63  S      Ryd( 2S)     0.00753
   543    H   63  px     Ryd( 2p)     0.00020
   544    H   63  py     Ryd( 2p)     0.00011
   545    H   63  pz     Ryd( 2p)     0.00019

   546    H   64  S      Val( 1S)     0.75629
   547    H   64  S      Ryd( 2S)     0.00409
   548    H   64  px     Ryd( 2p)     0.00008
   549    H   64  py     Ryd( 2p)     0.00020
   550    H   64  pz     Ryd( 2p)     0.00023

   551    H   65  S      Val( 1S)     0.78622
   552    H   65  S      Ryd( 2S)     0.02036
   553    H   65  px     Ryd( 2p)     0.00013
   554    H   65  py     Ryd( 2p)     0.00026
   555    H   65  pz     Ryd( 2p)     0.00011


 Summary of Natural Population Analysis:                  
                                                          
                                       Natural Population 
                Natural  -----------------------------------------------
    Atom  No    Charge         Core      Valence    Rydberg      Total
 -----------------------------------------------------------------------
      C    1   -0.69566      1.99946     4.68756    0.00864     6.69566
      C    2   -0.47882      1.99930     4.46677    0.01275     6.47882
      C    3   -0.10552      1.99918     4.09093    0.01542     6.10552
      N    4   -0.19880      1.99932     5.18833    0.01114     7.19880
      C    5   -0.11876      1.99917     4.10101    0.01858     6.11876
      C    6   -0.48191      1.99930     4.46844    0.01417     6.48191
      C    7   -0.46588      1.99931     4.45431    0.01225     6.46588
      C    8   -0.26101      1.99921     4.24849    0.01330     6.26101
      C    9   -0.45223      1.99929     4.43919    0.01375     6.45223
      C   10   -0.25600      1.99923     4.24344    0.01333     6.25600
      C   11   -0.47086      1.99931     4.46011    0.01143     6.47086
      C   12   -0.46922      1.99931     4.45819    0.01171     6.46922
      C   13   -0.05505      1.99921     4.03916    0.01668     6.05505
      N   14   -0.72507      1.99952     5.70916    0.01640     7.72507
      C   15   -0.05921      1.99923     4.04285    0.01712     6.05921
      C   16   -0.70882      1.99942     4.70175    0.00765     6.70882
      C   17   -0.46493      1.99931     4.45378    0.01183     6.46493
      C   18   -0.69603      1.99947     4.68948    0.00708     6.69603
      C   19   -0.47472      1.99929     4.46225    0.01317     6.47472
      C   20   -0.46205      1.99931     4.45107    0.01167     6.46205
      C   21   -0.46316      1.99930     4.45078    0.01309     6.46316
      C   22   -0.46308      1.99926     4.45019    0.01363     6.46308
      C   23   -0.71515      1.99942     4.70463    0.01110     6.71515
      H   24    0.22092      0.00000     0.77191    0.00717     0.77908
      H   25    0.22232      0.00000     0.77000    0.00768     0.77768
      H   26    0.20513      0.00000     0.78163    0.01325     0.79487
      H   27    0.17992      0.00000     0.79116    0.02892     0.82008
      H   28    0.21507      0.00000     0.76969    0.01523     0.78493
      H   29    0.26203      0.00000     0.71409    0.02388     0.73797
      H   30    0.31376      0.00000     0.63025    0.05600     0.68624
      H   31    0.19551      0.00000     0.76497    0.03952     0.80449
      H   32    0.22246      0.00000     0.76365    0.01389     0.77754
      H   33    0.22177      0.00000     0.76386    0.01437     0.77823
      H   34    0.23790      0.00000     0.75907    0.00304     0.76210
      H   35    0.22669      0.00000     0.76539    0.00792     0.77331
      H   36    0.21757      0.00000     0.76977    0.01266     0.78243
      H   37    0.23245      0.00000     0.76356    0.00398     0.76755
      H   38    0.23144      0.00000     0.76586    0.00270     0.76856
      H   39    0.23942      0.00000     0.75769    0.00289     0.76058
      H   40    0.22641      0.00000     0.76926    0.00433     0.77359
      H   41    0.24039      0.00000     0.75644    0.00317     0.75961
      H   42    0.23758      0.00000     0.76042    0.00200     0.76242
      H   43    0.23712      0.00000     0.75983    0.00305     0.76288
      H   44    0.20958      0.00000     0.78711    0.00331     0.79042
      H   45    0.38661      0.00000     0.60984    0.00355     0.61339
      H   46    0.23720      0.00000     0.76047    0.00233     0.76280
      H   47    0.23560      0.00000     0.76320    0.00120     0.76440
      H   48    0.22772      0.00000     0.77076    0.00152     0.77228
      H   49    0.23662      0.00000     0.76187    0.00151     0.76338
      H   50    0.23371      0.00000     0.76436    0.00193     0.76629
      H   51    0.23663      0.00000     0.76093    0.00244     0.76337
      H   52    0.22806      0.00000     0.77053    0.00142     0.77194
      H   53    0.23860      0.00000     0.76016    0.00124     0.76140
      H   54    0.22915      0.00000     0.76875    0.00210     0.77085
      H   55    0.22863      0.00000     0.76810    0.00328     0.77137
      H   56    0.24011      0.00000     0.75816    0.00172     0.75989
      H   57    0.23611      0.00000     0.76173    0.00217     0.76389
      H   58    0.23445      0.00000     0.76349    0.00206     0.76555
      H   59    0.22661      0.00000     0.76612    0.00727     0.77339
      H   60    0.23443      0.00000     0.75723    0.00833     0.76557
      H   61    0.21256      0.00000     0.76422    0.02322     0.78744
      H   62    0.17356      0.00000     0.79232    0.03412     0.82644
      H   63    0.23810      0.00000     0.75387    0.00803     0.76190
      H   64    0.23911      0.00000     0.75629    0.00460     0.76089
      H   65    0.19291      0.00000     0.78622    0.02087     0.80709
 =======================================================================
   * Total *   -0.00000     45.98413   135.31612    0.69975   182.00000

                                 Natural Population      
 --------------------------------------------------------
   Core                      45.98413 ( 99.9655% of  46)
   Valence                  135.31612 ( 99.4971% of 136)
   Natural Minimal Basis    181.30025 ( 99.6155% of 182)
   Natural Rydberg Basis      0.69975 (  0.3845% of 182)
 --------------------------------------------------------

    Atom  No          Natural Electron Configuration
 ----------------------------------------------------------------------------
      C    1      [core]2S( 1.11)2p( 3.57)3p( 0.01)
      C    2      [core]2S( 1.05)2p( 3.42)3p( 0.01)
      C    3      [core]2S( 0.98)2p( 3.11)3p( 0.01)
      N    4      [core]2S( 1.36)2p( 3.83)3p( 0.01)
      C    5      [core]2S( 0.98)2p( 3.12)3p( 0.01)
      C    6      [core]2S( 1.04)2p( 3.43)3p( 0.01)
      C    7      [core]2S( 1.03)2p( 3.43)3p( 0.01)
      C    8      [core]2S( 0.97)2p( 3.28)3p( 0.01)
      C    9      [core]2S( 1.02)2p( 3.42)3p( 0.01)
      C   10      [core]2S( 0.97)2p( 3.28)3p( 0.01)
      C   11      [core]2S( 1.03)2p( 3.43)3p( 0.01)
      C   12      [core]2S( 1.03)2p( 3.43)3p( 0.01)
      C   13      [core]2S( 0.94)2p( 3.10)3p( 0.01)3d( 0.01)
      N   14      [core]2S( 1.34)2p( 4.37)3p( 0.01)
      C   15      [core]2S( 0.95)2p( 3.09)3p( 0.01)3d( 0.01)
      C   16      [core]2S( 1.11)2p( 3.60)
      C   17      [core]2S( 1.04)2p( 3.42)3p( 0.01)
      C   18      [core]2S( 1.10)2p( 3.59)
      C   19      [core]2S( 1.03)2p( 3.43)3p( 0.01)
      C   20      [core]2S( 1.03)2p( 3.42)3p( 0.01)
      C   21      [core]2S( 1.03)2p( 3.42)3p( 0.01)
      C   22      [core]2S( 1.06)2p( 3.39)3p( 0.01)
      C   23      [core]2S( 1.11)2p( 3.59)3p( 0.01)
      H   24            1S( 0.77)2S( 0.01)
      H   25            1S( 0.77)2S( 0.01)
      H   26            1S( 0.78)2S( 0.01)
      H   27            1S( 0.79)2S( 0.03)
      H   28            1S( 0.77)2S( 0.01)
      H   29            1S( 0.71)2S( 0.02)
      H   30            1S( 0.63)2S( 0.05)
      H   31            1S( 0.76)2S( 0.04)
      H   32            1S( 0.76)2S( 0.01)
      H   33            1S( 0.76)2S( 0.01)
      H   34            1S( 0.76)
      H   35            1S( 0.77)2S( 0.01)
      H   36            1S( 0.77)2S( 0.01)
      H   37            1S( 0.76)
      H   38            1S( 0.77)
      H   39            1S( 0.76)
      H   40            1S( 0.77)
      H   41            1S( 0.76)
      H   42            1S( 0.76)
      H   43            1S( 0.76)
      H   44            1S( 0.79)
      H   45            1S( 0.61)
      H   46            1S( 0.76)
      H   47            1S( 0.76)
      H   48            1S( 0.77)
      H   49            1S( 0.76)
      H   50            1S( 0.76)
      H   51            1S( 0.76)
      H   52            1S( 0.77)
      H   53            1S( 0.76)
      H   54            1S( 0.77)
      H   55            1S( 0.77)
      H   56            1S( 0.76)
      H   57            1S( 0.76)
      H   58            1S( 0.76)
      H   59            1S( 0.77)2S( 0.01)
      H   60            1S( 0.76)2S( 0.01)
      H   61            1S( 0.76)2S( 0.02)
      H   62            1S( 0.79)2S( 0.03)
      H   63            1S( 0.75)2S( 0.01)
      H   64            1S( 0.76)
      H   65            1S( 0.79)2S( 0.02)


 NBO analysis skipped by request.
 1\1\GINC-DRG2-W002\SP\RB3LYP TD-FC\6-31G(d,p)\C21H42N2\QDUEZ\18-Jul-20
 24\0\\# TD(NStates=10, Root=1) B3LYP/6-31G** SCRF=(Solvent=water) volu
 me pop=NPA density=current Geom=AllCheck Guess=Read\\PICLBAFTFYTURY-HQ
 ZQWKOLSA-N_conf_1\\0,1\C,0,5.6329547871,2.5226164238,0.9281200788\C,0,
 5.708436948,1.10743732,1.5108746856\C,0,6.1184491202,-0.0014178979,0.5
 178183836\N,0,5.1949530987,-0.0684830968,-0.6299273733\C,0,3.830762493
 ,-0.5466666699,-0.3589843949\C,0,3.001095244,-0.4950616849,-1.64743046
 36\C,0,1.497483565,-0.7452473453,-1.3794642658\C,0,1.236708369,-1.6732
 891155,-0.1639410447\C,0,-0.1214673111,-2.4066006226,-0.1949236876\C,0
 ,-1.4255132049,-1.5874805881,-0.0298465604\C,0,-1.3802231867,-0.572489
 2889,1.1258888485\C,0,-2.786436076,-0.0154197979,1.4476702677\C,0,-3.7
 080487076,0.0654890151,0.2085776482\N,0,-4.6962790119,1.1394136513,0.4
 067709306\C,0,-5.9439700147,1.0131281929,-0.3727161256\C,0,-6.92096963
 58,-0.0287237983,0.201532065\C,0,-6.5972566787,2.4000018874,-0.5493838
 732\C,0,-6.982372533,3.1138383197,0.7519569492\C,0,-2.8581582085,0.304
 3258411,-1.0470379913\C,0,-1.922787238,-0.8935427771,-1.3281641865\C,0
 ,2.3989204787,-2.6780930653,-0.0480247674\C,0,3.7427303469,-1.97334767
 76,0.253058172\C,0,7.5403564609,0.1981092373,-0.0186097019\H,0,6.60750
 5293,2.8663144112,0.5662736082\H,0,5.295805855,3.2354810951,1.68788997
 86\H,0,4.9338466218,2.5642178956,0.0883584395\H,0,4.738232752,0.849073
 8443,1.9530391882\H,0,6.4256539391,1.0859617825,2.3415042857\H,0,6.119
 8593148,-0.9456537205,1.0916019667\H,0,5.6069340865,-0.6895369193,-1.3
 260391378\H,0,3.3824995462,0.1632478952,0.3479473987\H,0,3.1464498537,
 0.4728020258,-2.1382936418\H,0,3.3904090154,-1.2544537127,-2.340356961
 9\H,0,1.0497942283,-1.1882790494,-2.2774704552\H,0,0.9907087601,0.2138
 374214,-1.2226717724\H,0,1.2590481676,-1.0573170187,0.7460697044\H,0,-
 0.1021503271,-3.1426567294,0.6205673276\H,0,-0.1876448954,-2.993172812
 5,-1.1234570293\H,0,-2.1928490302,-2.326875876,0.2420403877\H,0,-0.710
 1750066,0.2535484775,0.857050484\H,0,-0.9506102441,-1.032741116,2.0236
 618678\H,0,-3.2714732153,-0.6311049356,2.2152822278\H,0,-2.6897066444,
 0.9940356788,1.8673925012\H,0,-4.2065231017,-0.9132867205,0.0887608583
 \H,0,-4.9413364447,1.1685676603,1.3948339061\H,0,-5.6522712816,0.67717
 05419,-1.3755592764\H,0,-6.4500322835,-1.0144002002,0.271623198\H,0,-7
 .2555903861,0.2518263114,1.2066341167\H,0,-7.8098946134,-0.1295213527,
 -0.4311568818\H,0,-7.4877504941,2.2869697956,-1.1815486365\H,0,-5.8945
 59797,3.0319237942,-1.1057917368\H,0,-7.7207341822,2.5486662008,1.3303
 210991\H,0,-7.416790566,4.0959794742,0.5390540041\H,0,-6.1056906236,3.
 2736527298,1.3884222113\H,0,-2.2743748627,1.2210095357,-0.8915114737\H
 ,0,-3.4955597672,0.4922316093,-1.9183482261\H,0,-1.077563852,-0.545702
 3791,-1.9274507669\H,0,-2.445178782,-1.6377057669,-1.9426051293\H,0,2.
 4710732575,-3.2400947317,-0.9894029868\H,0,2.1856380834,-3.4192639239,
 0.7312195784\H,0,4.5692136413,-2.576425025,-0.1460231248\H,0,3.8954552
 663,-1.9182098881,1.3372173653\H,0,8.2573945464,0.2881897793,0.8034023
 563\H,0,7.6078697699,1.0981073097,-0.6374157139\H,0,7.8456992984,-0.65
 49098538,-0.6354178112\\Version=ES64L-G16RevA.03\State=1-A\HF=-935.100
 2881\RMSD=8.222e-09\Dipole=0.4657759,-0.6277982,-0.3511846\Quadrupole=
 9.4581011,-7.1209139,-2.3371872,0.9431518,-5.3066847,-0.2499717\PG=C01
  [X(C21H42N2)]\\@


 TRUTH, IN SCIENCE, CAN BE DEFINED AS THE WORKING HYPOTHESIS 
 BEST FITTED TO OPEN THE WAY TO THE NEXT BETTER ONE.

                              -- KONRAD LORENZ
 Job cpu time:       0 days  3 hours 28 minutes 21.1 seconds.
 Elapsed time:       0 days  1 hours  9 minutes 39.9 seconds.
 File lengths (MBytes):  RWF=   2310 Int=      0 D2E=      0 Chk=    148 Scr=      1
 Normal termination of Gaussian 16 at Thu Jul 18 22:38:04 2024.
