 Entering Gaussian System, Link 0=g16
 Initial command:
 /opt/sw/arch/manual/gaussian/G16_A03/g16/l1.exe "/scratch/1380961/Gau-220904.inp" -scrdir="/scratch/1380961/"
 Entering Link 1 = /opt/sw/arch/manual/gaussian/G16_A03/g16/l1.exe PID=    220905.
  
 Copyright (c) 1988,1990,1992,1993,1995,1998,2003,2009,2016,
            Gaussian, Inc.  All Rights Reserved.
  
 This is part of the Gaussian(R) 16 program.  It is based on
 the Gaussian(R) 09 system (copyright 2009, Gaussian, Inc.),
 the Gaussian(R) 03 system (copyright 2003, Gaussian, Inc.),
 the Gaussian(R) 98 system (copyright 1998, Gaussian, Inc.),
 the Gaussian(R) 94 system (copyright 1995, Gaussian, Inc.),
 the Gaussian 92(TM) system (copyright 1992, Gaussian, Inc.),
 the Gaussian 90(TM) system (copyright 1990, Gaussian, Inc.),
 the Gaussian 88(TM) system (copyright 1988, Gaussian, Inc.),
 the Gaussian 86(TM) system (copyright 1986, Carnegie Mellon
 University), and the Gaussian 82(TM) system (copyright 1983,
 Carnegie Mellon University). Gaussian is a federally registered
 trademark of Gaussian, Inc.
  
 This software contains proprietary and confidential information,
 including trade secrets, belonging to Gaussian, Inc.
  
 This software is provided under written license and may be
 used, copied, transmitted, or stored only in accord with that
 written license.
  
 The following legend is applicable only to US Government
 contracts under FAR:
  
                    RESTRICTED RIGHTS LEGEND
  
 Use, reproduction and disclosure by the US Government is
 subject to restrictions as set forth in subparagraphs (a)
 and (c) of the Commercial Computer Software - Restricted
 Rights clause in FAR 52.227-19.
  
 Gaussian, Inc.
 340 Quinnipiac St., Bldg. 40, Wallingford CT 06492
  
  
 ---------------------------------------------------------------
 Warning -- This program may not be used in any manner that
 competes with the business of Gaussian, Inc. or will provide
 assistance to any competitor of Gaussian, Inc.  The licensee
 of this program is prohibited from giving any competitor of
 Gaussian, Inc. access to this program.  By using this program,
 the user acknowledges that Gaussian, Inc. is engaged in the
 business of creating and licensing software in the field of
 computational chemistry and represents and warrants to the
 licensee that it is not a competitor of Gaussian, Inc. and that
 it will not use this program in any manner prohibited above.
 ---------------------------------------------------------------
  

 Cite this work as:
 Gaussian 16, Revision A.03,
 M. J. Frisch, G. W. Trucks, H. B. Schlegel, G. E. Scuseria, 
 M. A. Robb, J. R. Cheeseman, G. Scalmani, V. Barone, 
 G. A. Petersson, H. Nakatsuji, X. Li, M. Caricato, A. V. Marenich, 
 J. Bloino, B. G. Janesko, R. Gomperts, B. Mennucci, H. P. Hratchian, 
 J. V. Ortiz, A. F. Izmaylov, J. L. Sonnenberg, D. Williams-Young, 
 F. Ding, F. Lipparini, F. Egidi, J. Goings, B. Peng, A. Petrone, 
 T. Henderson, D. Ranasinghe, V. G. Zakrzewski, J. Gao, N. Rega, 
 G. Zheng, W. Liang, M. Hada, M. Ehara, K. Toyota, R. Fukuda, 
 J. Hasegawa, M. Ishida, T. Nakajima, Y. Honda, O. Kitao, H. Nakai, 
 T. Vreven, K. Throssell, J. A. Montgomery, Jr., J. E. Peralta, 
 F. Ogliaro, M. J. Bearpark, J. J. Heyd, E. N. Brothers, K. N. Kudin, 
 V. N. Staroverov, T. A. Keith, R. Kobayashi, J. Normand, 
 K. Raghavachari, A. P. Rendell, J. C. Burant, S. S. Iyengar, 
 J. Tomasi, M. Cossi, J. M. Millam, M. Klene, C. Adamo, R. Cammi, 
 J. W. Ochterski, R. L. Martin, K. Morokuma, O. Farkas, 
 J. B. Foresman, and D. J. Fox, Gaussian, Inc., Wallingford CT, 2016.
 
 ******************************************
 Gaussian 16:  ES64L-G16RevA.03 25-Dec-2016
                18-Jul-2024 
 ******************************************
 %nprocshared=10
 Will use up to   10 processors via shared memory.
 %mem=20GB
 %Chk=PICLBAFTFYTURY-HQZQWKOLSA-N_conf_0_0.chk
 -------------------------------------------------------
 # opt=CalcFc B3LYP/6-31G** SCRF=(Solvent=water) scf=xqc
 -------------------------------------------------------
 1/10=4,18=20,19=15,26=3,38=1/1,3;
 2/9=110,12=2,17=6,18=5,40=1/2;
 3/5=1,6=6,7=101,11=2,25=1,30=1,70=2201,71=2,72=1,74=-5,140=1/1,2,3;
 4//1;
 5/5=2,8=3,13=1,38=5,53=1/2,8;
 8/6=4,10=90,11=11/1;
 11/6=1,8=1,9=11,15=111,16=1/1,2,10;
 10/6=1,13=1/2;
 6/7=2,8=2,9=2,10=2,28=1/1;
 7/10=1,18=20,25=1/1,2,3,16;
 1/10=4,18=20,19=15,26=3/3(2);
 2/9=110/2;
 99//99;
 2/9=110/2;
 3/5=1,6=6,7=101,11=2,25=1,30=1,70=2205,71=1,72=1,74=-5/1,2,3;
 4/5=5,16=3,69=1/1;
 5/5=2,8=3,13=1,38=5,53=1/2,8;
 7//1,2,3,16;
 1/18=20,19=15,26=3/3(-5);
 2/9=110/2;
 6/7=2,8=2,9=2,10=2,19=2,28=1/1;
 99/9=1/99;
 ----------------------------------
 PICLBAFTFYTURY-HQZQWKOLSA-N_conf_0
 ----------------------------------
 Symbolic Z-matrix:
 Charge =  0 Multiplicity = 1
 C                    -6.68379   2.88737   1.06511 
 C                    -5.69537   1.95983   0.36824 
 C                    -6.21606   0.51541   0.225 
 N                    -5.39541  -0.28081  -0.69749 
 C                    -3.99404  -0.5263   -0.34765 
 C                    -3.20817  -0.67134  -1.6578 
 C                    -1.70193  -0.81739  -1.41485 
 C                    -1.34944  -1.43775  -0.05097 
 C                     0.04156  -2.10486  -0.05538 
 C                     1.2135   -1.17077  -0.42059 
 C                     2.53332  -1.95052  -0.45321 
 C                     3.69339  -1.09508  -0.97408 
 C                     3.54094   0.40239  -0.64829 
 N                     4.82217   1.11633  -0.7568 
 C                     5.63788   1.27145   0.4573 
 C                     6.19398  -0.04689   0.99777 
 C                     6.7868    2.2677    0.16855 
 C                     7.76859   1.83313  -0.91394 
 C                     2.72965   0.63371   0.63061 
 C                     1.32254   0.02921   0.53888 
 C                    -2.42759  -2.44503   0.36502 
 C                    -3.80851  -1.79255   0.51156 
 C                    -6.44005  -0.16926   1.57415 
 H                    -6.29713   3.91155   1.06825 
 H                    -7.6495    2.89174   0.54974 
 H                    -6.84607   2.59253   2.10601 
 H                    -5.48588   2.37137  -0.62765 
 H                    -4.75351   1.98247   0.92832 
 H                    -7.2002    0.58064  -0.25844 
 H                    -5.86407  -1.16222  -0.90365 
 H                    -3.57146   0.33105   0.18641 
 H                    -3.37868   0.19067  -2.31549 
 H                    -3.56651  -1.55297  -2.2074 
 H                    -1.27783  -1.4108   -2.23422 
 H                    -1.23409   0.17251  -1.48114 
 H                    -1.34349  -0.63758   0.70101 
 H                     0.22932  -2.53961   0.93568 
 H                     0.02793  -2.9473   -0.75998 
 H                     1.03995  -0.78589  -1.43422 
 H                     2.77338  -2.30391   0.55827 
 H                     2.44187  -2.84505  -1.08094 
 H                     4.62526  -1.51623  -0.58476 
 H                     3.75753  -1.20508  -2.06544 
 H                     2.93128   0.81486  -1.46619 
 H                     4.62805   2.04925  -1.12368 
 H                     5.03535   1.73888   1.24542 
 H                     5.40049  -0.68078   1.40406 
 H                     6.90184   0.13734   1.81347 
 H                     6.71909  -0.61657   0.22365 
 H                     7.34642   2.44623   1.09523 
 H                     6.35977   3.23766  -0.11768 
 H                     7.26729   1.67543  -1.87388 
 H                     8.52784   2.60905  -1.05887 
 H                     8.28859   0.91095  -0.63822 
 H                     3.23975   0.18254   1.48951 
 H                     2.63868   1.70528   0.84532 
 H                     0.62451   0.80717   0.20648 
 H                     1.00514  -0.25197   1.55068 
 H                    -2.4874   -3.24406  -0.3864 
 H                    -2.16037  -2.93234   1.31083 
 H                    -4.56677  -2.54903   0.27423 
 H                    -3.95961  -1.53352   1.5653 
 H                    -7.27959   0.29059   2.10675 
 H                    -5.5597   -0.09515   2.21968 
 H                    -6.69146  -1.22766   1.44452 
 

 GradGradGradGradGradGradGradGradGradGradGradGradGradGradGradGradGradGrad
 Berny optimization.
 Initialization pass.
                           ----------------------------
                           !    Initial Parameters    !
                           ! (Angstroms and Degrees)  !
 --------------------------                            --------------------------
 ! Name  Definition              Value          Derivative Info.                !
 --------------------------------------------------------------------------------
 ! R1    R(1,2)                  1.5241         calculate D2E/DX2 analytically  !
 ! R2    R(1,24)                 1.0947         calculate D2E/DX2 analytically  !
 ! R3    R(1,25)                 1.0946         calculate D2E/DX2 analytically  !
 ! R4    R(1,26)                 1.094          calculate D2E/DX2 analytically  !
 ! R5    R(2,3)                  1.5421         calculate D2E/DX2 analytically  !
 ! R6    R(2,27)                 1.0977         calculate D2E/DX2 analytically  !
 ! R7    R(2,28)                 1.096          calculate D2E/DX2 analytically  !
 ! R8    R(3,4)                  1.4692         calculate D2E/DX2 analytically  !
 ! R9    R(3,23)                 1.5294         calculate D2E/DX2 analytically  !
 ! R10   R(3,29)                 1.0984         calculate D2E/DX2 analytically  !
 ! R11   R(4,5)                  1.4651         calculate D2E/DX2 analytically  !
 ! R12   R(4,30)                 1.0193         calculate D2E/DX2 analytically  !
 ! R13   R(5,6)                  1.5346         calculate D2E/DX2 analytically  !
 ! R14   R(5,22)                 1.5414         calculate D2E/DX2 analytically  !
 ! R15   R(5,31)                 1.0949         calculate D2E/DX2 analytically  !
 ! R16   R(6,7)                  1.5327         calculate D2E/DX2 analytically  !
 ! R17   R(6,32)                 1.0976         calculate D2E/DX2 analytically  !
 ! R18   R(6,33)                 1.099          calculate D2E/DX2 analytically  !
 ! R19   R(7,8)                  1.5392         calculate D2E/DX2 analytically  !
 ! R20   R(7,34)                 1.097          calculate D2E/DX2 analytically  !
 ! R21   R(7,35)                 1.0969         calculate D2E/DX2 analytically  !
 ! R22   R(8,9)                  1.5427         calculate D2E/DX2 analytically  !
 ! R23   R(8,21)                 1.533          calculate D2E/DX2 analytically  !
 ! R24   R(8,36)                 1.0981         calculate D2E/DX2 analytically  !
 ! R25   R(9,10)                 1.5425         calculate D2E/DX2 analytically  !
 ! R26   R(9,37)                 1.0984         calculate D2E/DX2 analytically  !
 ! R27   R(9,38)                 1.0983         calculate D2E/DX2 analytically  !
 ! R28   R(10,11)                1.5333         calculate D2E/DX2 analytically  !
 ! R29   R(10,20)                1.5403         calculate D2E/DX2 analytically  !
 ! R30   R(10,39)                1.098          calculate D2E/DX2 analytically  !
 ! R31   R(11,12)                1.5326         calculate D2E/DX2 analytically  !
 ! R32   R(11,40)                1.098          calculate D2E/DX2 analytically  !
 ! R33   R(11,41)                1.0966         calculate D2E/DX2 analytically  !
 ! R34   R(12,13)                1.5401         calculate D2E/DX2 analytically  !
 ! R35   R(12,42)                1.0942         calculate D2E/DX2 analytically  !
 ! R36   R(12,43)                1.0988         calculate D2E/DX2 analytically  !
 ! R37   R(13,14)                1.4707         calculate D2E/DX2 analytically  !
 ! R38   R(13,19)                1.5321         calculate D2E/DX2 analytically  !
 ! R39   R(13,44)                1.1004         calculate D2E/DX2 analytically  !
 ! R40   R(14,15)                1.4709         calculate D2E/DX2 analytically  !
 ! R41   R(14,45)                1.0211         calculate D2E/DX2 analytically  !
 ! R42   R(15,16)                1.5295         calculate D2E/DX2 analytically  !
 ! R43   R(15,17)                1.5479         calculate D2E/DX2 analytically  !
 ! R44   R(15,46)                1.0967         calculate D2E/DX2 analytically  !
 ! R45   R(16,47)                1.0939         calculate D2E/DX2 analytically  !
 ! R46   R(16,48)                1.0956         calculate D2E/DX2 analytically  !
 ! R47   R(16,49)                1.0952         calculate D2E/DX2 analytically  !
 ! R48   R(17,18)                1.5246         calculate D2E/DX2 analytically  !
 ! R49   R(17,50)                1.0972         calculate D2E/DX2 analytically  !
 ! R50   R(17,51)                1.0978         calculate D2E/DX2 analytically  !
 ! R51   R(18,52)                1.0944         calculate D2E/DX2 analytically  !
 ! R52   R(18,53)                1.0952         calculate D2E/DX2 analytically  !
 ! R53   R(18,54)                1.094          calculate D2E/DX2 analytically  !
 ! R54   R(19,20)                1.5342         calculate D2E/DX2 analytically  !
 ! R55   R(19,55)                1.0961         calculate D2E/DX2 analytically  !
 ! R56   R(19,56)                1.0967         calculate D2E/DX2 analytically  !
 ! R57   R(20,57)                1.0968         calculate D2E/DX2 analytically  !
 ! R58   R(20,58)                1.0971         calculate D2E/DX2 analytically  !
 ! R59   R(21,22)                1.5343         calculate D2E/DX2 analytically  !
 ! R60   R(21,59)                1.0985         calculate D2E/DX2 analytically  !
 ! R61   R(21,60)                1.097          calculate D2E/DX2 analytically  !
 ! R62   R(22,61)                1.0971         calculate D2E/DX2 analytically  !
 ! R63   R(22,62)                1.0956         calculate D2E/DX2 analytically  !
 ! R64   R(23,63)                1.0954         calculate D2E/DX2 analytically  !
 ! R65   R(23,64)                1.0942         calculate D2E/DX2 analytically  !
 ! R66   R(23,65)                1.0955         calculate D2E/DX2 analytically  !
 ! A1    A(2,1,24)             109.9742         calculate D2E/DX2 analytically  !
 ! A2    A(2,1,25)             111.0568         calculate D2E/DX2 analytically  !
 ! A3    A(2,1,26)             111.5451         calculate D2E/DX2 analytically  !
 ! A4    A(24,1,25)            108.0117         calculate D2E/DX2 analytically  !
 ! A5    A(24,1,26)            107.5671         calculate D2E/DX2 analytically  !
 ! A6    A(25,1,26)            108.5537         calculate D2E/DX2 analytically  !
 ! A7    A(1,2,3)              113.1743         calculate D2E/DX2 analytically  !
 ! A8    A(1,2,27)             108.0842         calculate D2E/DX2 analytically  !
 ! A9    A(1,2,28)             108.1243         calculate D2E/DX2 analytically  !
 ! A10   A(3,2,27)             109.3488         calculate D2E/DX2 analytically  !
 ! A11   A(3,2,28)             110.9145         calculate D2E/DX2 analytically  !
 ! A12   A(27,2,28)            106.9689         calculate D2E/DX2 analytically  !
 ! A13   A(2,3,4)              112.1697         calculate D2E/DX2 analytically  !
 ! A14   A(2,3,23)             112.7568         calculate D2E/DX2 analytically  !
 ! A15   A(2,3,29)             106.7252         calculate D2E/DX2 analytically  !
 ! A16   A(4,3,23)             113.1469         calculate D2E/DX2 analytically  !
 ! A17   A(4,3,29)             104.8512         calculate D2E/DX2 analytically  !
 ! A18   A(23,3,29)            106.4762         calculate D2E/DX2 analytically  !
 ! A19   A(3,4,5)              118.3703         calculate D2E/DX2 analytically  !
 ! A20   A(3,4,30)             109.8036         calculate D2E/DX2 analytically  !
 ! A21   A(5,4,30)             110.071          calculate D2E/DX2 analytically  !
 ! A22   A(4,5,6)              107.5656         calculate D2E/DX2 analytically  !
 ! A23   A(4,5,22)             112.6979         calculate D2E/DX2 analytically  !
 ! A24   A(4,5,31)             110.759          calculate D2E/DX2 analytically  !
 ! A25   A(6,5,22)             109.669          calculate D2E/DX2 analytically  !
 ! A26   A(6,5,31)             107.024          calculate D2E/DX2 analytically  !
 ! A27   A(22,5,31)            108.9595         calculate D2E/DX2 analytically  !
 ! A28   A(5,6,7)              112.1441         calculate D2E/DX2 analytically  !
 ! A29   A(5,6,32)             110.9638         calculate D2E/DX2 analytically  !
 ! A30   A(5,6,33)             109.621          calculate D2E/DX2 analytically  !
 ! A31   A(7,6,32)             108.8134         calculate D2E/DX2 analytically  !
 ! A32   A(7,6,33)             108.8611         calculate D2E/DX2 analytically  !
 ! A33   A(32,6,33)            106.2435         calculate D2E/DX2 analytically  !
 ! A34   A(6,7,8)              113.8225         calculate D2E/DX2 analytically  !
 ! A35   A(6,7,34)             108.2454         calculate D2E/DX2 analytically  !
 ! A36   A(6,7,35)             108.8794         calculate D2E/DX2 analytically  !
 ! A37   A(8,7,34)             110.8111         calculate D2E/DX2 analytically  !
 ! A38   A(8,7,35)             108.6388         calculate D2E/DX2 analytically  !
 ! A39   A(34,7,35)            106.1497         calculate D2E/DX2 analytically  !
 ! A40   A(7,8,9)              112.2238         calculate D2E/DX2 analytically  !
 ! A41   A(7,8,21)             110.1334         calculate D2E/DX2 analytically  !
 ! A42   A(7,8,36)             108.3215         calculate D2E/DX2 analytically  !
 ! A43   A(9,8,21)             110.5347         calculate D2E/DX2 analytically  !
 ! A44   A(9,8,36)             108.191          calculate D2E/DX2 analytically  !
 ! A45   A(21,8,36)            107.2648         calculate D2E/DX2 analytically  !
 ! A46   A(8,9,10)             115.0787         calculate D2E/DX2 analytically  !
 ! A47   A(8,9,37)             108.8269         calculate D2E/DX2 analytically  !
 ! A48   A(8,9,38)             108.8036         calculate D2E/DX2 analytically  !
 ! A49   A(10,9,37)            108.871          calculate D2E/DX2 analytically  !
 ! A50   A(10,9,38)            108.7848         calculate D2E/DX2 analytically  !
 ! A51   A(37,9,38)            106.1026         calculate D2E/DX2 analytically  !
 ! A52   A(9,10,11)            110.5525         calculate D2E/DX2 analytically  !
 ! A53   A(9,10,20)            112.2147         calculate D2E/DX2 analytically  !
 ! A54   A(9,10,39)            108.1037         calculate D2E/DX2 analytically  !
 ! A55   A(11,10,20)           110.3962         calculate D2E/DX2 analytically  !
 ! A56   A(11,10,39)           107.1372         calculate D2E/DX2 analytically  !
 ! A57   A(20,10,39)           108.249          calculate D2E/DX2 analytically  !
 ! A58   A(10,11,12)           112.0199         calculate D2E/DX2 analytically  !
 ! A59   A(10,11,40)           109.4064         calculate D2E/DX2 analytically  !
 ! A60   A(10,11,41)           110.8075         calculate D2E/DX2 analytically  !
 ! A61   A(12,11,40)           109.1005         calculate D2E/DX2 analytically  !
 ! A62   A(12,11,41)           108.8978         calculate D2E/DX2 analytically  !
 ! A63   A(40,11,41)           106.4399         calculate D2E/DX2 analytically  !
 ! A64   A(11,12,13)           113.3223         calculate D2E/DX2 analytically  !
 ! A65   A(11,12,42)           107.9916         calculate D2E/DX2 analytically  !
 ! A66   A(11,12,43)           109.0189         calculate D2E/DX2 analytically  !
 ! A67   A(13,12,42)           112.5366         calculate D2E/DX2 analytically  !
 ! A68   A(13,12,43)           108.2547         calculate D2E/DX2 analytically  !
 ! A69   A(42,12,43)           105.3759         calculate D2E/DX2 analytically  !
 ! A70   A(12,13,14)           111.7256         calculate D2E/DX2 analytically  !
 ! A71   A(12,13,19)           112.0746         calculate D2E/DX2 analytically  !
 ! A72   A(12,13,44)           105.1936         calculate D2E/DX2 analytically  !
 ! A73   A(14,13,19)           116.7185         calculate D2E/DX2 analytically  !
 ! A74   A(14,13,44)           104.233          calculate D2E/DX2 analytically  !
 ! A75   A(19,13,44)           105.6928         calculate D2E/DX2 analytically  !
 ! A76   A(13,14,15)           118.2558         calculate D2E/DX2 analytically  !
 ! A77   A(13,14,45)           107.7227         calculate D2E/DX2 analytically  !
 ! A78   A(15,14,45)           107.7971         calculate D2E/DX2 analytically  !
 ! A79   A(14,15,16)           113.7286         calculate D2E/DX2 analytically  !
 ! A80   A(14,15,17)           108.9981         calculate D2E/DX2 analytically  !
 ! A81   A(14,15,46)           109.4786         calculate D2E/DX2 analytically  !
 ! A82   A(16,15,17)           110.537          calculate D2E/DX2 analytically  !
 ! A83   A(16,15,46)           108.2518         calculate D2E/DX2 analytically  !
 ! A84   A(17,15,46)           105.5182         calculate D2E/DX2 analytically  !
 ! A85   A(15,16,47)           111.5313         calculate D2E/DX2 analytically  !
 ! A86   A(15,16,48)           110.6744         calculate D2E/DX2 analytically  !
 ! A87   A(15,16,49)           111.8939         calculate D2E/DX2 analytically  !
 ! A88   A(47,16,48)           106.8333         calculate D2E/DX2 analytically  !
 ! A89   A(47,16,49)           107.9925         calculate D2E/DX2 analytically  !
 ! A90   A(48,16,49)           107.6933         calculate D2E/DX2 analytically  !
 ! A91   A(15,17,18)           115.2753         calculate D2E/DX2 analytically  !
 ! A92   A(15,17,50)           109.0124         calculate D2E/DX2 analytically  !
 ! A93   A(15,17,51)           109.1835         calculate D2E/DX2 analytically  !
 ! A94   A(18,17,50)           108.5181         calculate D2E/DX2 analytically  !
 ! A95   A(18,17,51)           108.4939         calculate D2E/DX2 analytically  !
 ! A96   A(50,17,51)           105.9532         calculate D2E/DX2 analytically  !
 ! A97   A(17,18,52)           111.6472         calculate D2E/DX2 analytically  !
 ! A98   A(17,18,53)           109.7813         calculate D2E/DX2 analytically  !
 ! A99   A(17,18,54)           111.5557         calculate D2E/DX2 analytically  !
 ! A100  A(52,18,53)           107.6715         calculate D2E/DX2 analytically  !
 ! A101  A(52,18,54)           108.5015         calculate D2E/DX2 analytically  !
 ! A102  A(53,18,54)           107.519          calculate D2E/DX2 analytically  !
 ! A103  A(13,19,20)           112.1029         calculate D2E/DX2 analytically  !
 ! A104  A(13,19,55)           110.2132         calculate D2E/DX2 analytically  !
 ! A105  A(13,19,56)           110.7872         calculate D2E/DX2 analytically  !
 ! A106  A(20,19,55)           108.1488         calculate D2E/DX2 analytically  !
 ! A107  A(20,19,56)           108.7009         calculate D2E/DX2 analytically  !
 ! A108  A(55,19,56)           106.7011         calculate D2E/DX2 analytically  !
 ! A109  A(10,20,19)           114.1507         calculate D2E/DX2 analytically  !
 ! A110  A(10,20,57)           108.5878         calculate D2E/DX2 analytically  !
 ! A111  A(10,20,58)           110.7541         calculate D2E/DX2 analytically  !
 ! A112  A(19,20,57)           108.8049         calculate D2E/DX2 analytically  !
 ! A113  A(19,20,58)           108.1313         calculate D2E/DX2 analytically  !
 ! A114  A(57,20,58)           106.0916         calculate D2E/DX2 analytically  !
 ! A115  A(8,21,22)            112.3009         calculate D2E/DX2 analytically  !
 ! A116  A(8,21,59)            109.3063         calculate D2E/DX2 analytically  !
 ! A117  A(8,21,60)            110.7643         calculate D2E/DX2 analytically  !
 ! A118  A(22,21,59)           109.0054         calculate D2E/DX2 analytically  !
 ! A119  A(22,21,60)           109.0139         calculate D2E/DX2 analytically  !
 ! A120  A(59,21,60)           106.2552         calculate D2E/DX2 analytically  !
 ! A121  A(5,22,21)            113.8554         calculate D2E/DX2 analytically  !
 ! A122  A(5,22,61)            111.2643         calculate D2E/DX2 analytically  !
 ! A123  A(5,22,62)            108.9833         calculate D2E/DX2 analytically  !
 ! A124  A(21,22,61)           107.9491         calculate D2E/DX2 analytically  !
 ! A125  A(21,22,62)           108.453          calculate D2E/DX2 analytically  !
 ! A126  A(61,22,62)           106.0086         calculate D2E/DX2 analytically  !
 ! A127  A(3,23,63)            110.6843         calculate D2E/DX2 analytically  !
 ! A128  A(3,23,64)            111.8561         calculate D2E/DX2 analytically  !
 ! A129  A(3,23,65)            111.2053         calculate D2E/DX2 analytically  !
 ! A130  A(63,23,64)           107.5392         calculate D2E/DX2 analytically  !
 ! A131  A(63,23,65)           106.6911         calculate D2E/DX2 analytically  !
 ! A132  A(64,23,65)           108.6554         calculate D2E/DX2 analytically  !
 ! D1    D(24,1,2,3)          -175.5415         calculate D2E/DX2 analytically  !
 ! D2    D(24,1,2,27)          -54.2823         calculate D2E/DX2 analytically  !
 ! D3    D(24,1,2,28)           61.181          calculate D2E/DX2 analytically  !
 ! D4    D(25,1,2,3)           -56.038          calculate D2E/DX2 analytically  !
 ! D5    D(25,1,2,27)           65.2212         calculate D2E/DX2 analytically  !
 ! D6    D(25,1,2,28)         -179.3155         calculate D2E/DX2 analytically  !
 ! D7    D(26,1,2,3)            65.199          calculate D2E/DX2 analytically  !
 ! D8    D(26,1,2,27)         -173.5418         calculate D2E/DX2 analytically  !
 ! D9    D(26,1,2,28)          -58.0785         calculate D2E/DX2 analytically  !
 ! D10   D(1,2,3,4)            167.3474         calculate D2E/DX2 analytically  !
 ! D11   D(1,2,3,23)           -63.5117         calculate D2E/DX2 analytically  !
 ! D12   D(1,2,3,29)            53.052          calculate D2E/DX2 analytically  !
 ! D13   D(27,2,3,4)            46.8041         calculate D2E/DX2 analytically  !
 ! D14   D(27,2,3,23)          175.9449         calculate D2E/DX2 analytically  !
 ! D15   D(27,2,3,29)          -67.4913         calculate D2E/DX2 analytically  !
 ! D16   D(28,2,3,4)           -70.9278         calculate D2E/DX2 analytically  !
 ! D17   D(28,2,3,23)           58.213          calculate D2E/DX2 analytically  !
 ! D18   D(28,2,3,29)          174.7768         calculate D2E/DX2 analytically  !
 ! D19   D(2,3,4,5)             63.1911         calculate D2E/DX2 analytically  !
 ! D20   D(2,3,4,30)          -169.2913         calculate D2E/DX2 analytically  !
 ! D21   D(23,3,4,5)           -65.746          calculate D2E/DX2 analytically  !
 ! D22   D(23,3,4,30)           61.7716         calculate D2E/DX2 analytically  !
 ! D23   D(29,3,4,5)           178.6298         calculate D2E/DX2 analytically  !
 ! D24   D(29,3,4,30)          -53.8526         calculate D2E/DX2 analytically  !
 ! D25   D(2,3,23,63)           68.4977         calculate D2E/DX2 analytically  !
 ! D26   D(2,3,23,64)          -51.4037         calculate D2E/DX2 analytically  !
 ! D27   D(2,3,23,65)         -173.0922         calculate D2E/DX2 analytically  !
 ! D28   D(4,3,23,63)         -162.8673         calculate D2E/DX2 analytically  !
 ! D29   D(4,3,23,64)           77.2313         calculate D2E/DX2 analytically  !
 ! D30   D(4,3,23,65)          -44.4571         calculate D2E/DX2 analytically  !
 ! D31   D(29,3,23,63)         -48.2141         calculate D2E/DX2 analytically  !
 ! D32   D(29,3,23,64)        -168.1155         calculate D2E/DX2 analytically  !
 ! D33   D(29,3,23,65)          70.196          calculate D2E/DX2 analytically  !
 ! D34   D(3,4,5,6)           -150.4729         calculate D2E/DX2 analytically  !
 ! D35   D(3,4,5,22)            88.5235         calculate D2E/DX2 analytically  !
 ! D36   D(3,4,5,31)           -33.8318         calculate D2E/DX2 analytically  !
 ! D37   D(30,4,5,6)            82.1361         calculate D2E/DX2 analytically  !
 ! D38   D(30,4,5,22)          -38.8675         calculate D2E/DX2 analytically  !
 ! D39   D(30,4,5,31)         -161.2227         calculate D2E/DX2 analytically  !
 ! D40   D(4,5,6,7)            175.2863         calculate D2E/DX2 analytically  !
 ! D41   D(4,5,6,32)            53.364          calculate D2E/DX2 analytically  !
 ! D42   D(4,5,6,33)           -63.6753         calculate D2E/DX2 analytically  !
 ! D43   D(22,5,6,7)           -61.8274         calculate D2E/DX2 analytically  !
 ! D44   D(22,5,6,32)          176.2504         calculate D2E/DX2 analytically  !
 ! D45   D(22,5,6,33)           59.211          calculate D2E/DX2 analytically  !
 ! D46   D(31,5,6,7)            56.2256         calculate D2E/DX2 analytically  !
 ! D47   D(31,5,6,32)          -65.6967         calculate D2E/DX2 analytically  !
 ! D48   D(31,5,6,33)          177.264          calculate D2E/DX2 analytically  !
 ! D49   D(4,5,22,21)          153.2238         calculate D2E/DX2 analytically  !
 ! D50   D(4,5,22,61)           30.9702         calculate D2E/DX2 analytically  !
 ! D51   D(4,5,22,62)          -85.5699         calculate D2E/DX2 analytically  !
 ! D52   D(6,5,22,21)           33.4281         calculate D2E/DX2 analytically  !
 ! D53   D(6,5,22,61)          -88.8255         calculate D2E/DX2 analytically  !
 ! D54   D(6,5,22,62)          154.6344         calculate D2E/DX2 analytically  !
 ! D55   D(31,5,22,21)         -83.4146         calculate D2E/DX2 analytically  !
 ! D56   D(31,5,22,61)         154.3318         calculate D2E/DX2 analytically  !
 ! D57   D(31,5,22,62)          37.7917         calculate D2E/DX2 analytically  !
 ! D58   D(5,6,7,8)             27.2415         calculate D2E/DX2 analytically  !
 ! D59   D(5,6,7,34)           150.9172         calculate D2E/DX2 analytically  !
 ! D60   D(5,6,7,35)           -94.1054         calculate D2E/DX2 analytically  !
 ! D61   D(32,6,7,8)           150.3835         calculate D2E/DX2 analytically  !
 ! D62   D(32,6,7,34)          -85.9408         calculate D2E/DX2 analytically  !
 ! D63   D(32,6,7,35)           29.0365         calculate D2E/DX2 analytically  !
 ! D64   D(33,6,7,8)           -94.2338         calculate D2E/DX2 analytically  !
 ! D65   D(33,6,7,34)           29.4418         calculate D2E/DX2 analytically  !
 ! D66   D(33,6,7,35)          144.4192         calculate D2E/DX2 analytically  !
 ! D67   D(6,7,8,9)            156.0771         calculate D2E/DX2 analytically  !
 ! D68   D(6,7,8,21)            32.4784         calculate D2E/DX2 analytically  !
 ! D69   D(6,7,8,36)           -84.5468         calculate D2E/DX2 analytically  !
 ! D70   D(34,7,8,9)            33.8043         calculate D2E/DX2 analytically  !
 ! D71   D(34,7,8,21)          -89.7945         calculate D2E/DX2 analytically  !
 ! D72   D(34,7,8,36)          153.1804         calculate D2E/DX2 analytically  !
 ! D73   D(35,7,8,9)           -82.4421         calculate D2E/DX2 analytically  !
 ! D74   D(35,7,8,21)          153.9592         calculate D2E/DX2 analytically  !
 ! D75   D(35,7,8,36)           36.934          calculate D2E/DX2 analytically  !
 ! D76   D(7,8,9,10)            58.332          calculate D2E/DX2 analytically  !
 ! D77   D(7,8,9,37)          -179.1986         calculate D2E/DX2 analytically  !
 ! D78   D(7,8,9,38)           -64.0066         calculate D2E/DX2 analytically  !
 ! D79   D(21,8,9,10)         -178.294          calculate D2E/DX2 analytically  !
 ! D80   D(21,8,9,37)          -55.8246         calculate D2E/DX2 analytically  !
 ! D81   D(21,8,9,38)           59.3674         calculate D2E/DX2 analytically  !
 ! D82   D(36,8,9,10)          -61.1205         calculate D2E/DX2 analytically  !
 ! D83   D(36,8,9,37)           61.349          calculate D2E/DX2 analytically  !
 ! D84   D(36,8,9,38)          176.5409         calculate D2E/DX2 analytically  !
 ! D85   D(7,8,21,22)          -60.8228         calculate D2E/DX2 analytically  !
 ! D86   D(7,8,21,59)           60.2843         calculate D2E/DX2 analytically  !
 ! D87   D(7,8,21,60)          177.0293         calculate D2E/DX2 analytically  !
 ! D88   D(9,8,21,22)          174.6012         calculate D2E/DX2 analytically  !
 ! D89   D(9,8,21,59)          -64.2917         calculate D2E/DX2 analytically  !
 ! D90   D(9,8,21,60)           52.4533         calculate D2E/DX2 analytically  !
 ! D91   D(36,8,21,22)          56.8579         calculate D2E/DX2 analytically  !
 ! D92   D(36,8,21,59)         177.965          calculate D2E/DX2 analytically  !
 ! D93   D(36,8,21,60)         -65.29           calculate D2E/DX2 analytically  !
 ! D94   D(8,9,10,11)         -177.5368         calculate D2E/DX2 analytically  !
 ! D95   D(8,9,10,20)           58.7415         calculate D2E/DX2 analytically  !
 ! D96   D(8,9,10,39)          -60.5586         calculate D2E/DX2 analytically  !
 ! D97   D(37,9,10,11)          60.0174         calculate D2E/DX2 analytically  !
 ! D98   D(37,9,10,20)         -63.7043         calculate D2E/DX2 analytically  !
 ! D99   D(37,9,10,39)         176.9957         calculate D2E/DX2 analytically  !
 ! D100  D(38,9,10,11)         -55.1881         calculate D2E/DX2 analytically  !
 ! D101  D(38,9,10,20)        -178.9098         calculate D2E/DX2 analytically  !
 ! D102  D(38,9,10,39)          61.7902         calculate D2E/DX2 analytically  !
 ! D103  D(9,10,11,12)         173.1957         calculate D2E/DX2 analytically  !
 ! D104  D(9,10,11,40)         -65.6925         calculate D2E/DX2 analytically  !
 ! D105  D(9,10,11,41)          51.3637         calculate D2E/DX2 analytically  !
 ! D106  D(20,10,11,12)        -62.0406         calculate D2E/DX2 analytically  !
 ! D107  D(20,10,11,40)         59.0712         calculate D2E/DX2 analytically  !
 ! D108  D(20,10,11,41)        176.1273         calculate D2E/DX2 analytically  !
 ! D109  D(39,10,11,12)         55.6221         calculate D2E/DX2 analytically  !
 ! D110  D(39,10,11,40)        176.7339         calculate D2E/DX2 analytically  !
 ! D111  D(39,10,11,41)        -66.2099         calculate D2E/DX2 analytically  !
 ! D112  D(9,10,20,19)         155.1583         calculate D2E/DX2 analytically  !
 ! D113  D(9,10,20,57)         -83.2744         calculate D2E/DX2 analytically  !
 ! D114  D(9,10,20,58)          32.8398         calculate D2E/DX2 analytically  !
 ! D115  D(11,10,20,19)         31.3493         calculate D2E/DX2 analytically  !
 ! D116  D(11,10,20,57)        152.9166         calculate D2E/DX2 analytically  !
 ! D117  D(11,10,20,58)        -90.9692         calculate D2E/DX2 analytically  !
 ! D118  D(39,10,20,19)        -85.6268         calculate D2E/DX2 analytically  !
 ! D119  D(39,10,20,57)         35.9405         calculate D2E/DX2 analytically  !
 ! D120  D(39,10,20,58)        152.0547         calculate D2E/DX2 analytically  !
 ! D121  D(10,11,12,13)         30.6176         calculate D2E/DX2 analytically  !
 ! D122  D(10,11,12,42)        155.9872         calculate D2E/DX2 analytically  !
 ! D123  D(10,11,12,43)        -90.0074         calculate D2E/DX2 analytically  !
 ! D124  D(40,11,12,13)        -90.6706         calculate D2E/DX2 analytically  !
 ! D125  D(40,11,12,42)         34.699          calculate D2E/DX2 analytically  !
 ! D126  D(40,11,12,43)        148.7044         calculate D2E/DX2 analytically  !
 ! D127  D(41,11,12,13)        153.5373         calculate D2E/DX2 analytically  !
 ! D128  D(41,11,12,42)        -81.0931         calculate D2E/DX2 analytically  !
 ! D129  D(41,11,12,43)         32.9122         calculate D2E/DX2 analytically  !
 ! D130  D(11,12,13,14)        161.4799         calculate D2E/DX2 analytically  !
 ! D131  D(11,12,13,19)         28.3335         calculate D2E/DX2 analytically  !
 ! D132  D(11,12,13,44)        -86.0337         calculate D2E/DX2 analytically  !
 ! D133  D(42,12,13,14)         38.5868         calculate D2E/DX2 analytically  !
 ! D134  D(42,12,13,19)        -94.5597         calculate D2E/DX2 analytically  !
 ! D135  D(42,12,13,44)        151.0732         calculate D2E/DX2 analytically  !
 ! D136  D(43,12,13,14)        -77.4633         calculate D2E/DX2 analytically  !
 ! D137  D(43,12,13,19)        149.3902         calculate D2E/DX2 analytically  !
 ! D138  D(43,12,13,44)         35.0231         calculate D2E/DX2 analytically  !
 ! D139  D(12,13,14,15)        -93.2949         calculate D2E/DX2 analytically  !
 ! D140  D(12,13,14,45)        144.2907         calculate D2E/DX2 analytically  !
 ! D141  D(19,13,14,15)         37.5094         calculate D2E/DX2 analytically  !
 ! D142  D(19,13,14,45)        -84.905          calculate D2E/DX2 analytically  !
 ! D143  D(44,13,14,15)        153.6183         calculate D2E/DX2 analytically  !
 ! D144  D(44,13,14,45)         31.2038         calculate D2E/DX2 analytically  !
 ! D145  D(12,13,19,20)        -58.6741         calculate D2E/DX2 analytically  !
 ! D146  D(12,13,19,55)         61.8423         calculate D2E/DX2 analytically  !
 ! D147  D(12,13,19,56)        179.7034         calculate D2E/DX2 analytically  !
 ! D148  D(14,13,19,20)        170.6846         calculate D2E/DX2 analytically  !
 ! D149  D(14,13,19,55)        -68.799          calculate D2E/DX2 analytically  !
 ! D150  D(14,13,19,56)         49.0621         calculate D2E/DX2 analytically  !
 ! D151  D(44,13,19,20)         55.3863         calculate D2E/DX2 analytically  !
 ! D152  D(44,13,19,55)        175.9028         calculate D2E/DX2 analytically  !
 ! D153  D(44,13,19,56)        -66.2361         calculate D2E/DX2 analytically  !
 ! D154  D(13,14,15,16)         66.7547         calculate D2E/DX2 analytically  !
 ! D155  D(13,14,15,17)       -169.4228         calculate D2E/DX2 analytically  !
 ! D156  D(13,14,15,46)        -54.4676         calculate D2E/DX2 analytically  !
 ! D157  D(45,14,15,16)       -170.8685         calculate D2E/DX2 analytically  !
 ! D158  D(45,14,15,17)        -47.046          calculate D2E/DX2 analytically  !
 ! D159  D(45,14,15,46)         67.9093         calculate D2E/DX2 analytically  !
 ! D160  D(14,15,16,47)        -69.0483         calculate D2E/DX2 analytically  !
 ! D161  D(14,15,16,48)        172.1602         calculate D2E/DX2 analytically  !
 ! D162  D(14,15,16,49)         52.0449         calculate D2E/DX2 analytically  !
 ! D163  D(17,15,16,47)        167.9679         calculate D2E/DX2 analytically  !
 ! D164  D(17,15,16,48)         49.1764         calculate D2E/DX2 analytically  !
 ! D165  D(17,15,16,49)        -70.9389         calculate D2E/DX2 analytically  !
 ! D166  D(46,15,16,47)         52.8563         calculate D2E/DX2 analytically  !
 ! D167  D(46,15,16,48)        -65.9351         calculate D2E/DX2 analytically  !
 ! D168  D(46,15,16,49)        173.9496         calculate D2E/DX2 analytically  !
 ! D169  D(14,15,17,18)        -62.2586         calculate D2E/DX2 analytically  !
 ! D170  D(14,15,17,50)        175.4525         calculate D2E/DX2 analytically  !
 ! D171  D(14,15,17,51)         60.1319         calculate D2E/DX2 analytically  !
 ! D172  D(16,15,17,18)         63.4349         calculate D2E/DX2 analytically  !
 ! D173  D(16,15,17,50)        -58.854          calculate D2E/DX2 analytically  !
 ! D174  D(16,15,17,51)       -174.1747         calculate D2E/DX2 analytically  !
 ! D175  D(46,15,17,18)       -179.7493         calculate D2E/DX2 analytically  !
 ! D176  D(46,15,17,50)         57.9617         calculate D2E/DX2 analytically  !
 ! D177  D(46,15,17,51)        -57.3589         calculate D2E/DX2 analytically  !
 ! D178  D(15,17,18,52)         59.4967         calculate D2E/DX2 analytically  !
 ! D179  D(15,17,18,53)        178.8249         calculate D2E/DX2 analytically  !
 ! D180  D(15,17,18,54)        -62.095          calculate D2E/DX2 analytically  !
 ! D181  D(50,17,18,52)       -177.95           calculate D2E/DX2 analytically  !
 ! D182  D(50,17,18,53)        -58.6217         calculate D2E/DX2 analytically  !
 ! D183  D(50,17,18,54)         60.4583         calculate D2E/DX2 analytically  !
 ! D184  D(51,17,18,52)        -63.262          calculate D2E/DX2 analytically  !
 ! D185  D(51,17,18,53)         56.0663         calculate D2E/DX2 analytically  !
 ! D186  D(51,17,18,54)        175.1463         calculate D2E/DX2 analytically  !
 ! D187  D(13,19,20,10)         26.8804         calculate D2E/DX2 analytically  !
 ! D188  D(13,19,20,57)        -94.567          calculate D2E/DX2 analytically  !
 ! D189  D(13,19,20,58)        150.6232         calculate D2E/DX2 analytically  !
 ! D190  D(55,19,20,10)        -94.826          calculate D2E/DX2 analytically  !
 ! D191  D(55,19,20,57)        143.7266         calculate D2E/DX2 analytically  !
 ! D192  D(55,19,20,58)         28.9167         calculate D2E/DX2 analytically  !
 ! D193  D(56,19,20,10)        149.6913         calculate D2E/DX2 analytically  !
 ! D194  D(56,19,20,57)         28.2439         calculate D2E/DX2 analytically  !
 ! D195  D(56,19,20,58)        -86.5659         calculate D2E/DX2 analytically  !
 ! D196  D(8,21,22,5)           26.1058         calculate D2E/DX2 analytically  !
 ! D197  D(8,21,22,61)         150.1674         calculate D2E/DX2 analytically  !
 ! D198  D(8,21,22,62)         -95.3953         calculate D2E/DX2 analytically  !
 ! D199  D(59,21,22,5)         -95.1739         calculate D2E/DX2 analytically  !
 ! D200  D(59,21,22,61)         28.8876         calculate D2E/DX2 analytically  !
 ! D201  D(59,21,22,62)        143.3249         calculate D2E/DX2 analytically  !
 ! D202  D(60,21,22,5)         149.2423         calculate D2E/DX2 analytically  !
 ! D203  D(60,21,22,61)        -86.6961         calculate D2E/DX2 analytically  !
 ! D204  D(60,21,22,62)         27.7412         calculate D2E/DX2 analytically  !
 --------------------------------------------------------------------------------
 Trust Radius=3.00D-01 FncErr=1.00D-07 GrdErr=1.00D-06 EigMax=2.50D+02 EigMin=1.00D-04
 Number of steps in this run=    390 maximum allowed number of steps=    390.
 GradGradGradGradGradGradGradGradGradGradGradGradGradGradGradGradGradGrad

 Stoichiometry    C21H42N2
 Framework group  C1[X(C21H42N2)]
 Deg. of freedom   189
 Full point group                 C1      NOp   1
 Largest Abelian subgroup         C1      NOp   1
 Largest concise Abelian subgroup C1      NOp   1
                         Standard orientation:                         
 ---------------------------------------------------------------------
 Center     Atomic      Atomic             Coordinates (Angstroms)
 Number     Number       Type             X           Y           Z
 ---------------------------------------------------------------------
      1          6           0        6.542968    3.364487   -0.228403
      2          6           0        5.576666    2.282270    0.238515
      3          6           0        6.164548    0.860075    0.139713
      4          7           0        5.350079   -0.127772    0.860276
      5          6           0        3.977949   -0.364315    0.404444
      6          6           0        3.149630   -0.783163    1.626565
      7          6           0        1.663548   -0.946390    1.288863
      8          6           0        1.397157   -1.318034   -0.180892
      9          6           0        0.043019   -2.033666   -0.365578
     10          6           0       -1.188632   -1.234690    0.107729
     11          6           0       -2.467089   -2.063068   -0.066457
     12          6           0       -3.688990   -1.369622    0.545863
     13          6           0       -3.600672    0.167433    0.507485
     14          7           0       -4.920028    0.793103    0.683178
     15          6           0       -5.694243    1.135123   -0.519778
     16          6           0       -6.160480   -0.083018   -1.318609
     17          6           0       -6.903095    2.010272   -0.109064
     18          6           0       -7.903154    1.340911    0.827087
     19          6           0       -2.752631    0.666287   -0.666925
     20          6           0       -1.321126    0.116389   -0.619909
     21          6           0        2.540947   -2.183503   -0.721972
     22          6           0        3.891371   -1.456344   -0.680002
     23          6           0        6.476143    0.447386   -1.299644
     24          1           0        6.104827    4.353927   -0.062532
     25          1           0        7.486175    3.314906    0.324877
     26          1           0        6.760917    3.274763   -1.296664
     27          1           0        5.307409    2.492861    1.281680
     28          1           0        4.657626    2.367676   -0.352562
     29          1           0        7.124292    0.876956    0.673661
     30          1           0        5.854754   -1.011106    0.923843
     31          1           0        3.533369    0.558101    0.016720
     32          1           0        3.249820   -0.051326    2.438401
     33          1           0        3.530731   -1.735066    2.022027
     34          1           0        1.238482   -1.698963    1.964370
     35          1           0        1.143432   -0.006959    1.512728
     36          1           0        1.379841   -0.393463   -0.773038
     37          1           0       -0.083144   -2.285041   -1.427345
     38          1           0        0.072025   -2.990636    0.172682
     39          1           0       -1.074983   -1.037065    1.181848
     40          1           0       -2.648809   -2.233027   -1.135901
     41          1           0       -2.354743   -3.053594    0.390513
     42          1           0       -4.582068   -1.751105    0.041673
     43          1           0       -3.790274   -1.682476    1.594258
     44          1           0       -3.045535    0.447154    1.415435
     45          1           0       -4.788468    1.649429    1.223581
     46          1           0       -5.085900    1.765911   -1.179098
     47          1           0       -5.320244   -0.595962   -1.795474
     48          1           0       -6.844228    0.218434   -2.119853
     49          1           0       -6.685783   -0.808270   -0.688037
     50          1           0       -7.434250    2.333072   -1.013190
     51          1           0       -6.537841    2.927921    0.370134
     52          1           0       -7.432576    1.029894    1.764893
     53          1           0       -8.706227    2.043163    1.074980
     54          1           0       -8.364054    0.464232    0.362500
     55          1           0       -3.204820    0.360446   -1.617426
     56          1           0       -2.708235    1.761993   -0.677174
     57          1           0       -0.677421    0.848652   -0.117514
     58          1           0       -0.950226    0.041377   -1.649640
     59          1           0        2.611976   -3.104538   -0.127569
     60          1           0        2.336402   -2.498276   -1.752755
     61          1           0        4.677429   -2.210340   -0.549030
     62          1           0        4.070321   -1.000395   -1.659991
     63          1           0        7.311340    1.033606   -1.698052
     64          1           0        5.619212    0.601793   -1.962253
     65          1           0        6.776083   -0.604896   -1.354073
 ---------------------------------------------------------------------
 Rotational constants (GHZ):           0.5318488           0.0704797           0.0658689
 Standard basis: 6-31G(d,p) (6D, 7F)
 There are   555 symmetry adapted cartesian basis functions of A   symmetry.
 There are   555 symmetry adapted basis functions of A   symmetry.
   555 basis functions,   938 primitive gaussians,   555 cartesian basis functions
    91 alpha electrons       91 beta electrons
       nuclear repulsion energy      2014.7206682864 Hartrees.
 NAtoms=   65 NActive=   65 NUniq=   65 SFac= 1.00D+00 NAtFMM=   60 NAOKFM=T Big=T
 Integral buffers will be    131072 words long.
 Raffenetti 2 integral format.
 Two-electron integral symmetry is turned on.
 Force inversion solution in PCM.
 ------------------------------------------------------------------------------
 Polarizable Continuum Model (PCM)
 =================================
 Model                : PCM.
 Atomic radii         : UFF (Universal Force Field).
 Polarization charges : Total charges.
 Charge compensation  : None.
 Solution method      : Matrix inversion.
 Cavity type          : Scaled VdW (van der Waals Surface) (Alpha=1.100).
 Cavity algorithm     : GePol (No added spheres)
                        Default sphere list used, NSphG=   65.
                        Lebedev-Laikov grids with approx.  5.0 points / Ang**2.
                        Smoothing algorithm: York/Karplus (Gamma=1.0000).
                        Polarization charges: spherical gaussians, with
                                              point-specific exponents (IZeta= 3).
                        Self-potential: point-specific (ISelfS= 7).
                        Self-field    : sphere-specific E.n sum rule (ISelfD= 2).
 1st derivatives      : Analytical E(r).r(x)/FMM algorithm (CHGder, D1EAlg=3).
                        Cavity 1st derivative terms included.
 2nd derivatives      : Analytical E(r).r(xy)/FMM algorithm (CHGder, D2EAlg=3).
                        Cavity 2nd derivative terms included.
 Solvent              : Water, Eps=  78.355300 Eps(inf)=   1.777849
 ------------------------------------------------------------------------------
 One-electron integrals computed using PRISM.
 NBasis=   555 RedAO= T EigKep=  1.48D-03  NBF=   555
 NBsUse=   555 1.00D-06 EigRej= -1.00D+00 NBFU=   555
 ExpMin= 1.61D-01 ExpMax= 4.17D+03 ExpMxC= 6.27D+02 IAcc=3 IRadAn=         5 AccDes= 0.00D+00
 Harris functional with IExCor=  402 and IRadAn=       5 diagonalized for initial guess.
 HarFok:  IExCor=  402 AccDes= 0.00D+00 IRadAn=         5 IDoV= 1 UseB2=F ITyADJ=14
 ICtDFT=  3500011 ScaDFX=  1.000000  1.000000  1.000000  1.000000
 FoFCou: FMM=F IPFlag=           0 FMFlag=      100000 FMFlg1=        2001
         NFxFlg=           0 DoJE=T BraDBF=F KetDBF=T FulRan=T
         wScrn=  0.000000 ICntrl=       500 IOpCl=  0 I1Cent=   200000004 NGrid=           0
         NMat0=    1 NMatS0=      1 NMatT0=    0 NMatD0=    1 NMtDS0=    0 NMtDT0=    0
 Petite list used in FoFCou.
 Requested convergence on RMS density matrix=1.00D-08 within  32 cycles.
 Requested convergence on MAX density matrix=1.00D-06.
 Requested convergence on             energy=1.00D-06.
 No special actions if energy rises.
 Inv3:  Mode=1 IEnd=    40914747.
 Iteration    1 A*A^-1 deviation from unit magnitude is 2.89D-15 for   2388.
 Iteration    1 A*A^-1 deviation from orthogonality  is 2.22D-15 for   3505    911.
 Iteration    1 A^-1*A deviation from unit magnitude is 3.44D-15 for   1495.
 Iteration    1 A^-1*A deviation from orthogonality  is 2.94D-15 for   3346   3293.
 Error on total polarization charges =  0.01557
 SCF Done:  E(RB3LYP) =  -935.089300445     A.U. after   11 cycles
            NFock= 11  Conv=0.34D-08     -V/T= 2.0097
 QCSCF skips out because SCF is already converged.
 DoSCS=F DFT=T ScalE2(SS,OS)=  1.000000  1.000000
 Range of M.O.s used for correlation:     1   555
 NBasis=   555 NAE=    91 NBE=    91 NFC=     0 NFV=     0
 NROrb=    555 NOA=    91 NOB=    91 NVA=   464 NVB=   464
 Symmetrizing basis deriv contribution to polar:
 IMax=3 JMax=2 DiffMx= 0.00D+00
 G2DrvN: will do    66 centers at a time, making    1 passes.
 Calling FoFCou, ICntrl=  3107 FMM=T I1Cent=   0 AccDes= 0.00D+00.
 NEqPCM:  Using equilibrium solvation (IEInf=0, Eps=  78.3553, EpsInf=   1.7778)
 G2PCM: DoFxE=T DoFxN=T DoGrad=T DoDP/DQ/DG/TGxP=FFFF NFrqRd=   0 IEInf=0 SqF1=F DoCFld=F IF1Alg=4.
 End of G2Drv F.D. properties file   721 does not exist.
 End of G2Drv F.D. properties file   722 does not exist.
 End of G2Drv F.D. properties file   788 does not exist.
          IDoAtm=11111111111111111111111111111111111111111111111111
          IDoAtm=111111111111111
 NEqPCM:  Using equilibrium solvation (IEInf=0, Eps=  78.3553, EpsInf=   1.7778)
          Differentiating once with respect to nuclear coordinates.
 CalDSu exits because no D1Ps are significant.
          There are   198 degrees of freedom in the 1st order CPHF.  IDoFFX=6 NUNeed=     0.
    192 vectors produced by pass  0 Test12= 4.22D-14 1.00D-09 XBig12= 8.46D-02 5.08D-02.
 AX will form    72 AO Fock derivatives at one time.
    192 vectors produced by pass  1 Test12= 4.22D-14 1.00D-09 XBig12= 7.25D-03 9.35D-03.
    192 vectors produced by pass  2 Test12= 4.22D-14 1.00D-09 XBig12= 4.90D-05 8.30D-04.
    192 vectors produced by pass  3 Test12= 4.22D-14 1.00D-09 XBig12= 8.82D-08 2.18D-05.
    192 vectors produced by pass  4 Test12= 4.22D-14 1.00D-09 XBig12= 8.97D-11 6.12D-07.
     71 vectors produced by pass  5 Test12= 4.22D-14 1.00D-09 XBig12= 6.06D-14 2.13D-08.
      1 vectors produced by pass  6 Test12= 4.22D-14 1.00D-09 XBig12= 5.09D-17 1.02D-09.
 InvSVY:  IOpt=1 It=  1 EMax= 4.16D-16
 Solved reduced A of dimension  1032 with   198 vectors.
 End of Minotr F.D. properties file   721 does not exist.
 End of Minotr F.D. properties file   722 does not exist.
 End of Minotr F.D. properties file   788 does not exist.

 **********************************************************************

            Population analysis using the SCF density.

 **********************************************************************

 Orbital symmetries:
       Occupied  (A) (A) (A) (A) (A) (A) (A) (A) (A) (A) (A) (A)
                 (A) (A) (A) (A) (A) (A) (A) (A) (A) (A) (A) (A)
                 (A) (A) (A) (A) (A) (A) (A) (A) (A) (A) (A) (A)
                 (A) (A) (A) (A) (A) (A) (A) (A) (A) (A) (A) (A)
                 (A) (A) (A) (A) (A) (A) (A) (A) (A) (A) (A) (A)
                 (A) (A) (A) (A) (A) (A) (A) (A) (A) (A) (A) (A)
                 (A) (A) (A) (A) (A) (A) (A) (A) (A) (A) (A) (A)
                 (A) (A) (A) (A) (A) (A) (A)
       Virtual   (A) (A) (A) (A) (A) (A) (A) (A) (A) (A) (A) (A)
                 (A) (A) (A) (A) (A) (A) (A) (A) (A) (A) (A) (A)
                 (A) (A) (A) (A) (A) (A) (A) (A) (A) (A) (A) (A)
                 (A) (A) (A) (A) (A) (A) (A) (A) (A) (A) (A) (A)
                 (A) (A) (A) (A) (A) (A) (A) (A) (A) (A) (A) (A)
                 (A) (A) (A) (A) (A) (A) (A) (A) (A) (A) (A) (A)
                 (A) (A) (A) (A) (A) (A) (A) (A) (A) (A) (A) (A)
                 (A) (A) (A) (A) (A) (A) (A) (A) (A) (A) (A) (A)
                 (A) (A) (A) (A) (A) (A) (A) (A) (A) (A) (A) (A)
                 (A) (A) (A) (A) (A) (A) (A) (A) (A) (A) (A) (A)
                 (A) (A) (A) (A) (A) (A) (A) (A) (A) (A) (A) (A)
                 (A) (A) (A) (A) (A) (A) (A) (A) (A) (A) (A) (A)
                 (A) (A) (A) (A) (A) (A) (A) (A) (A) (A) (A) (A)
                 (A) (A) (A) (A) (A) (A) (A) (A) (A) (A) (A) (A)
                 (A) (A) (A) (A) (A) (A) (A) (A) (A) (A) (A) (A)
                 (A) (A) (A) (A) (A) (A) (A) (A) (A) (A) (A) (A)
                 (A) (A) (A) (A) (A) (A) (A) (A) (A) (A) (A) (A)
                 (A) (A) (A) (A) (A) (A) (A) (A) (A) (A) (A) (A)
                 (A) (A) (A) (A) (A) (A) (A) (A) (A) (A) (A) (A)
                 (A) (A) (A) (A) (A) (A) (A) (A) (A) (A) (A) (A)
                 (A) (A) (A) (A) (A) (A) (A) (A) (A) (A) (A) (A)
                 (A) (A) (A) (A) (A) (A) (A) (A) (A) (A) (A) (A)
                 (A) (A) (A) (A) (A) (A) (A) (A) (A) (A) (A) (A)
                 (A) (A) (A) (A) (A) (A) (A) (A) (A) (A) (A) (A)
                 (A) (A) (A) (A) (A) (A) (A) (A) (A) (A) (A) (A)
                 (A) (A) (A) (A) (A) (A) (A) (A) (A) (A) (A) (A)
                 (A) (A) (A) (A) (A) (A) (A) (A) (A) (A) (A) (A)
                 (A) (A) (A) (A) (A) (A) (A) (A) (A) (A) (A) (A)
                 (A) (A) (A) (A) (A) (A) (A) (A) (A) (A) (A) (A)
                 (A) (A) (A) (A) (A) (A) (A) (A) (A) (A) (A) (A)
                 (A) (A) (A) (A) (A) (A) (A) (A) (A) (A) (A) (A)
                 (A) (A) (A) (A) (A) (A) (A) (A) (A) (A) (A) (A)
                 (A) (A) (A) (A) (A) (A) (A) (A) (A) (A) (A) (A)
                 (A) (A) (A) (A) (A) (A) (A) (A) (A) (A) (A) (A)
                 (A) (A) (A) (A) (A) (A) (A) (A) (A) (A) (A) (A)
                 (A) (A) (A) (A) (A) (A) (A) (A) (A) (A) (A) (A)
                 (A) (A) (A) (A) (A) (A) (A) (A) (A) (A) (A) (A)
                 (A) (A) (A) (A) (A) (A) (A) (A) (A) (A) (A) (A)
                 (A) (A) (A) (A) (A) (A) (A) (A)
 The electronic state is 1-A.
 Alpha  occ. eigenvalues --  -14.30564 -14.30107 -10.20396 -10.20338 -10.20098
 Alpha  occ. eigenvalues --  -10.19942 -10.17480 -10.17473 -10.17444 -10.17400
 Alpha  occ. eigenvalues --  -10.17002 -10.16968 -10.16848 -10.16834 -10.16791
 Alpha  occ. eigenvalues --  -10.16788 -10.16741 -10.16712 -10.16664 -10.16580
 Alpha  occ. eigenvalues --  -10.16523 -10.16516 -10.16366  -0.89591  -0.89533
 Alpha  occ. eigenvalues --   -0.82900  -0.81273  -0.78009  -0.77095  -0.74342
 Alpha  occ. eigenvalues --   -0.73292  -0.73154  -0.71650  -0.71104  -0.69580
 Alpha  occ. eigenvalues --   -0.65095  -0.63105  -0.62573  -0.60890  -0.60274
 Alpha  occ. eigenvalues --   -0.59934  -0.57434  -0.55319  -0.55020  -0.52279
 Alpha  occ. eigenvalues --   -0.50803  -0.49229  -0.48588  -0.47363  -0.46382
 Alpha  occ. eigenvalues --   -0.45949  -0.45841  -0.44911  -0.44472  -0.43125
 Alpha  occ. eigenvalues --   -0.43045  -0.42003  -0.41563  -0.41191  -0.40017
 Alpha  occ. eigenvalues --   -0.38940  -0.38873  -0.38719  -0.38133  -0.37899
 Alpha  occ. eigenvalues --   -0.37639  -0.37137  -0.36796  -0.36617  -0.35894
 Alpha  occ. eigenvalues --   -0.35804  -0.35488  -0.35062  -0.34693  -0.34292
 Alpha  occ. eigenvalues --   -0.34047  -0.33720  -0.32779  -0.32543  -0.32328
 Alpha  occ. eigenvalues --   -0.32005  -0.31571  -0.31039  -0.30512  -0.29280
 Alpha  occ. eigenvalues --   -0.29219  -0.28631  -0.28091  -0.27532  -0.20987
 Alpha  occ. eigenvalues --   -0.20163
 Alpha virt. eigenvalues --    0.07059   0.07730   0.08691   0.09178   0.09412
 Alpha virt. eigenvalues --    0.09994   0.11366   0.11658   0.12154   0.12938
 Alpha virt. eigenvalues --    0.13366   0.13578   0.14026   0.14174   0.14424
 Alpha virt. eigenvalues --    0.14670   0.14845   0.15704   0.15924   0.16000
 Alpha virt. eigenvalues --    0.16353   0.16730   0.16904   0.17372   0.17663
 Alpha virt. eigenvalues --    0.18098   0.18265   0.18652   0.19175   0.19256
 Alpha virt. eigenvalues --    0.19580   0.19758   0.20023   0.20081   0.20375
 Alpha virt. eigenvalues --    0.21207   0.21448   0.21688   0.21912   0.22411
 Alpha virt. eigenvalues --    0.22725   0.23204   0.23450   0.23693   0.24166
 Alpha virt. eigenvalues --    0.24456   0.24829   0.25737   0.25869   0.25956
 Alpha virt. eigenvalues --    0.26617   0.27649   0.27830   0.28396   0.28941
 Alpha virt. eigenvalues --    0.29215   0.30296   0.30363   0.30871   0.31266
 Alpha virt. eigenvalues --    0.33522   0.34381   0.34842   0.36179   0.36204
 Alpha virt. eigenvalues --    0.37712   0.49432   0.50191   0.50291   0.51082
 Alpha virt. eigenvalues --    0.51395   0.51921   0.52744   0.53096   0.53477
 Alpha virt. eigenvalues --    0.54301   0.54756   0.54918   0.55276   0.55513
 Alpha virt. eigenvalues --    0.56390   0.56994   0.57904   0.58370   0.58962
 Alpha virt. eigenvalues --    0.59737   0.60523   0.61534   0.62995   0.63654
 Alpha virt. eigenvalues --    0.64325   0.64681   0.65143   0.65695   0.65977
 Alpha virt. eigenvalues --    0.66495   0.67220   0.67622   0.68348   0.68906
 Alpha virt. eigenvalues --    0.69569   0.69629   0.70472   0.71056   0.71329
 Alpha virt. eigenvalues --    0.72885   0.73282   0.73592   0.74237   0.75773
 Alpha virt. eigenvalues --    0.76237   0.77554   0.77879   0.79145   0.79794
 Alpha virt. eigenvalues --    0.80325   0.80717   0.81110   0.81903   0.82430
 Alpha virt. eigenvalues --    0.82967   0.83053   0.83767   0.84443   0.84622
 Alpha virt. eigenvalues --    0.84955   0.85476   0.85764   0.86158   0.86845
 Alpha virt. eigenvalues --    0.86996   0.87478   0.87709   0.88080   0.88442
 Alpha virt. eigenvalues --    0.88657   0.88882   0.89454   0.89555   0.90108
 Alpha virt. eigenvalues --    0.90635   0.91107   0.91474   0.92202   0.92238
 Alpha virt. eigenvalues --    0.92803   0.93077   0.93511   0.93615   0.94410
 Alpha virt. eigenvalues --    0.94496   0.94956   0.95279   0.95608   0.96038
 Alpha virt. eigenvalues --    0.96633   0.97043   0.97458   0.98430   0.99005
 Alpha virt. eigenvalues --    0.99777   1.00396   1.00840   1.01618   1.02673
 Alpha virt. eigenvalues --    1.02949   1.03973   1.05346   1.06120   1.08431
 Alpha virt. eigenvalues --    1.09111   1.11355   1.12420   1.13554   1.14569
 Alpha virt. eigenvalues --    1.16809   1.17555   1.21412   1.22625   1.24192
 Alpha virt. eigenvalues --    1.25904   1.26482   1.28474   1.29299   1.30119
 Alpha virt. eigenvalues --    1.31555   1.34993   1.37480   1.38740   1.40611
 Alpha virt. eigenvalues --    1.41582   1.42555   1.43704   1.45658   1.46275
 Alpha virt. eigenvalues --    1.47157   1.49204   1.49432   1.50874   1.51330
 Alpha virt. eigenvalues --    1.53249   1.53738   1.56766   1.56889   1.58132
 Alpha virt. eigenvalues --    1.58453   1.59030   1.60596   1.61862   1.62560
 Alpha virt. eigenvalues --    1.63867   1.65409   1.65716   1.66914   1.68904
 Alpha virt. eigenvalues --    1.69046   1.70229   1.71015   1.71339   1.72756
 Alpha virt. eigenvalues --    1.74096   1.74297   1.75426   1.79156   1.80121
 Alpha virt. eigenvalues --    1.80999   1.81311   1.82538   1.82910   1.83306
 Alpha virt. eigenvalues --    1.83444   1.83930   1.85240   1.86012   1.86443
 Alpha virt. eigenvalues --    1.86932   1.87944   1.88303   1.89017   1.89415
 Alpha virt. eigenvalues --    1.90355   1.91318   1.92472   1.92763   1.93947
 Alpha virt. eigenvalues --    1.94338   1.95409   1.96203   1.96866   1.97403
 Alpha virt. eigenvalues --    1.97906   1.98416   1.98728   1.99758   2.00564
 Alpha virt. eigenvalues --    2.01448   2.02822   2.03298   2.04501   2.05198
 Alpha virt. eigenvalues --    2.05380   2.05801   2.06198   2.06569   2.07108
 Alpha virt. eigenvalues --    2.07927   2.08147   2.08784   2.08927   2.09528
 Alpha virt. eigenvalues --    2.10424   2.10866   2.11811   2.12018   2.13295
 Alpha virt. eigenvalues --    2.13703   2.14044   2.14754   2.15255   2.16225
 Alpha virt. eigenvalues --    2.16857   2.17533   2.17935   2.20666   2.21488
 Alpha virt. eigenvalues --    2.22034   2.22778   2.22975   2.24454   2.24919
 Alpha virt. eigenvalues --    2.25069   2.25888   2.26805   2.27288   2.27417
 Alpha virt. eigenvalues --    2.27984   2.28505   2.29316   2.30019   2.30222
 Alpha virt. eigenvalues --    2.31428   2.31989   2.32276   2.33356   2.34302
 Alpha virt. eigenvalues --    2.34955   2.35867   2.36267   2.36788   2.37345
 Alpha virt. eigenvalues --    2.38666   2.39448   2.40018   2.40919   2.41449
 Alpha virt. eigenvalues --    2.42513   2.42792   2.43524   2.44657   2.44888
 Alpha virt. eigenvalues --    2.45232   2.47147   2.47819   2.48477   2.49555
 Alpha virt. eigenvalues --    2.50244   2.51586   2.52843   2.54084   2.55143
 Alpha virt. eigenvalues --    2.55621   2.56366   2.57811   2.58864   2.59863
 Alpha virt. eigenvalues --    2.60053   2.60986   2.61674   2.63060   2.63627
 Alpha virt. eigenvalues --    2.64708   2.65614   2.65810   2.66726   2.67872
 Alpha virt. eigenvalues --    2.68941   2.69915   2.70140   2.71011   2.71897
 Alpha virt. eigenvalues --    2.72198   2.72477   2.73178   2.73806   2.74247
 Alpha virt. eigenvalues --    2.75351   2.75634   2.76054   2.76567   2.78318
 Alpha virt. eigenvalues --    2.78633   2.79173   2.79270   2.80426   2.81518
 Alpha virt. eigenvalues --    2.81718   2.81971   2.82682   2.83148   2.84516
 Alpha virt. eigenvalues --    2.85114   2.86351   2.87287   2.87998   2.88270
 Alpha virt. eigenvalues --    2.88760   2.89506   2.89960   2.90312   2.90862
 Alpha virt. eigenvalues --    2.90937   2.91473   2.92081   2.92226   2.93389
 Alpha virt. eigenvalues --    2.93707   2.95257   2.95763   2.96706   2.98448
 Alpha virt. eigenvalues --    2.98808   3.00375   3.00887   3.01643   3.02901
 Alpha virt. eigenvalues --    3.03905   3.05896   3.08713   3.11942   3.19145
 Alpha virt. eigenvalues --    3.20425   3.22155   3.22926   3.23057   3.23967
 Alpha virt. eigenvalues --    3.28914   3.29291   3.30449   3.31167   3.31881
 Alpha virt. eigenvalues --    3.34039   3.34185   3.34932   3.35641   3.37818
 Alpha virt. eigenvalues --    3.38183   3.39901   3.40096   3.40577   3.43326
 Alpha virt. eigenvalues --    3.43565   3.44183   3.45038   3.46769   3.47817
 Alpha virt. eigenvalues --    3.48378   3.48627   3.49076   3.50834   3.51453
 Alpha virt. eigenvalues --    3.52035   3.52271   3.52639   3.53407   3.53444
 Alpha virt. eigenvalues --    3.54669   3.56617   3.57127   3.58463   3.59940
 Alpha virt. eigenvalues --    3.60922   4.13056   4.14418   4.28669   4.33221
 Alpha virt. eigenvalues --    4.34740   4.35551   4.46928   4.48063   4.49122
 Alpha virt. eigenvalues --    4.49555   4.49941   4.55317   4.59151   4.61713
 Alpha virt. eigenvalues --    4.62090   4.64952   4.69832   4.71618   4.73385
 Alpha virt. eigenvalues --    4.75942   4.78292   4.92949   4.96176
          Condensed to atoms (all electrons):
 Mulliken charges:
               1
     1  C   -0.328002
     2  C   -0.168017
     3  C    0.078555
     4  N   -0.538323
     5  C    0.069195
     6  C   -0.179725
     7  C   -0.184816
     8  C   -0.058932
     9  C   -0.177805
    10  C   -0.055890
    11  C   -0.190834
    12  C   -0.173137
    13  C    0.068457
    14  N   -0.543637
    15  C    0.093866
    16  C   -0.316902
    17  C   -0.195641
    18  C   -0.315543
    19  C   -0.196876
    20  C   -0.187525
    21  C   -0.190634
    22  C   -0.184926
    23  C   -0.318223
    24  H    0.102146
    25  H    0.104201
    26  H    0.108615
    27  H    0.092301
    28  H    0.096860
    29  H    0.081994
    30  H    0.237045
    31  H    0.098481
    32  H    0.084251
    33  H    0.085061
    34  H    0.087739
    35  H    0.094277
    36  H    0.086917
    37  H    0.079360
    38  H    0.079590
    39  H    0.087431
    40  H    0.088197
    41  H    0.085800
    42  H    0.092518
    43  H    0.085739
    44  H    0.087517
    45  H    0.242329
    46  H    0.073305
    47  H    0.106175
    48  H    0.099986
    49  H    0.107797
    50  H    0.094094
    51  H    0.089199
    52  H    0.106014
    53  H    0.096932
    54  H    0.103854
    55  H    0.098250
    56  H    0.091581
    57  H    0.096310
    58  H    0.089974
    59  H    0.088055
    60  H    0.085683
    61  H    0.086188
    62  H    0.094231
    63  H    0.096367
    64  H    0.104273
    65  H    0.098680
 Sum of Mulliken charges =  -0.00000
 Mulliken charges with hydrogens summed into heavy atoms:
               1
     1  C   -0.013040
     2  C    0.021144
     3  C    0.160548
     4  N   -0.301278
     5  C    0.167675
     6  C   -0.010413
     7  C   -0.002799
     8  C    0.027985
     9  C   -0.018855
    10  C    0.031541
    11  C   -0.016837
    12  C    0.005120
    13  C    0.155973
    14  N   -0.301308
    15  C    0.167171
    16  C   -0.002944
    17  C   -0.012349
    18  C   -0.008744
    19  C   -0.007045
    20  C   -0.001241
    21  C   -0.016896
    22  C   -0.004508
    23  C   -0.018903
 APT charges:
               1
     1  C   -1.799786
     2  C    0.186381
     3  C   -1.059242
     4  N   -1.105306
     5  C    0.172855
     6  C   -0.950820
     7  C   -0.409657
     8  C   -0.188235
     9  C   -0.813504
    10  C   -0.300198
    11  C   -0.821043
    12  C   -1.149336
    13  C    0.048204
    14  N   -0.777969
    15  C   -0.019796
    16  C   -1.189668
    17  C   -1.001306
    18  C   -1.657916
    19  C   -0.857139
    20  C   -0.383744
    21  C   -0.838831
    22  C   -1.078929
    23  C   -1.190046
    24  H    0.314853
    25  H    0.985373
    26  H    0.436243
    27  H    0.243080
    28  H   -0.274830
    29  H    0.947420
    30  H    0.880473
    31  H   -0.034700
    32  H    0.356733
    33  H    0.537682
    34  H    0.390861
    35  H    0.128121
    36  H    0.158064
    37  H    0.359269
    38  H    0.450267
    39  H    0.251031
    40  H    0.393979
    41  H    0.487943
    42  H    0.682577
    43  H    0.429566
    44  H    0.133829
    45  H    0.464960
    46  H   -0.001784
    47  H   -0.249978
    48  H    0.919049
    49  H    0.595132
    50  H    0.828331
    51  H    0.242030
    52  H   -0.067039
    53  H    1.167276
    54  H    0.561762
    55  H    0.460468
    56  H    0.332488
    57  H    0.172497
    58  H    0.303128
    59  H    0.498623
    60  H    0.391840
    61  H    0.723943
    62  H    0.348442
    63  H    1.000237
    64  H   -0.263405
    65  H    0.499200
 Sum of APT charges =  -0.00000
 APT charges with hydrogens summed into heavy atoms:
               1
     1  C   -0.063318
     2  C    0.154630
     3  C   -0.111821
     4  N   -0.224833
     5  C    0.138154
     6  C   -0.056406
     7  C    0.109325
     8  C   -0.030171
     9  C   -0.003969
    10  C   -0.049167
    11  C    0.060880
    12  C   -0.037194
    13  C    0.182033
    14  N   -0.313009
    15  C   -0.021579
    16  C    0.074535
    17  C    0.069055
    18  C    0.004083
    19  C   -0.064183
    20  C    0.091881
    21  C    0.051632
    22  C   -0.006544
    23  C    0.045986
 Electronic spatial extent (au):  <R**2>=          16666.0769
 Charge=             -0.0000 electrons
 Dipole moment (field-independent basis, Debye):
    X=              0.9936    Y=              0.6940    Z=             -1.5334  Tot=              1.9546
 Quadrupole moment (field-independent basis, Debye-Ang):
   XX=           -154.3890   YY=           -145.5200   ZZ=           -151.4599
   XY=             -7.6573   XZ=             -0.3518   YZ=              0.0317
 Traceless Quadrupole moment (field-independent basis, Debye-Ang):
   XX=             -3.9327   YY=              4.9363   ZZ=             -1.0036
   XY=             -7.6573   XZ=             -0.3518   YZ=              0.0317
 Octapole moment (field-independent basis, Debye-Ang**2):
  XXX=             86.0158  YYY=              7.4987  ZZZ=             -2.6199  XYY=             -1.5733
  XXY=              4.3373  XXZ=            -50.7840  XZZ=            -12.5967  YZZ=              1.7642
  YYZ=              8.9726  XYZ=             -9.5214
 Hexadecapole moment (field-independent basis, Debye-Ang**3):
 XXXX=         -19767.3205 YYYY=          -2306.2079 ZZZZ=           -870.6087 XXXY=           -263.3688
 XXXZ=            154.1759 YYYX=            -59.0063 YYYZ=              1.2378 ZZZX=            -14.6041
 ZZZY=              3.8250 XXYY=          -3569.2222 XXZZ=          -3526.7118 YYZZ=           -522.5123
 XXYZ=             -6.9761 YYXZ=             -2.2875 ZZXY=            -14.5958
 N-N= 2.014720668286D+03 E-N=-6.192988993618D+03  KE= 9.261411379445D+02
  Exact polarizability:   0.000   0.000   0.000   0.000   0.000   0.000
 Approx polarizability: 322.004  -2.050 316.009   3.690  -1.128 311.951
 D2PCM: PCM CHGder 2nd derivatives, FixD1E=F FixD2E=F DoIter=F DoCFld=F I1PDM=0
 Calling FoFJK, ICntrl=    100147 FMM=F ISym2X=0 I1Cent= 0 IOpClX= 0 NMat=1 NMatS=1 NMatT=0.
 ***** Axes restored to original set *****
 -------------------------------------------------------------------
 Center     Atomic                   Forces (Hartrees/Bohr)
 Number     Number              X              Y              Z
 -------------------------------------------------------------------
      1        6          -0.000217792    0.002761933    0.002443617
      2        6          -0.000812998   -0.001038059   -0.002518011
      3        6          -0.001159544   -0.004391359   -0.003074455
      4        7          -0.001351641    0.015391093   -0.002606598
      5        6          -0.004608721   -0.011041310   -0.013706739
      6        6           0.003940653   -0.000365119   -0.003404414
      7        6           0.005154079    0.004696942   -0.002498774
      8        6           0.004567524   -0.008558539    0.001222183
      9        6          -0.001031803    0.006607687   -0.001202792
     10        6          -0.002333167   -0.009209699    0.002185648
     11        6           0.000232730   -0.000725321    0.001105203
     12        6           0.003492189   -0.007352776   -0.004350812
     13        6          -0.002752861    0.004203459   -0.007543749
     14        7           0.004235501    0.000750771   -0.004161514
     15        6           0.005474478    0.009116330   -0.000961338
     16        6          -0.001813417   -0.004707731    0.001353674
     17        6          -0.001471027    0.000109517   -0.001176607
     18        6           0.003188814    0.001317324   -0.003313136
     19        6           0.002822826   -0.000918791    0.006647415
     20        6          -0.006281829    0.004341784   -0.001284602
     21        6           0.001055495   -0.003405098   -0.000828247
     22        6           0.003554582   -0.001688674    0.010897680
     23        6          -0.006102674    0.002263243    0.008602607
     24        1          -0.001241302    0.000607018    0.000571527
     25        1          -0.001271736    0.000479889    0.000671301
     26        1          -0.001604394    0.000710106    0.000263207
     27        1           0.001183691   -0.003666022   -0.000507789
     28        1           0.001306889   -0.001776242   -0.000743746
     29        1          -0.000651557    0.001003871   -0.001416900
     30        1           0.002219048    0.001915460    0.002293774
     31        1          -0.005154159    0.001479123    0.000296868
     32        1          -0.003844927   -0.001290455    0.002566336
     33        1          -0.003463530    0.000309922    0.001748257
     34        1           0.002587666   -0.001191470    0.001350417
     35        1           0.001299668   -0.000414727   -0.000583089
     36        1           0.000322403    0.000358424    0.000492165
     37        1           0.000920371    0.000255294    0.000921687
     38        1          -0.000866036   -0.000304651   -0.000905534
     39        1          -0.000346778   -0.000056688   -0.000547893
     40        1          -0.002223434   -0.000665735    0.001302878
     41        1          -0.001696708   -0.000844002    0.001388168
     42        1           0.001151561    0.004461804    0.000354610
     43        1           0.000869821    0.001905676    0.000673955
     44        1           0.000374172    0.000744111    0.001094568
     45        1           0.001542107   -0.002578952    0.003313169
     46        1          -0.000248742   -0.000355955    0.006331204
     47        1           0.000570136   -0.000864486   -0.000712417
     48        1          -0.000483991    0.001760104   -0.000161552
     49        1          -0.001024934    0.000775491   -0.000034635
     50        1          -0.002447051   -0.000596563    0.001470187
     51        1          -0.001939528    0.000410259    0.000654315
     52        1           0.000057786   -0.001145498    0.000896017
     53        1           0.000882613   -0.000595829   -0.000570626
     54        1           0.000325522   -0.000545288   -0.001125158
     55        1           0.002478795    0.001143237   -0.000158416
     56        1           0.003040897    0.000004721   -0.000354455
     57        1          -0.001222607   -0.000523326    0.000694788
     58        1          -0.001577859   -0.002007631   -0.000746836
     59        1           0.002775999   -0.000081759   -0.000763189
     60        1           0.002014488   -0.000672057   -0.001140891
     61        1          -0.002668416    0.003418203   -0.002108934
     62        1          -0.001808793    0.000177481   -0.000196493
     63        1           0.000352045    0.000414532    0.001827991
     64        1           0.000631022   -0.001069415    0.000470074
     65        1           0.001098389    0.000754419   -0.000695149
 -------------------------------------------------------------------
 Cartesian Forces:  Max     0.015391093 RMS     0.003223423
 FormGI is forming the generalized inverse of G from B-inverse, IUseBI=4.

 GradGradGradGradGradGradGradGradGradGradGradGradGradGradGradGradGradGrad
 Berny optimization.
 Internal  Forces:  Max     0.011906793 RMS     0.002334319
 Search for a local minimum.
 Step number   1 out of a maximum of  390
 All quantities printed in internal units (Hartrees-Bohrs-Radians)
 Mixed Optimization -- RFO/linear search
 Second derivative matrix not updated -- analytic derivatives used.
 ITU=  0
     Eigenvalues ---   -0.00178   0.00048   0.00052   0.00174   0.00179
     Eigenvalues ---    0.00185   0.00185   0.00280   0.00281   0.00390
     Eigenvalues ---    0.00406   0.00413   0.00458   0.00506   0.00518
     Eigenvalues ---    0.00608   0.00629   0.01294   0.01574   0.01611
     Eigenvalues ---    0.01904   0.01983   0.01986   0.02324   0.03437
     Eigenvalues ---    0.03542   0.03588   0.03633   0.03637   0.03684
     Eigenvalues ---    0.03737   0.03808   0.03844   0.03923   0.03935
     Eigenvalues ---    0.03950   0.03955   0.03969   0.03986   0.03995
     Eigenvalues ---    0.04043   0.04122   0.04225   0.04287   0.04334
     Eigenvalues ---    0.04420   0.04475   0.04527   0.04538   0.04562
     Eigenvalues ---    0.04596   0.04658   0.04664   0.04675   0.04703
     Eigenvalues ---    0.04777   0.04841   0.04988   0.05110   0.05157
     Eigenvalues ---    0.05205   0.05356   0.05485   0.05542   0.05559
     Eigenvalues ---    0.05646   0.05732   0.05927   0.06078   0.06348
     Eigenvalues ---    0.06877   0.06931   0.07008   0.07225   0.07281
     Eigenvalues ---    0.07354   0.07462   0.07546   0.07548   0.07619
     Eigenvalues ---    0.07700   0.09463   0.09557   0.09826   0.09859
     Eigenvalues ---    0.10454   0.10582   0.10601   0.10738   0.11256
     Eigenvalues ---    0.11405   0.11478   0.12123   0.12230   0.12310
     Eigenvalues ---    0.12525   0.13232   0.13377   0.13591   0.13977
     Eigenvalues ---    0.14002   0.14176   0.14662   0.14664   0.15648
     Eigenvalues ---    0.15840   0.16051   0.16657   0.17950   0.18364
     Eigenvalues ---    0.18822   0.18987   0.19205   0.19298   0.20006
     Eigenvalues ---    0.20775   0.21119   0.21324   0.21883   0.22138
     Eigenvalues ---    0.22504   0.23565   0.23916   0.25055   0.25459
     Eigenvalues ---    0.25899   0.26033   0.26456   0.26903   0.27104
     Eigenvalues ---    0.27212   0.27294   0.27622   0.27997   0.28433
     Eigenvalues ---    0.28652   0.29384   0.29466   0.29767   0.30102
     Eigenvalues ---    0.30980   0.31306   0.31429   0.31514   0.31861
     Eigenvalues ---    0.31986   0.32274   0.32335   0.32389   0.32415
     Eigenvalues ---    0.32491   0.32588   0.32620   0.32685   0.32730
     Eigenvalues ---    0.32794   0.32803   0.32833   0.32912   0.33108
     Eigenvalues ---    0.33142   0.33251   0.33275   0.33336   0.33383
     Eigenvalues ---    0.33461   0.33481   0.33525   0.33555   0.33637
     Eigenvalues ---    0.33643   0.33678   0.33724   0.33793   0.33835
     Eigenvalues ---    0.33860   0.33953   0.34209   0.34218   0.34476
     Eigenvalues ---    0.34534   0.34661   0.34703   0.34820   0.35017
     Eigenvalues ---    0.42463   0.42894   0.43094   0.43808
 RFO step:  Lambda=-1.05311265D-02 EMin=-1.78395414D-03
 Linear search not attempted -- first point.
 Iteration  1 RMS(Cart)=  0.20013994 RMS(Int)=  0.01678198
 Iteration  2 RMS(Cart)=  0.06707423 RMS(Int)=  0.00167790
 Iteration  3 RMS(Cart)=  0.00319489 RMS(Int)=  0.00015309
 Iteration  4 RMS(Cart)=  0.00000600 RMS(Int)=  0.00015308
 Iteration  5 RMS(Cart)=  0.00000000 RMS(Int)=  0.00015308
 Variable       Old X    -DE/DX   Delta X   Delta X   Delta X     New X
                                 (Linear)    (Quad)   (Total)
    R1        2.88017   0.00739   0.00000   0.01643   0.01643   2.89660
[...]
   390    H   32  pz     Ryd( 2p)     0.00022

   391    H   33  S      Val( 1S)     0.77020
   392    H   33  S      Ryd( 2S)     0.00163
   393    H   33  px     Ryd( 2p)     0.00014
   394    H   33  py     Ryd( 2p)     0.00029
   395    H   33  pz     Ryd( 2p)     0.00014

   396    H   34  S      Val( 1S)     0.76411
   397    H   34  S      Ryd( 2S)     0.00202
   398    H   34  px     Ryd( 2p)     0.00015
   399    H   34  py     Ryd( 2p)     0.00019
   400    H   34  pz     Ryd( 2p)     0.00021

   401    H   35  S      Val( 1S)     0.76273
   402    H   35  S      Ryd( 2S)     0.00250
   403    H   35  px     Ryd( 2p)     0.00015
   404    H   35  py     Ryd( 2p)     0.00030
   405    H   35  pz     Ryd( 2p)     0.00011

   406    H   36  S      Val( 1S)     0.76186
   407    H   36  S      Ryd( 2S)     0.00184
   408    H   36  px     Ryd( 2p)     0.00012
   409    H   36  py     Ryd( 2p)     0.00028
   410    H   36  pz     Ryd( 2p)     0.00021

   411    H   37  S      Val( 1S)     0.76676
   412    H   37  S      Ryd( 2S)     0.00206
   413    H   37  px     Ryd( 2p)     0.00010
   414    H   37  py     Ryd( 2p)     0.00013
   415    H   37  pz     Ryd( 2p)     0.00033

   416    H   38  S      Val( 1S)     0.76659
   417    H   38  S      Ryd( 2S)     0.00231
   418    H   38  px     Ryd( 2p)     0.00010
   419    H   38  py     Ryd( 2p)     0.00028
   420    H   38  pz     Ryd( 2p)     0.00018

   421    H   39  S      Val( 1S)     0.76843
   422    H   39  S      Ryd( 2S)     0.01111
   423    H   39  px     Ryd( 2p)     0.00013
   424    H   39  py     Ryd( 2p)     0.00013
   425    H   39  pz     Ryd( 2p)     0.00035

   426    H   40  S      Val( 1S)     0.77058
   427    H   40  S      Ryd( 2S)     0.00888
   428    H   40  px     Ryd( 2p)     0.00011
   429    H   40  py     Ryd( 2p)     0.00013
   430    H   40  pz     Ryd( 2p)     0.00033

   431    H   41  S      Val( 1S)     0.75672
   432    H   41  S      Ryd( 2S)     0.00458
   433    H   41  px     Ryd( 2p)     0.00010
   434    H   41  py     Ryd( 2p)     0.00030
   435    H   41  pz     Ryd( 2p)     0.00015

   436    H   42  S      Val( 1S)     0.75002
   437    H   42  S      Ryd( 2S)     0.00374
   438    H   42  px     Ryd( 2p)     0.00029
   439    H   42  py     Ryd( 2p)     0.00014
   440    H   42  pz     Ryd( 2p)     0.00015

   441    H   43  S      Val( 1S)     0.77610
   442    H   43  S      Ryd( 2S)     0.01481
   443    H   43  px     Ryd( 2p)     0.00010
   444    H   43  py     Ryd( 2p)     0.00010
   445    H   43  pz     Ryd( 2p)     0.00035

   446    H   44  S      Val( 1S)     0.80710
   447    H   44  S      Ryd( 2S)     0.04925
   448    H   44  px     Ryd( 2p)     0.00017
   449    H   44  py     Ryd( 2p)     0.00012
   450    H   44  pz     Ryd( 2p)     0.00026

   451    H   45  S      Val( 1S)     0.70275
   452    H   45  S      Ryd( 2S)     0.08093
   453    H   45  px     Ryd( 2p)     0.00023
   454    H   45  py     Ryd( 2p)     0.00061
   455    H   45  pz     Ryd( 2p)     0.00026

   456    H   46  S      Val( 1S)     0.70951
   457    H   46  S      Ryd( 2S)     0.01720
   458    H   46  px     Ryd( 2p)     0.00015
   459    H   46  py     Ryd( 2p)     0.00017
   460    H   46  pz     Ryd( 2p)     0.00027

   461    H   47  S      Val( 1S)     0.77673
   462    H   47  S      Ryd( 2S)     0.01590
   463    H   47  px     Ryd( 2p)     0.00022
   464    H   47  py     Ryd( 2p)     0.00017
   465    H   47  pz     Ryd( 2p)     0.00012

   466    H   48  S      Val( 1S)     0.76415
   467    H   48  S      Ryd( 2S)     0.01061
   468    H   48  px     Ryd( 2p)     0.00020
   469    H   48  py     Ryd( 2p)     0.00008
   470    H   48  pz     Ryd( 2p)     0.00023

   471    H   49  S      Val( 1S)     0.75430
   472    H   49  S      Ryd( 2S)     0.00214
   473    H   49  px     Ryd( 2p)     0.00015
   474    H   49  py     Ryd( 2p)     0.00015
   475    H   49  pz     Ryd( 2p)     0.00021

   476    H   50  S      Val( 1S)     0.75577
   477    H   50  S      Ryd( 2S)     0.00752
   478    H   50  px     Ryd( 2p)     0.00017
   479    H   50  py     Ryd( 2p)     0.00011
   480    H   50  pz     Ryd( 2p)     0.00026

   481    H   51  S      Val( 1S)     0.78952
   482    H   51  S      Ryd( 2S)     0.02601
   483    H   51  px     Ryd( 2p)     0.00013
   484    H   51  py     Ryd( 2p)     0.00031
   485    H   51  pz     Ryd( 2p)     0.00011

   486    H   52  S      Val( 1S)     0.77278
   487    H   52  S      Ryd( 2S)     0.00535
   488    H   52  px     Ryd( 2p)     0.00014
   489    H   52  py     Ryd( 2p)     0.00010
   490    H   52  pz     Ryd( 2p)     0.00028

   491    H   53  S      Val( 1S)     0.76420
   492    H   53  S      Ryd( 2S)     0.00408
   493    H   53  px     Ryd( 2p)     0.00020
   494    H   53  py     Ryd( 2p)     0.00022
   495    H   53  pz     Ryd( 2p)     0.00009

   496    H   54  S      Val( 1S)     0.76667
   497    H   54  S      Ryd( 2S)     0.00361
   498    H   54  px     Ryd( 2p)     0.00016
   499    H   54  py     Ryd( 2p)     0.00025
   500    H   54  pz     Ryd( 2p)     0.00011

   501    H   55  S      Val( 1S)     0.76349
   502    H   55  S      Ryd( 2S)     0.01569
   503    H   55  px     Ryd( 2p)     0.00015
   504    H   55  py     Ryd( 2p)     0.00016
   505    H   55  pz     Ryd( 2p)     0.00026

   506    H   56  S      Val( 1S)     0.77448
   507    H   56  S      Ryd( 2S)     0.02620
   508    H   56  px     Ryd( 2p)     0.00009
   509    H   56  py     Ryd( 2p)     0.00035
   510    H   56  pz     Ryd( 2p)     0.00011

   511    H   57  S      Val( 1S)     0.76420
   512    H   57  S      Ryd( 2S)     0.00813
   513    H   57  px     Ryd( 2p)     0.00019
   514    H   57  py     Ryd( 2p)     0.00024
   515    H   57  pz     Ryd( 2p)     0.00013

   516    H   58  S      Val( 1S)     0.75209
   517    H   58  S      Ryd( 2S)     0.00256
   518    H   58  px     Ryd( 2p)     0.00014
   519    H   58  py     Ryd( 2p)     0.00011
   520    H   58  pz     Ryd( 2p)     0.00031

   521    H   59  S      Val( 1S)     0.76789
   522    H   59  S      Ryd( 2S)     0.00161
   523    H   59  px     Ryd( 2p)     0.00010
   524    H   59  py     Ryd( 2p)     0.00027
   525    H   59  pz     Ryd( 2p)     0.00020

   526    H   60  S      Val( 1S)     0.75623
   527    H   60  S      Ryd( 2S)     0.00126
   528    H   60  px     Ryd( 2p)     0.00011
   529    H   60  py     Ryd( 2p)     0.00013
   530    H   60  pz     Ryd( 2p)     0.00030

   531    H   61  S      Val( 1S)     0.76572
   532    H   61  S      Ryd( 2S)     0.00149
   533    H   61  px     Ryd( 2p)     0.00024
   534    H   61  py     Ryd( 2p)     0.00022
   535    H   61  pz     Ryd( 2p)     0.00009

   536    H   62  S      Val( 1S)     0.76059
   537    H   62  S      Ryd( 2S)     0.00132
   538    H   62  px     Ryd( 2p)     0.00010
   539    H   62  py     Ryd( 2p)     0.00013
   540    H   62  pz     Ryd( 2p)     0.00032

   541    H   63  S      Val( 1S)     0.76273
   542    H   63  S      Ryd( 2S)     0.00095
   543    H   63  px     Ryd( 2p)     0.00017
   544    H   63  py     Ryd( 2p)     0.00022
   545    H   63  pz     Ryd( 2p)     0.00013

   546    H   64  S      Val( 1S)     0.77091
   547    H   64  S      Ryd( 2S)     0.00096
   548    H   64  px     Ryd( 2p)     0.00030
   549    H   64  py     Ryd( 2p)     0.00010
   550    H   64  pz     Ryd( 2p)     0.00012

   551    H   65  S      Val( 1S)     0.76287
   552    H   65  S      Ryd( 2S)     0.00105
   553    H   65  px     Ryd( 2p)     0.00012
   554    H   65  py     Ryd( 2p)     0.00029
   555    H   65  pz     Ryd( 2p)     0.00011


 Summary of Natural Population Analysis:                  
                                                          
                                       Natural Population 
                Natural  -----------------------------------------------
    Atom  No    Charge         Core      Valence    Rydberg      Total
 -----------------------------------------------------------------------
      C    1   -0.68950      1.99947     4.68323    0.00680     6.68950
      C    2   -0.47199      1.99931     4.46112    0.01156     6.47199
      C    3   -0.05613      1.99923     4.03960    0.01730     6.05613
      N    4   -0.72153      1.99953     5.70604    0.01597     7.72153
      C    5   -0.06480      1.99920     4.04748    0.01812     6.06480
      C    6   -0.46899      1.99930     4.45667    0.01302     6.46899
      C    7   -0.46886      1.99932     4.45789    0.01165     6.46886
      C    8   -0.25453      1.99922     4.24270    0.01262     6.25453
      C    9   -0.44976      1.99929     4.43681    0.01366     6.44976
      C   10   -0.25682      1.99922     4.24449    0.01311     6.25682
      C   11   -0.46580      1.99930     4.45393    0.01256     6.46580
      C   12   -0.46189      1.99929     4.44927    0.01333     6.46189
      C   13   -0.11166      1.99918     4.09332    0.01917     6.11166
      N   14   -0.20004      1.99932     5.18904    0.01169     7.20004
      C   15   -0.10652      1.99917     4.09170    0.01566     6.10652
      C   16   -0.70879      1.99940     4.69945    0.00995     6.70879
      C   17   -0.48518      1.99932     4.47241    0.01345     6.48518
      C   18   -0.69485      1.99946     4.68702    0.00837     6.69485
      C   19   -0.47182      1.99926     4.45983    0.01274     6.47182
      C   20   -0.46776      1.99931     4.45538    0.01307     6.46776
      C   21   -0.46498      1.99931     4.45398    0.01168     6.46498
      C   22   -0.47431      1.99931     4.46320    0.01180     6.47431
      C   23   -0.71082      1.99942     4.70372    0.00768     6.71082
      H   24    0.23850      0.00000     0.76021    0.00129     0.76150
      H   25    0.22865      0.00000     0.76974    0.00161     0.77135
      H   26    0.22948      0.00000     0.76912    0.00139     0.77052
      H   27    0.23894      0.00000     0.75832    0.00274     0.76106
      H   28    0.22789      0.00000     0.77011    0.00200     0.77211
      H   29    0.23861      0.00000     0.75883    0.00257     0.76139
      H   30    0.38837      0.00000     0.60816    0.00347     0.61163
      H   31    0.22993      0.00000     0.76769    0.00238     0.77007
      H   32    0.24371      0.00000     0.75398    0.00231     0.75629
      H   33    0.22760      0.00000     0.77020    0.00220     0.77240
      H   34    0.23332      0.00000     0.76411    0.00257     0.76668
      H   35    0.23421      0.00000     0.76273    0.00306     0.76579
      H   36    0.23570      0.00000     0.76186    0.00244     0.76430
      H   37    0.23062      0.00000     0.76676    0.00262     0.76938
      H   38    0.23055      0.00000     0.76659    0.00287     0.76945
      H   39    0.21986      0.00000     0.76843    0.01171     0.78014
      H   40    0.21996      0.00000     0.77058    0.00946     0.78004
      H   41    0.23816      0.00000     0.75672    0.00512     0.76184
      H   42    0.24567      0.00000     0.75002    0.00431     0.75433
      H   43    0.20854      0.00000     0.77610    0.01536     0.79146
      H   44    0.14310      0.00000     0.80710    0.04980     0.85690
      H   45    0.21522      0.00000     0.70275    0.08203     0.78478
      H   46    0.27270      0.00000     0.70951    0.01779     0.72730
      H   47    0.20685      0.00000     0.77673    0.01642     0.79315
      H   48    0.22474      0.00000     0.76415    0.01111     0.77526
      H   49    0.24304      0.00000     0.75430    0.00266     0.75696
      H   50    0.23617      0.00000     0.75577    0.00806     0.76383
      H   51    0.18392      0.00000     0.78952    0.02656     0.81608
      H   52    0.22135      0.00000     0.77278    0.00587     0.77865
      H   53    0.23121      0.00000     0.76420    0.00459     0.76879
      H   54    0.22921      0.00000     0.76667    0.00413     0.77079
      H   55    0.22026      0.00000     0.76349    0.01626     0.77974
      H   56    0.19878      0.00000     0.77448    0.02674     0.80122
      H   57    0.22711      0.00000     0.76420    0.00870     0.77289
      H   58    0.24479      0.00000     0.75209    0.00312     0.75521
      H   59    0.22993      0.00000     0.76789    0.00218     0.77007
      H   60    0.24196      0.00000     0.75623    0.00181     0.75804
      H   61    0.23224      0.00000     0.76572    0.00205     0.76776
      H   62    0.23754      0.00000     0.76059    0.00187     0.76246
      H   63    0.23579      0.00000     0.76273    0.00147     0.76421
      H   64    0.22760      0.00000     0.77091    0.00148     0.77240
      H   65    0.23556      0.00000     0.76287    0.00156     0.76444
 =======================================================================
   * Total *   -0.00000     45.98412   135.34317    0.67271   182.00000

                                 Natural Population      
 --------------------------------------------------------
   Core                      45.98412 ( 99.9655% of  46)
   Valence                  135.34317 ( 99.5170% of 136)
   Natural Minimal Basis    181.32729 ( 99.6304% of 182)
   Natural Rydberg Basis      0.67271 (  0.3696% of 182)
 --------------------------------------------------------

    Atom  No          Natural Electron Configuration
 ----------------------------------------------------------------------------
      C    1      [core]2S( 1.10)2p( 3.58)
      C    2      [core]2S( 1.04)2p( 3.42)3p( 0.01)
      C    3      [core]2S( 0.95)2p( 3.09)3p( 0.01)3d( 0.01)
      N    4      [core]2S( 1.33)2p( 4.38)3p( 0.01)
      C    5      [core]2S( 0.94)2p( 3.10)3p( 0.01)3d( 0.01)
      C    6      [core]2S( 1.04)2p( 3.42)3p( 0.01)
      C    7      [core]2S( 1.03)2p( 3.43)3p( 0.01)
      C    8      [core]2S( 0.96)2p( 3.28)3p( 0.01)
      C    9      [core]2S( 1.02)2p( 3.42)3p( 0.01)
      C   10      [core]2S( 0.97)2p( 3.28)3p( 0.01)
      C   11      [core]2S( 1.03)2p( 3.42)3p( 0.01)
      C   12      [core]2S( 1.04)2p( 3.41)3p( 0.01)
      C   13      [core]2S( 0.97)2p( 3.12)3p( 0.01)
      N   14      [core]2S( 1.36)2p( 3.83)3p( 0.01)
      C   15      [core]2S( 0.98)2p( 3.11)3p( 0.01)
      C   16      [core]2S( 1.11)2p( 3.59)3p( 0.01)
      C   17      [core]2S( 1.04)2p( 3.43)3p( 0.01)
      C   18      [core]2S( 1.11)2p( 3.58)3p( 0.01)
      C   19      [core]2S( 1.06)2p( 3.40)3p( 0.01)
      C   20      [core]2S( 1.03)2p( 3.43)3p( 0.01)
      C   21      [core]2S( 1.03)2p( 3.43)3p( 0.01)
      C   22      [core]2S( 1.04)2p( 3.43)3p( 0.01)
      C   23      [core]2S( 1.11)2p( 3.60)
      H   24            1S( 0.76)
      H   25            1S( 0.77)
      H   26            1S( 0.77)
      H   27            1S( 0.76)
      H   28            1S( 0.77)
      H   29            1S( 0.76)
      H   30            1S( 0.61)
      H   31            1S( 0.77)
      H   32            1S( 0.75)
      H   33            1S( 0.77)
      H   34            1S( 0.76)
      H   35            1S( 0.76)
      H   36            1S( 0.76)
      H   37            1S( 0.77)
      H   38            1S( 0.77)
      H   39            1S( 0.77)2S( 0.01)
      H   40            1S( 0.77)2S( 0.01)
      H   41            1S( 0.76)
      H   42            1S( 0.75)
      H   43            1S( 0.78)2S( 0.01)
      H   44            1S( 0.81)2S( 0.05)
      H   45            1S( 0.70)2S( 0.08)
      H   46            1S( 0.71)2S( 0.02)
      H   47            1S( 0.78)2S( 0.02)
      H   48            1S( 0.76)2S( 0.01)
      H   49            1S( 0.75)
      H   50            1S( 0.76)2S( 0.01)
      H   51            1S( 0.79)2S( 0.03)
      H   52            1S( 0.77)2S( 0.01)
      H   53            1S( 0.76)
      H   54            1S( 0.77)
      H   55            1S( 0.76)2S( 0.02)
      H   56            1S( 0.77)2S( 0.03)
      H   57            1S( 0.76)2S( 0.01)
      H   58            1S( 0.75)
      H   59            1S( 0.77)
      H   60            1S( 0.76)
      H   61            1S( 0.77)
      H   62            1S( 0.76)
      H   63            1S( 0.76)
      H   64            1S( 0.77)
      H   65            1S( 0.76)


 NBO analysis skipped by request.
 1\1\GINC-DRG2-W004\SP\RB3LYP TD-FC\6-31G(d,p)\C21H42N2\QDUEZ\18-Jul-20
 24\0\\# TD(NStates=10, Root=1) B3LYP/6-31G** SCRF=(Solvent=water) volu
 me pop=NPA density=current Geom=AllCheck Guess=Read\\PICLBAFTFYTURY-HQ
 ZQWKOLSA-N_conf_0\\0,1\C,0,-6.607128523,3.0749820277,0.6828878347\C,0,
 -5.746585305,1.9847331262,0.0344405192\C,0,-6.1959596767,0.5442059827,
 0.348847675\N,0,-5.5012257835,-0.410812891,-0.5379042961\C,0,-4.072367
 3169,-0.6895877697,-0.2979770975\C,0,-3.3108915641,-0.8024349773,-1.62
 95847959\C,0,-1.7799016742,-0.8721576744,-1.4192842256\C,0,-1.37541026
 06,-1.5672800326,-0.0924786441\C,0,0.0318283641,-2.1868438037,-0.15619
 14714\C,0,1.1877605265,-1.2135584445,-0.44728798\C,0,2.5316260633,-1.9
 501268513,-0.5761952041\C,0,3.6502728323,-1.0133663048,-1.0799259983\C
 ,0,3.4971585815,0.4409560695,-0.55892826\N,0,4.776451229,1.1856275061,
 -0.6134109407\C,0,5.6631418533,1.1984145751,0.5678144907\C,0,6.3255361
 134,-0.1614237463,0.8281079639\C,0,6.7126600315,2.3143230697,0.3749712
 236\C,0,7.6471448672,2.1460041355,-0.8286898588\C,0,2.745743162,0.4518
 938091,0.7863122972\C,0,1.3072500821,-0.0965057568,0.6251379989\C,0,-2
 .4381369958,-2.6144987768,0.2790268529\C,0,-3.8160655046,-1.9664593216
 ,0.5494796613\C,0,-6.1162630625,0.2138738344,1.8516602182\H,0,-6.29243
 48316,4.0682634973,0.3466583032\H,0,-7.6642164489,2.9552544425,0.41771
 73638\H,0,-6.5354476089,3.0621612002,1.774964441\H,0,-5.7673206381,2.1
 022472113,-1.0552885871\H,0,-4.701019139,2.1219940219,0.3408353523\H,0
 ,-7.2533480336,0.4737730944,0.0563403638\H,0,-6.0134492327,-1.28926376
 75,-0.532767129\H,0,-3.6576059719,0.1722145927,0.2391015199\H,0,-3.572
 0501719,0.0472566255,-2.2684981648\H,0,-3.6642355194,-1.7006512563,-2.
 1547088241\H,0,-1.326382202,-1.4090699602,-2.2628475494\H,0,-1.3597369
 504,0.1404709772,-1.4415165832\H,0,-1.3753186053,-0.8106386317,0.70543
 69357\H,0,0.2388450033,-2.6945206702,0.7977864845\H,0,0.0288362771,-2.
 9724840953,-0.9264887498\H,0,0.9898070364,-0.7369638996,-1.4182054448\
 H,0,2.8011879114,-2.365335097,0.4051073317\H,0,2.4326970912,-2.8089786
 957,-1.2511116914\H,0,4.6240265158,-1.4124102248,-0.7856864138\H,0,3.6
 51596725,-0.9879177405,-2.1765453841\H,0,2.8499892855,0.9669068454,-1.
 2733093421\H,0,4.5449470356,2.1570337689,-0.8070634323\H,0,5.105481258
 1,1.4617894837,1.4836483701\H,0,5.5973682056,-0.9157865728,1.137565867
 7\H,0,7.0610924608,-0.0681375051,1.6346988533\H,0,6.8384099466,-0.5338
 642678,-0.0637840144\H,0,7.3052566525,2.3827792189,1.2957656494\H,0,6.
 1812919255,3.2725168108,0.287374976\H,0,7.0783247345,2.0546287883,-1.7
 580887767\H,0,8.3153234854,3.008481567,-0.9216071969\H,0,8.2745359858,
 1.2539886614,-0.7328026034\H,0,3.2922433025,-0.152816455,1.5202184364\
 H,0,2.7109781965,1.4706089845,1.1901488554\H,0,0.6289485578,0.72625831
 18,0.3695280954\H,0,0.9654196759,-0.4838282243,1.5938183949\H,0,-2.517
 9034159,-3.3378775572,-0.5440796142\H,0,-2.1182716182,-3.1885876971,1.
 1569436529\H,0,-4.6052824956,-2.6978511074,0.3286300364\H,0,-3.9143500
 398,-1.7233303907,1.6132709292\H,0,-6.7588952724,0.8763008938,2.440630
 7087\H,0,-5.0940099919,0.3203049099,2.2316808814\H,0,-6.4419671204,-0.
 8148778765,2.0374066798\\Version=ES64L-G16RevA.03\State=1-A\HF=-935.09
 5954\RMSD=2.721e-09\Dipole=0.4353487,-0.4429088,0.766798\Quadrupole=6.
 0435578,-3.1252169,-2.9183409,0.9575547,-2.5254961,1.4342492\PG=C01 [X
 (C21H42N2)]\\@


 IN-LAWS ARE LIKE SEEDS. YOU DON'T NEED THEM
 BUT THEY COME WITH THE TOMATO.
 Job cpu time:       0 days  3 hours 12 minutes  7.9 seconds.
 Elapsed time:       0 days  1 hours  4 minutes 13.3 seconds.
 File lengths (MBytes):  RWF=   2306 Int=      0 D2E=      0 Chk=    148 Scr=      1
 Normal termination of Gaussian 16 at Thu Jul 18 22:17:55 2024.
