 Entering Gaussian System, Link 0=g16
 Initial command:
 /opt/sw/arch/manual/gaussian/G16_A03/g16/l1.exe "/scratch/1032039.jesse.materianova.be/Gau-17341.inp" -scrdir="/scratch/1032039.jesse.materianova.be/"
 Entering Link 1 = /opt/sw/arch/manual/gaussian/G16_A03/g16/l1.exe PID=     17342.
  
 Copyright (c) 1988,1990,1992,1993,1995,1998,2003,2009,2016,
            Gaussian, Inc.  All Rights Reserved.
  
 This is part of the Gaussian(R) 16 program.  It is based on
 the Gaussian(R) 09 system (copyright 2009, Gaussian, Inc.),
 the Gaussian(R) 03 system (copyright 2003, Gaussian, Inc.),
 the Gaussian(R) 98 system (copyright 1998, Gaussian, Inc.),
 the Gaussian(R) 94 system (copyright 1995, Gaussian, Inc.),
 the Gaussian 92(TM) system (copyright 1992, Gaussian, Inc.),
 the Gaussian 90(TM) system (copyright 1990, Gaussian, Inc.),
 the Gaussian 88(TM) system (copyright 1988, Gaussian, Inc.),
 the Gaussian 86(TM) system (copyright 1986, Carnegie Mellon
 University), and the Gaussian 82(TM) system (copyright 1983,
 Carnegie Mellon University). Gaussian is a federally registered
 trademark of Gaussian, Inc.
  
 This software contains proprietary and confidential information,
 including trade secrets, belonging to Gaussian, Inc.
  
 This software is provided under written license and may be
 used, copied, transmitted, or stored only in accord with that
 written license.
  
 The following legend is applicable only to US Government
 contracts under FAR:
  
                    RESTRICTED RIGHTS LEGEND
  
 Use, reproduction and disclosure by the US Government is
 subject to restrictions as set forth in subparagraphs (a)
 and (c) of the Commercial Computer Software - Restricted
 Rights clause in FAR 52.227-19.
  
 Gaussian, Inc.
 340 Quinnipiac St., Bldg. 40, Wallingford CT 06492
  
  
 ---------------------------------------------------------------
 Warning -- This program may not be used in any manner that
 competes with the business of Gaussian, Inc. or will provide
 assistance to any competitor of Gaussian, Inc.  The licensee
 of this program is prohibited from giving any competitor of
 Gaussian, Inc. access to this program.  By using this program,
 the user acknowledges that Gaussian, Inc. is engaged in the
 business of creating and licensing software in the field of
 computational chemistry and represents and warrants to the
 licensee that it is not a competitor of Gaussian, Inc. and that
 it will not use this program in any manner prohibited above.
 ---------------------------------------------------------------
  

 Cite this work as:
 Gaussian 16, Revision A.03,
 M. J. Frisch, G. W. Trucks, H. B. Schlegel, G. E. Scuseria, 
 M. A. Robb, J. R. Cheeseman, G. Scalmani, V. Barone, 
 G. A. Petersson, H. Nakatsuji, X. Li, M. Caricato, A. V. Marenich, 
 J. Bloino, B. G. Janesko, R. Gomperts, B. Mennucci, H. P. Hratchian, 
 J. V. Ortiz, A. F. Izmaylov, J. L. Sonnenberg, D. Williams-Young, 
 F. Ding, F. Lipparini, F. Egidi, J. Goings, B. Peng, A. Petrone, 
 T. Henderson, D. Ranasinghe, V. G. Zakrzewski, J. Gao, N. Rega, 
 G. Zheng, W. Liang, M. Hada, M. Ehara, K. Toyota, R. Fukuda, 
 J. Hasegawa, M. Ishida, T. Nakajima, Y. Honda, O. Kitao, H. Nakai, 
 T. Vreven, K. Throssell, J. A. Montgomery, Jr., J. E. Peralta, 
 F. Ogliaro, M. J. Bearpark, J. J. Heyd, E. N. Brothers, K. N. Kudin, 
 V. N. Staroverov, T. A. Keith, R. Kobayashi, J. Normand, 
 K. Raghavachari, A. P. Rendell, J. C. Burant, S. S. Iyengar, 
 J. Tomasi, M. Cossi, J. M. Millam, M. Klene, C. Adamo, R. Cammi, 
 J. W. Ochterski, R. L. Martin, K. Morokuma, O. Farkas, 
 J. B. Foresman, and D. J. Fox, Gaussian, Inc., Wallingford CT, 2016.
 
 ******************************************
 Gaussian 16:  EM64L-G16RevA.03 25-Dec-2016
                11-Jul-2024 
 ******************************************
 %nprocshared=5
 Will use up to    5 processors via shared memory.
 %mem=10GB
 %Chk=CAPCBAYULRXQAN-VIFPVBQESA-N_conf_4_0.chk
 -------------------------------------------------------
 # opt=CalcFc B3LYP/6-31G** SCRF=(Solvent=water) scf=xqc
 -------------------------------------------------------
 1/10=4,18=20,19=15,26=3,38=1/1,3;
 2/9=110,12=2,17=6,18=5,40=1/2;
 3/5=1,6=6,7=101,11=2,25=1,30=1,70=2201,71=2,72=1,74=-5,140=1/1,2,3;
 4//1;
 5/5=2,8=3,13=1,38=5,53=1/2,8;
 8/6=4,10=90,11=11/1;
 11/6=1,8=1,9=11,15=111,16=1/1,2,10;
 10/6=1,13=1/2;
 6/7=2,8=2,9=2,10=2,28=1/1;
 7/10=1,18=20,25=1/1,2,3,16;
 1/10=4,18=20,19=15,26=3/3(2);
 2/9=110/2;
 99//99;
 2/9=110/2;
 3/5=1,6=6,7=101,11=2,25=1,30=1,70=2205,71=1,72=1,74=-5/1,2,3;
 4/5=5,16=3,69=1/1;
 5/5=2,8=3,13=1,38=5,53=1/2,8;
 7//1,2,3,16;
 1/18=20,19=15,26=3/3(-5);
 2/9=110/2;
 6/7=2,8=2,9=2,10=2,19=2,28=1/1;
 99/9=1/99;
 ----------------------------------
 CAPCBAYULRXQAN-VIFPVBQESA-N_conf_4
 ----------------------------------
 Symbolic Z-matrix:
 Charge =  0 Multiplicity = 1
 C                     3.8341    1.94191  -0.38029 
 C                     2.65096   0.98116  -0.50176 
 N                     3.13152  -0.27585  -1.07313 
 C                     1.98582   0.77711   0.87086 
 C                     0.76983  -0.16083   0.88872 
 C                    -0.37218   0.31063  -0.02403 
 N                    -1.57991  -0.52319   0.15109 
 C                    -2.78827   0.21368  -0.26927 
 C                    -3.23933   1.22058   0.7853 
 C                    -1.45324  -1.78609  -0.60343 
 C                    -2.38309  -2.86954  -0.06482 
 H                     4.60144   1.55448   0.29956 
 H                     3.50446   2.91354   0.00343 
 H                     4.3023    2.11374  -1.35608 
 H                     1.93276   1.4255   -1.199 
 H                     2.35719  -0.92564  -1.19722 
 H                     3.77613  -0.72617  -0.42369 
 H                     1.67535   1.75471   1.26251 
 H                     2.72593   0.38666   1.58223 
 H                     1.09025  -1.17539   0.63088 
 H                     0.40203  -0.21088   1.92216 
 H                    -0.06441   0.31658  -1.07668 
 H                    -0.58025   1.35257   0.24291 
 H                    -2.63101   0.71572  -1.23234 
 H                    -3.62951  -0.47298  -0.41289 
 H                    -4.18949   1.67376   0.48321 
 H                    -2.51951   2.03203   0.92315 
 H                    -3.39591   0.73127   1.7526 
 H                    -1.63365  -1.62763  -1.67427 
 H                    -0.43707  -2.18658  -0.51891 
 H                    -2.21541  -3.03366   1.00503 
 H                    -2.18936  -3.81549  -0.58162 
 H                    -3.43847  -2.62568  -0.21419 
 

 GradGradGradGradGradGradGradGradGradGradGradGradGradGradGradGradGradGrad
 Berny optimization.
 Initialization pass.
                           ----------------------------
                           !    Initial Parameters    !
                           ! (Angstroms and Degrees)  !
 --------------------------                            --------------------------
 ! Name  Definition              Value          Derivative Info.                !
 --------------------------------------------------------------------------------
 ! R1    R(1,2)                  1.5289         calculate D2E/DX2 analytically  !
 ! R2    R(1,12)                 1.096          calculate D2E/DX2 analytically  !
 ! R3    R(1,13)                 1.0954         calculate D2E/DX2 analytically  !
 ! R4    R(1,14)                 1.0959         calculate D2E/DX2 analytically  !
 ! R5    R(2,3)                  1.462          calculate D2E/DX2 analytically  !
 ! R6    R(2,4)                  1.5389         calculate D2E/DX2 analytically  !
 ! R7    R(2,15)                 1.0952         calculate D2E/DX2 analytically  !
 ! R8    R(3,16)                 1.0184         calculate D2E/DX2 analytically  !
 ! R9    R(3,17)                 1.0198         calculate D2E/DX2 analytically  !
 ! R10   R(4,5)                  1.5358         calculate D2E/DX2 analytically  !
 ! R11   R(4,18)                 1.0979         calculate D2E/DX2 analytically  !
 ! R12   R(4,19)                 1.0983         calculate D2E/DX2 analytically  !
 ! R13   R(5,6)                  1.5361         calculate D2E/DX2 analytically  !
 ! R14   R(5,20)                 1.0948         calculate D2E/DX2 analytically  !
 ! R15   R(5,21)                 1.0981         calculate D2E/DX2 analytically  !
 ! R16   R(6,7)                  1.478          calculate D2E/DX2 analytically  !
 ! R17   R(6,22)                 1.0967         calculate D2E/DX2 analytically  !
 ! R18   R(6,23)                 1.0955         calculate D2E/DX2 analytically  !
 ! R19   R(7,8)                  1.4764         calculate D2E/DX2 analytically  !
 ! R20   R(7,10)                 1.4766         calculate D2E/DX2 analytically  !
 ! R21   R(8,9)                  1.5262         calculate D2E/DX2 analytically  !
 ! R22   R(8,24)                 1.0974         calculate D2E/DX2 analytically  !
 ! R23   R(8,25)                 1.0954         calculate D2E/DX2 analytically  !
 ! R24   R(9,26)                 1.0952         calculate D2E/DX2 analytically  !
 ! R25   R(9,27)                 1.0934         calculate D2E/DX2 analytically  !
 ! R26   R(9,28)                 1.0953         calculate D2E/DX2 analytically  !
 ! R27   R(10,11)                1.526          calculate D2E/DX2 analytically  !
 ! R28   R(10,29)                1.0974         calculate D2E/DX2 analytically  !
 ! R29   R(10,30)                1.0955         calculate D2E/DX2 analytically  !
 ! R30   R(11,31)                1.0953         calculate D2E/DX2 analytically  !
 ! R31   R(11,32)                1.0952         calculate D2E/DX2 analytically  !
 ! R32   R(11,33)                1.0934         calculate D2E/DX2 analytically  !
 ! A1    A(2,1,12)             111.6512         calculate D2E/DX2 analytically  !
 ! A2    A(2,1,13)             110.6302         calculate D2E/DX2 analytically  !
 ! A3    A(2,1,14)             111.0018         calculate D2E/DX2 analytically  !
 ! A4    A(12,1,13)            107.8761         calculate D2E/DX2 analytically  !
 ! A5    A(12,1,14)            107.9776         calculate D2E/DX2 analytically  !
 ! A6    A(13,1,14)            107.542          calculate D2E/DX2 analytically  !
 ! A7    A(1,2,3)              108.4794         calculate D2E/DX2 analytically  !
 ! A8    A(1,2,4)              110.2994         calculate D2E/DX2 analytically  !
 ! A9    A(1,2,15)             107.6442         calculate D2E/DX2 analytically  !
 ! A10   A(3,2,4)              112.1265         calculate D2E/DX2 analytically  !
 ! A11   A(3,2,15)             108.3962         calculate D2E/DX2 analytically  !
 ! A12   A(4,2,15)             109.7684         calculate D2E/DX2 analytically  !
 ! A13   A(2,3,16)             110.2595         calculate D2E/DX2 analytically  !
 ! A14   A(2,3,17)             109.7876         calculate D2E/DX2 analytically  !
 ! A15   A(16,3,17)            106.0472         calculate D2E/DX2 analytically  !
 ! A16   A(2,4,5)              115.6947         calculate D2E/DX2 analytically  !
 ! A17   A(2,4,18)             108.8039         calculate D2E/DX2 analytically  !
 ! A18   A(2,4,19)             109.4878         calculate D2E/DX2 analytically  !
 ! A19   A(5,4,18)             108.4052         calculate D2E/DX2 analytically  !
 ! A20   A(5,4,19)             107.9928         calculate D2E/DX2 analytically  !
 ! A21   A(18,4,19)            106.0245         calculate D2E/DX2 analytically  !
 ! A22   A(4,5,6)              113.2215         calculate D2E/DX2 analytically  !
 ! A23   A(4,5,20)             109.36           calculate D2E/DX2 analytically  !
 ! A24   A(4,5,21)             107.6973         calculate D2E/DX2 analytically  !
 ! A25   A(6,5,20)             111.2277         calculate D2E/DX2 analytically  !
 ! A26   A(6,5,21)             108.9175         calculate D2E/DX2 analytically  !
 ! A27   A(20,5,21)            106.1081         calculate D2E/DX2 analytically  !
 ! A28   A(5,6,7)              111.3428         calculate D2E/DX2 analytically  !
 ! A29   A(5,6,22)             111.3068         calculate D2E/DX2 analytically  !
 ! A30   A(5,6,23)             106.7575         calculate D2E/DX2 analytically  !
 ! A31   A(7,6,22)             110.2483         calculate D2E/DX2 analytically  !
 ! A32   A(7,6,23)             110.639          calculate D2E/DX2 analytically  !
 ! A33   A(22,6,23)            106.3797         calculate D2E/DX2 analytically  !
 ! A34   A(6,7,8)              110.7003         calculate D2E/DX2 analytically  !
 ! A35   A(6,7,10)             110.6011         calculate D2E/DX2 analytically  !
 ! A36   A(8,7,10)             110.585          calculate D2E/DX2 analytically  !
 ! A37   A(7,8,9)              111.9883         calculate D2E/DX2 analytically  !
 ! A38   A(7,8,24)             111.1555         calculate D2E/DX2 analytically  !
 ! A39   A(7,8,25)             110.6724         calculate D2E/DX2 analytically  !
 ! A40   A(9,8,24)             110.2988         calculate D2E/DX2 analytically  !
 ! A41   A(9,8,25)             106.0933         calculate D2E/DX2 analytically  !
 ! A42   A(24,8,25)            106.3662         calculate D2E/DX2 analytically  !
 ! A43   A(8,9,26)             109.8039         calculate D2E/DX2 analytically  !
 ! A44   A(8,9,27)             112.467          calculate D2E/DX2 analytically  !
 ! A45   A(8,9,28)             110.9616         calculate D2E/DX2 analytically  !
 ! A46   A(26,9,27)            107.3873         calculate D2E/DX2 analytically  !
 ! A47   A(26,9,28)            107.7241         calculate D2E/DX2 analytically  !
 ! A48   A(27,9,28)            108.3193         calculate D2E/DX2 analytically  !
 ! A49   A(7,10,11)            112.001          calculate D2E/DX2 analytically  !
 ! A50   A(7,10,29)            111.1626         calculate D2E/DX2 analytically  !
 ! A51   A(7,10,30)            110.6603         calculate D2E/DX2 analytically  !
 ! A52   A(11,10,29)           110.2891         calculate D2E/DX2 analytically  !
 ! A53   A(11,10,30)           106.1661         calculate D2E/DX2 analytically  !
 ! A54   A(29,10,30)           106.2935         calculate D2E/DX2 analytically  !
 ! A55   A(10,11,31)           110.9696         calculate D2E/DX2 analytically  !
 ! A56   A(10,11,32)           109.8104         calculate D2E/DX2 analytically  !
 ! A57   A(10,11,33)           112.431          calculate D2E/DX2 analytically  !
 ! A58   A(31,11,32)           107.7239         calculate D2E/DX2 analytically  !
 ! A59   A(31,11,33)           108.3376         calculate D2E/DX2 analytically  !
 ! A60   A(32,11,33)           107.3919         calculate D2E/DX2 analytically  !
 ! D1    D(12,1,2,3)           -62.3854         calculate D2E/DX2 analytically  !
 ! D2    D(12,1,2,4)            60.7793         calculate D2E/DX2 analytically  !
 ! D3    D(12,1,2,15)         -179.4803         calculate D2E/DX2 analytically  !
 ! D4    D(13,1,2,3)           177.4599         calculate D2E/DX2 analytically  !
 ! D5    D(13,1,2,4)           -59.3754         calculate D2E/DX2 analytically  !
 ! D6    D(13,1,2,15)           60.365          calculate D2E/DX2 analytically  !
 ! D7    D(14,1,2,3)            58.1519         calculate D2E/DX2 analytically  !
 ! D8    D(14,1,2,4)          -178.6835         calculate D2E/DX2 analytically  !
 ! D9    D(14,1,2,15)          -58.9431         calculate D2E/DX2 analytically  !
 ! D10   D(1,2,3,16)          -177.9779         calculate D2E/DX2 analytically  !
 ! D11   D(1,2,3,17)            65.5383         calculate D2E/DX2 analytically  !
 ! D12   D(4,2,3,16)            59.9659         calculate D2E/DX2 analytically  !
 ! D13   D(4,2,3,17)           -56.5179         calculate D2E/DX2 analytically  !
 ! D14   D(15,2,3,16)          -61.3661         calculate D2E/DX2 analytically  !
 ! D15   D(15,2,3,17)         -177.8499         calculate D2E/DX2 analytically  !
 ! D16   D(1,2,4,5)            179.4816         calculate D2E/DX2 analytically  !
 ! D17   D(1,2,4,18)            57.2074         calculate D2E/DX2 analytically  !
 ! D18   D(1,2,4,19)           -58.2493         calculate D2E/DX2 analytically  !
 ! D19   D(3,2,4,5)            -59.5061         calculate D2E/DX2 analytically  !
 ! D20   D(3,2,4,18)           178.2196         calculate D2E/DX2 analytically  !
 ! D21   D(3,2,4,19)            62.7629         calculate D2E/DX2 analytically  !
 ! D22   D(15,2,4,5)            61.0338         calculate D2E/DX2 analytically  !
 ! D23   D(15,2,4,18)          -61.2404         calculate D2E/DX2 analytically  !
 ! D24   D(15,2,4,19)         -176.6971         calculate D2E/DX2 analytically  !
 ! D25   D(2,4,5,6)            -59.4979         calculate D2E/DX2 analytically  !
 ! D26   D(2,4,5,20)            65.1381         calculate D2E/DX2 analytically  !
 ! D27   D(2,4,5,21)          -179.9763         calculate D2E/DX2 analytically  !
 ! D28   D(18,4,5,6)            62.9879         calculate D2E/DX2 analytically  !
 ! D29   D(18,4,5,20)         -172.376          calculate D2E/DX2 analytically  !
 ! D30   D(18,4,5,21)          -57.4905         calculate D2E/DX2 analytically  !
 ! D31   D(19,4,5,6)           177.4419         calculate D2E/DX2 analytically  !
 ! D32   D(19,4,5,20)          -57.922          calculate D2E/DX2 analytically  !
 ! D33   D(19,4,5,21)           56.9635         calculate D2E/DX2 analytically  !
 ! D34   D(4,5,6,7)           -172.8926         calculate D2E/DX2 analytically  !
 ! D35   D(4,5,6,22)            63.6559         calculate D2E/DX2 analytically  !
 ! D36   D(4,5,6,23)           -52.0373         calculate D2E/DX2 analytically  !
 ! D37   D(20,5,6,7)            63.4905         calculate D2E/DX2 analytically  !
 ! D38   D(20,5,6,22)          -59.961          calculate D2E/DX2 analytically  !
 ! D39   D(20,5,6,23)         -175.6542         calculate D2E/DX2 analytically  !
 ! D40   D(21,5,6,7)           -53.1098         calculate D2E/DX2 analytically  !
 ! D41   D(21,5,6,22)         -176.5613         calculate D2E/DX2 analytically  !
 ! D42   D(21,5,6,23)           67.7455         calculate D2E/DX2 analytically  !
 ! D43   D(5,6,7,8)            157.026          calculate D2E/DX2 analytically  !
 ! D44   D(5,6,7,10)           -80.0462         calculate D2E/DX2 analytically  !
 ! D45   D(22,6,7,8)           -78.9214         calculate D2E/DX2 analytically  !
 ! D46   D(22,6,7,10)           44.0063         calculate D2E/DX2 analytically  !
 ! D47   D(23,6,7,8)            38.4742         calculate D2E/DX2 analytically  !
 ! D48   D(23,6,7,10)          161.4019         calculate D2E/DX2 analytically  !
 ! D49   D(6,7,8,9)            -77.9438         calculate D2E/DX2 analytically  !
 ! D50   D(6,7,8,24)            45.9341         calculate D2E/DX2 analytically  !
 ! D51   D(6,7,8,25)           163.9            calculate D2E/DX2 analytically  !
 ! D52   D(10,7,8,9)           159.1192         calculate D2E/DX2 analytically  !
 ! D53   D(10,7,8,24)          -77.003          calculate D2E/DX2 analytically  !
 ! D54   D(10,7,8,25)           40.9629         calculate D2E/DX2 analytically  !
 ! D55   D(6,7,10,11)          158.6758         calculate D2E/DX2 analytically  !
 ! D56   D(6,7,10,29)          -77.4442         calculate D2E/DX2 analytically  !
 ! D57   D(6,7,10,30)           40.428          calculate D2E/DX2 analytically  !
 ! D58   D(8,7,10,11)          -78.3294         calculate D2E/DX2 analytically  !
 ! D59   D(8,7,10,29)           45.5505         calculate D2E/DX2 analytically  !
 ! D60   D(8,7,10,30)          163.4227         calculate D2E/DX2 analytically  !
 ! D61   D(7,8,9,26)          -174.4038         calculate D2E/DX2 analytically  !
 ! D62   D(7,8,9,27)            66.0835         calculate D2E/DX2 analytically  !
 ! D63   D(7,8,9,28)           -55.4271         calculate D2E/DX2 analytically  !
 ! D64   D(24,8,9,26)           61.2398         calculate D2E/DX2 analytically  !
 ! D65   D(24,8,9,27)          -58.2729         calculate D2E/DX2 analytically  !
 ! D66   D(24,8,9,28)         -179.7835         calculate D2E/DX2 analytically  !
 ! D67   D(25,8,9,26)          -53.5572         calculate D2E/DX2 analytically  !
 ! D68   D(25,8,9,27)         -173.0698         calculate D2E/DX2 analytically  !
 ! D69   D(25,8,9,28)           65.4195         calculate D2E/DX2 analytically  !
 ! D70   D(7,10,11,31)         -55.3767         calculate D2E/DX2 analytically  !
 ! D71   D(7,10,11,32)        -174.3623         calculate D2E/DX2 analytically  !
 ! D72   D(7,10,11,33)          66.1381         calculate D2E/DX2 analytically  !
 ! D73   D(29,10,11,31)       -179.7443         calculate D2E/DX2 analytically  !
 ! D74   D(29,10,11,32)         61.27           calculate D2E/DX2 analytically  !
 ! D75   D(29,10,11,33)        -58.2296         calculate D2E/DX2 analytically  !
 ! D76   D(30,10,11,31)         65.5094         calculate D2E/DX2 analytically  !
 ! D77   D(30,10,11,32)        -53.4763         calculate D2E/DX2 analytically  !
 ! D78   D(30,10,11,33)       -172.9759         calculate D2E/DX2 analytically  !
 --------------------------------------------------------------------------------
 Trust Radius=3.00D-01 FncErr=1.00D-07 GrdErr=1.00D-06 EigMax=2.50D+02 EigMin=1.00D-04
 Number of steps in this run=    180 maximum allowed number of steps=    198.
 GradGradGradGradGradGradGradGradGradGradGradGradGradGradGradGradGradGrad

                          Input orientation:                          
 ---------------------------------------------------------------------
 Center     Atomic      Atomic             Coordinates (Angstroms)
 Number     Number       Type             X           Y           Z
 ---------------------------------------------------------------------
      1          6           0        3.834097    1.941912   -0.380285
      2          6           0        2.650958    0.981162   -0.501760
      3          7           0        3.131517   -0.275850   -1.073128
      4          6           0        1.985821    0.777109    0.870859
      5          6           0        0.769830   -0.160826    0.888725
      6          6           0       -0.372178    0.310625   -0.024035
      7          7           0       -1.579915   -0.523191    0.151088
      8          6           0       -2.788273    0.213676   -0.269267
      9          6           0       -3.239326    1.220580    0.785296
     10          6           0       -1.453237   -1.786090   -0.603434
     11          6           0       -2.383086   -2.869542   -0.064818
     12          1           0        4.601443    1.554477    0.299558
     13          1           0        3.504463    2.913537    0.003434
     14          1           0        4.302295    2.113737   -1.356078
     15          1           0        1.932756    1.425501   -1.198998
     16          1           0        2.357187   -0.925644   -1.197218
     17          1           0        3.776127   -0.726173   -0.423686
     18          1           0        1.675351    1.754710    1.262508
     19          1           0        2.725927    0.386660    1.582228
     20          1           0        1.090248   -1.175390    0.630876
     21          1           0        0.402034   -0.210885    1.922162
     22          1           0       -0.064412    0.316579   -1.076679
     23          1           0       -0.580255    1.352575    0.242905
     24          1           0       -2.631007    0.715720   -1.232342
     25          1           0       -3.629510   -0.472984   -0.412892
     26          1           0       -4.189485    1.673759    0.483212
     27          1           0       -2.519509    2.032029    0.923146
     28          1           0       -3.395907    0.731267    1.752597
     29          1           0       -1.633649   -1.627632   -1.674275
     30          1           0       -0.437068   -2.186582   -0.518911
     31          1           0       -2.215411   -3.033655    1.005025
     32          1           0       -2.189356   -3.815494   -0.581622
     33          1           0       -3.438470   -2.625677   -0.214191
 ---------------------------------------------------------------------
                    Distance matrix (angstroms):
                    1          2          3          4          5
     1  C    0.000000
     2  C    1.528926   0.000000
     3  N    2.427368   1.462011   0.000000
     4  C    2.517589   1.538872   2.490066   0.000000
     5  C    3.927038   2.603118   3.072403   1.535798   0.000000
     6  C    4.525567   3.133239   3.704110   2.564878   1.536092
     7  N    5.972488   4.537573   4.874164   3.863071   2.489320
     8  C    6.845065   5.498029   5.994143   4.940579   3.760491
     9  C    7.205013   6.034010   6.802991   5.244630   4.241734
    10  C    6.473307   4.951004   4.849888   4.535488   3.132100
    11  C    7.867844   6.352986   6.176955   5.767227   4.264653
    12  H    1.095953   2.185222   2.719383   2.787860   4.239179
    13  H    1.095424   2.172042   3.386778   2.760982   4.208760
    14  H    1.095858   2.177040   2.675987   3.480212   4.763516
    15  H    2.133558   1.095168   2.085059   2.169686   2.868347
    16  H    3.327390   2.050822   1.018439   2.704483   2.730533
    17  H    2.669067   2.046238   1.019846   2.672246   3.328642
    18  H    2.719191   2.159357   3.420349   1.097945   2.151502
    19  H    2.738304   2.168422   2.766647   1.098295   2.146393
    20  H    4.274193   2.892991   2.807059   2.161457   1.094757
    21  H    4.659920   3.514830   4.052907   2.142370   1.098077
    22  H    4.280776   2.854021   3.250377   2.865039   2.187850
    23  H    4.496908   3.336646   4.261568   2.703744   2.128425
    24  H    6.635294   5.338854   5.849380   5.073689   4.102798
    25  H    7.844630   6.447225   6.796047   5.894293   4.598461
    26  H    8.074367   6.945612   7.734355   6.252092   5.303296
    27  H    6.486552   5.465199   6.422266   4.677131   3.953422
    28  H    7.634645   6.458262   7.183751   5.453674   4.346893
    29  H    6.656748   5.151548   4.989539   5.035975   3.807518
    30  H    5.941930   4.423889   4.085689   4.072507   2.746221
    31  H    7.954364   6.486193   6.365049   5.673647   4.144676
    32  H    8.334881   6.814904   6.409551   6.374465   4.926997
    33  H    8.589568   7.083297   7.030234   6.494552   5.000170
                    6          7          8          9         10
     6  C    0.000000
     7  N    1.478021   0.000000
     8  C    2.430443   1.476415   0.000000
     9  C    3.115055   2.489297   1.526239   0.000000
    10  C    2.429116   1.476572   2.427561   3.762811   0.000000
    11  C    3.762828   2.489391   3.116442   4.264380   1.525973
    12  H    5.137002   6.522878   7.531880   7.862893   6.973804
    13  H    4.669502   6.138713   6.852893   6.996864   6.858103
    14  H    5.184231   6.620070   7.420752   7.890454   6.992945
    15  H    2.817127   4.237804   4.961959   5.543450   4.704675
    16  H    3.217788   4.180989   5.351160   6.313288   3.951238
    17  H    4.294543   5.390616   6.633137   7.380248   5.338725
    18  H    2.816549   4.125632   4.964379   4.966596   5.080065
    19  H    3.490575   4.627771   5.819309   6.075752   5.192627
    20  H    2.185369   2.790220   4.216952   4.950729   2.892368
    21  H    2.158485   2.676258   3.893671   4.074439   3.507412
    22  H    1.096730   2.123529   2.842873   3.790020   2.563984
    23  H    1.095542   2.127498   2.536682   2.717033   3.365948
    24  H    2.593534   2.133910   1.097403   2.166979   2.835792
    25  H    3.372753   2.126367   1.095358   2.110938   2.548865
    26  H    4.085006   3.427354   2.159042   1.095185   4.542952
    27  H    2.910569   2.829851   2.191002   1.093430   4.247989
    28  H    3.532181   2.726963   2.173718   1.095269   3.957516
    29  H    2.841028   2.134157   2.587976   4.091454   1.097432
    30  H    2.546597   2.126469   3.369233   4.600256   1.095509
    31  H    3.954830   2.726811   3.535131   4.381232   2.173585
    32  H    4.542895   3.427469   4.085398   5.322869   2.158895
    33  H    4.249726   2.829859   2.913368   3.978985   2.190334
                   11         12         13         14         15
    11  C    0.000000
    12  H    8.275770   0.000000
    13  H    8.252993   1.771468   0.000000
    14  H    8.437698   1.772961   1.767623   0.000000
    15  H    6.193565   3.063364   2.475956   2.472460   0.000000
    16  H    5.247024   3.664427   4.182956   3.611996   2.389149
    17  H    6.531364   2.530927   3.674741   3.035011   2.937486
    18  H    6.294157   3.086970   2.504755   3.726490   2.496727
    19  H    6.278346   2.554721   3.079580   3.755179   3.073032
    20  H    3.926600   4.459870   4.789723   5.008352   3.289817
    21  H    4.332833   4.835740   4.802978   5.600246   3.842201
    22  H    4.068351   5.019624   4.543975   4.730325   2.287651
    23  H    4.601214   5.185939   4.379368   5.193785   2.898210
    24  H    3.778714   7.440334   6.633366   7.073927   4.618748
    25  H    2.723641   8.506866   7.907934   8.396086   5.929672
    26  H    4.919858   8.793656   7.807950   8.699822   6.353998
    27  H    5.002008   7.164138   6.157204   7.192951   4.969308
    28  H    4.158682   8.169860   7.445602   8.416496   6.130948
    29  H    2.166644   7.273115   7.059541   7.023854   4.718766
    30  H    2.111781   6.328666   6.466817   6.454080   4.373297
    31  H    1.095269   8.247311   8.311994   8.634289   6.476811
    32  H    1.095190   8.702185   8.834123   8.825933   6.696342
    33  H    1.093443   9.076223   8.884512   9.147972   6.799408
                   16         17         18         19         20
    16  H    0.000000
    17  H    1.628352   0.000000
    18  H    3.701277   3.662142   0.000000
    19  H    3.095712   2.522896   1.754278   0.000000
    20  H    2.238177   2.920247   3.053979   2.453674   0.000000
    21  H    3.750205   4.141621   2.433114   2.423447   1.752521
    22  H    2.724297   4.032799   3.250660   3.854956   2.544594
    23  H    3.986578   4.872740   2.507799   3.695621   3.054784
    24  H    5.251419   6.616974   5.084141   6.060266   4.571172
    25  H    6.054801   7.409971   5.992590   6.716477   4.884561
    26  H    7.241524   8.368579   5.916938   7.119507   6.001253
    27  H    6.084895   7.004046   4.217691   5.536806   4.837696
    28  H    6.674194   7.635340   5.196661   6.133892   5.001919
    29  H    4.080091   5.625146   5.569058   5.802420   3.596923
    30  H    3.139734   4.460143   4.813476   4.587036   2.162686
    31  H    5.495657   6.577554   6.175173   6.037263   3.810580
    32  H    5.422292   6.719809   7.025948   6.819116   4.381335
    33  H    6.119321   7.463404   6.893445   7.092325   4.829777
                   21         22         23         24         25
    21  H    0.000000
    22  H    3.080396   0.000000
    23  H    2.495837   1.755188   0.000000
    24  H    4.473123   2.602106   2.605288   0.000000
    25  H    4.666317   3.711327   3.613958   1.755426   0.000000
    26  H    5.167640   4.614264   3.631453   2.507951   2.392715
    27  H    3.816295   3.601329   2.164507   2.528088   3.048310
    28  H    3.916728   4.390402   3.254703   3.081424   2.488802
    29  H    4.368699   2.568965   3.696871   2.584826   2.628262
    30  H    3.250586   2.591485   3.623051   3.707521   3.624823
    31  H    3.957296   4.492701   4.742739   4.385926   3.250723
    32  H    5.096807   4.672740   5.475216   4.598956   3.643471
    33  H    5.014448   4.559059   4.919839   3.585186   2.170268
                   26         27         28         29         30
    26  H    0.000000
    27  H    1.763724   0.000000
    28  H    1.769009   1.774273   0.000000
    29  H    4.699600   4.574326   4.518120   0.000000
    30  H    5.476050   4.920647   4.735855   1.754735   0.000000
    31  H    5.131180   5.075464   4.015853   3.081233   2.490466
    32  H    5.938543   6.047054   5.251417   2.507876   2.393282
    33  H    4.419903   4.881828   3.890904   2.526918   3.048618
                   31         32         33
    31  H    0.000000
    32  H    1.769011   0.000000
    33  H    1.774487   1.763790   0.000000
 Stoichiometry    C9H22N2
 Framework group  C1[X(C9H22N2)]
 Deg. of freedom    93
 Full point group                 C1      NOp   1
 Largest Abelian subgroup         C1      NOp   1
 Largest concise Abelian subgroup C1      NOp   1
                         Standard orientation:                         
 ---------------------------------------------------------------------
 Center     Atomic      Atomic             Coordinates (Angstroms)
 Number     Number       Type             X           Y           Z
 ---------------------------------------------------------------------
      1          6           0        4.213869    0.672199   -0.309100
      2          6           0        2.805376    0.079294   -0.356280
      3          7           0        2.916989   -1.365275   -0.551830
      4          6           0        2.034154    0.432515    0.927690
      5          6           0        0.593465   -0.093866    1.005223
      6          6           0       -0.301231    0.420171   -0.132699
      7          7           0       -1.711541    0.028811    0.073228
      8          6           0       -2.617112    0.935085   -0.660537
      9          6           0       -2.802770    2.266156    0.062780
     10          6           0       -1.928417   -1.371042   -0.343473
     11          6           0       -3.169461   -1.975402    0.307029
     12          1           0        4.790090    0.278805    0.536076
     13          1           0        4.170647    1.762123   -0.208341
     14          1           0        4.765749    0.447135   -1.228708
     15          1           0        2.294021    0.507186   -1.225083
     16          1           0        1.991345   -1.784375   -0.620791
     17          1           0        3.359143   -1.790801    0.262734
     18          1           0        2.010533    1.524731    1.037191
     19          1           0        2.581774    0.052091    1.800411
     20          1           0        0.607981   -1.188133    1.034576
     21          1           0        0.170562    0.231071    1.965088
     22          1           0        0.052330    0.066044   -1.108611
     23          1           0       -0.201060    1.511054   -0.145063
     24          1           0       -2.262733    1.104792   -1.685188
     25          1           0       -3.616451    0.495307   -0.748439
     26          1           0       -3.554370    2.869442   -0.457385
     27          1           0       -1.881207    2.853442    0.100278
     28          1           0       -3.152906    2.109137    1.088628
     29          1           0       -1.992808   -1.453785   -1.435885
     30          1           0       -1.085990   -2.000591   -0.036678
     31          1           0       -3.118841   -1.894625    1.398141
     32          1           0       -3.240494   -3.038678    0.054362
     33          1           0       -4.092684   -1.496777   -0.030897
 ---------------------------------------------------------------------
 Rotational constants (GHZ):           1.6937323           0.4562548           0.3934454
 Standard basis: 6-31G(d,p) (6D, 7F)
 There are   275 symmetry adapted cartesian basis functions of A   symmetry.
 There are   275 symmetry adapted basis functions of A   symmetry.
   275 basis functions,   462 primitive gaussians,   275 cartesian basis functions
    45 alpha electrons       45 beta electrons
       nuclear repulsion energy       669.4484281529 Hartrees.
 NAtoms=   33 NActive=   33 NUniq=   33 SFac= 1.00D+00 NAtFMM=   60 NAOKFM=F Big=F
 Integral buffers will be    131072 words long.
 Raffenetti 2 integral format.
 Two-electron integral symmetry is turned on.
 Force inversion solution in PCM.
 ------------------------------------------------------------------------------
 Polarizable Continuum Model (PCM)
 =================================
 Model                : PCM.
 Atomic radii         : UFF (Universal Force Field).
 Polarization charges : Total charges.
 Charge compensation  : None.
 Solution method      : Matrix inversion.
 Cavity type          : Scaled VdW (van der Waals Surface) (Alpha=1.100).
 Cavity algorithm     : GePol (No added spheres)
                        Default sphere list used, NSphG=   33.
                        Lebedev-Laikov grids with approx.  5.0 points / Ang**2.
                        Smoothing algorithm: York/Karplus (Gamma=1.0000).
                        Polarization charges: spherical gaussians, with
                                              point-specific exponents (IZeta= 3).
                        Self-potential: point-specific (ISelfS= 7).
                        Self-field    : sphere-specific E.n sum rule (ISelfD= 2).
 1st derivatives      : Analytical E(r).r(x)/FMM algorithm (CHGder, D1EAlg=3).
                        Cavity 1st derivative terms included.
 2nd derivatives      : Analytical E(r).r(xy)/FMM algorithm (CHGder, D2EAlg=3).
                        Cavity 2nd derivative terms included.
 Solvent              : Water, Eps=  78.355300 Eps(inf)=   1.777849
 ------------------------------------------------------------------------------
 One-electron integrals computed using PRISM.
 NBasis=   275 RedAO= T EigKep=  2.94D-03  NBF=   275
 NBsUse=   275 1.00D-06 EigRej= -1.00D+00 NBFU=   275
 ExpMin= 1.61D-01 ExpMax= 4.17D+03 ExpMxC= 6.27D+02 IAcc=3 IRadAn=         5 AccDes= 0.00D+00
 Harris functional with IExCor=  402 and IRadAn=       5 diagonalized for initial guess.
 HarFok:  IExCor=  402 AccDes= 0.00D+00 IRadAn=         5 IDoV= 1 UseB2=F ITyADJ=14
 ICtDFT=  3500011 ScaDFX=  1.000000  1.000000  1.000000  1.000000
 FoFCou: FMM=F IPFlag=           0 FMFlag=      100000 FMFlg1=           0
         NFxFlg=           0 DoJE=T BraDBF=F KetDBF=T FulRan=T
         wScrn=  0.000000 ICntrl=       500 IOpCl=  0 I1Cent=   200000004 NGrid=           0
         NMat0=    1 NMatS0=      1 NMatT0=    0 NMatD0=    1 NMtDS0=    0 NMtDT0=    0
 Petite list used in FoFCou.
 Requested convergence on RMS density matrix=1.00D-08 within  32 cycles.
 Requested convergence on MAX density matrix=1.00D-06.
 Requested convergence on             energy=1.00D-06.
 No special actions if energy rises.
 Inv3:  Mode=1 IEnd=    13932075.
 Iteration    1 A*A^-1 deviation from unit magnitude is 7.99D-15 for   1510.
 Iteration    1 A*A^-1 deviation from orthogonality  is 4.33D-15 for   2082    792.
 Iteration    1 A^-1*A deviation from unit magnitude is 7.77D-15 for   1510.
 Iteration    1 A^-1*A deviation from orthogonality  is 6.32D-15 for   1948   1898.
 Error on total polarization charges =  0.01147
 SCF Done:  E(RB3LYP) =  -465.734886162     A.U. after   11 cycles
            NFock= 11  Conv=0.37D-08     -V/T= 2.0098
 QCSCF skips out because SCF is already converged.
 DoSCS=F DFT=T ScalE2(SS,OS)=  1.000000  1.000000
 Range of M.O.s used for correlation:     1   275
 NBasis=   275 NAE=    45 NBE=    45 NFC=     0 NFV=     0
 NROrb=    275 NOA=    45 NOB=    45 NVA=   230 NVB=   230
 Symmetrizing basis deriv contribution to polar:
 IMax=3 JMax=2 DiffMx= 0.00D+00
 G2DrvN: will do    34 centers at a time, making    1 passes.
 Calling FoFCou, ICntrl=  3107 FMM=F I1Cent=   0 AccDes= 0.00D+00.
 NEqPCM:  Using equilibrium solvation (IEInf=0, Eps=  78.3553, EpsInf=   1.7778)
 G2PCM: DoFxE=T DoFxN=T DoGrad=T DoDP/DQ/DG/TGxP=FFFF NFrqRd=   0 IEInf=0 SqF1=F DoCFld=F IF1Alg=4.
 End of G2Drv F.D. properties file   721 does not exist.
 End of G2Drv F.D. properties file   722 does not exist.
 End of G2Drv F.D. properties file   788 does not exist.
          IDoAtm=111111111111111111111111111111111
 NEqPCM:  Using equilibrium solvation (IEInf=0, Eps=  78.3553, EpsInf=   1.7778)
          Differentiating once with respect to nuclear coordinates.
 Keep R1 ints in memory in canonical form, NReq=731858691.
          There are   102 degrees of freedom in the 1st order CPHF.  IDoFFX=6 NUNeed=     0.
     96 vectors produced by pass  0 Test12= 1.04D-14 1.00D-09 XBig12= 8.00D-02 6.48D-02.
 AX will form    96 AO Fock derivatives at one time.
     96 vectors produced by pass  1 Test12= 1.04D-14 1.00D-09 XBig12= 5.75D-03 1.33D-02.
     96 vectors produced by pass  2 Test12= 1.04D-14 1.00D-09 XBig12= 5.26D-05 1.02D-03.
     96 vectors produced by pass  3 Test12= 1.04D-14 1.00D-09 XBig12= 1.31D-07 3.56D-05.
     96 vectors produced by pass  4 Test12= 1.04D-14 1.00D-09 XBig12= 1.47D-10 1.15D-06.
     36 vectors produced by pass  5 Test12= 1.04D-14 1.00D-09 XBig12= 8.32D-14 2.87D-08.
 InvSVY:  IOpt=1 It=  1 EMax= 7.77D-16
 Solved reduced A of dimension   516 with   102 vectors.
 End of Minotr F.D. properties file   721 does not exist.
 End of Minotr F.D. properties file   722 does not exist.
 End of Minotr F.D. properties file   788 does not exist.

 **********************************************************************

            Population analysis using the SCF density.

 **********************************************************************

 Orbital symmetries:
       Occupied  (A) (A) (A) (A) (A) (A) (A) (A) (A) (A) (A) (A)
                 (A) (A) (A) (A) (A) (A) (A) (A) (A) (A) (A) (A)
                 (A) (A) (A) (A) (A) (A) (A) (A) (A) (A) (A) (A)
                 (A) (A) (A) (A) (A) (A) (A) (A) (A)
       Virtual   (A) (A) (A) (A) (A) (A) (A) (A) (A) (A) (A) (A)
                 (A) (A) (A) (A) (A) (A) (A) (A) (A) (A) (A) (A)
                 (A) (A) (A) (A) (A) (A) (A) (A) (A) (A) (A) (A)
                 (A) (A) (A) (A) (A) (A) (A) (A) (A) (A) (A) (A)
                 (A) (A) (A) (A) (A) (A) (A) (A) (A) (A) (A) (A)
                 (A) (A) (A) (A) (A) (A) (A) (A) (A) (A) (A) (A)
                 (A) (A) (A) (A) (A) (A) (A) (A) (A) (A) (A) (A)
                 (A) (A) (A) (A) (A) (A) (A) (A) (A) (A) (A) (A)
                 (A) (A) (A) (A) (A) (A) (A) (A) (A) (A) (A) (A)
                 (A) (A) (A) (A) (A) (A) (A) (A) (A) (A) (A) (A)
                 (A) (A) (A) (A) (A) (A) (A) (A) (A) (A) (A) (A)
                 (A) (A) (A) (A) (A) (A) (A) (A) (A) (A) (A) (A)
                 (A) (A) (A) (A) (A) (A) (A) (A) (A) (A) (A) (A)
                 (A) (A) (A) (A) (A) (A) (A) (A) (A) (A) (A) (A)
                 (A) (A) (A) (A) (A) (A) (A) (A) (A) (A) (A) (A)
                 (A) (A) (A) (A) (A) (A) (A) (A) (A) (A) (A) (A)
                 (A) (A) (A) (A) (A) (A) (A) (A) (A) (A) (A) (A)
                 (A) (A) (A) (A) (A) (A) (A) (A) (A) (A) (A) (A)
                 (A) (A) (A) (A) (A) (A) (A) (A) (A) (A) (A) (A)
                 (A) (A)
 The electronic state is 1-A.
 Alpha  occ. eigenvalues --  -14.31786 -14.30561 -10.20591 -10.20052 -10.20033
 Alpha  occ. eigenvalues --  -10.19909 -10.17393 -10.17153 -10.16966 -10.16963
 Alpha  occ. eigenvalues --  -10.16842  -0.91007  -0.88155  -0.77617  -0.75466
 Alpha  occ. eigenvalues --   -0.73502  -0.71145  -0.65857  -0.61469  -0.60500
 Alpha  occ. eigenvalues --   -0.57058  -0.55385  -0.48842  -0.47286  -0.46952
 Alpha  occ. eigenvalues --   -0.45652  -0.44089  -0.43422  -0.42617  -0.41552
 Alpha  occ. eigenvalues --   -0.39613  -0.38407  -0.38028  -0.36670  -0.36065
 Alpha  occ. eigenvalues --   -0.35891  -0.34852  -0.34778  -0.33879  -0.33067
 Alpha  occ. eigenvalues --   -0.32187  -0.31545  -0.31019  -0.23082  -0.21121
 Alpha virt. eigenvalues --    0.07167   0.09674   0.10078   0.11087   0.11860
 Alpha virt. eigenvalues --    0.12969   0.13842   0.14212   0.15342   0.15675
 Alpha virt. eigenvalues --    0.16857   0.17097   0.17602   0.17758   0.18440
 Alpha virt. eigenvalues --    0.18652   0.19321   0.20076   0.21052   0.21411
 Alpha virt. eigenvalues --    0.21924   0.22555   0.23500   0.24748   0.25680
 Alpha virt. eigenvalues --    0.25946   0.26521   0.27395   0.27719   0.28597
 Alpha virt. eigenvalues --    0.28950   0.30363   0.49939   0.50605   0.51162
 Alpha virt. eigenvalues --    0.51559   0.53208   0.53852   0.55396   0.55998
 Alpha virt. eigenvalues --    0.56914   0.57312   0.58471   0.61098   0.61804
 Alpha virt. eigenvalues --    0.63535   0.64525   0.66080   0.67048   0.67643
 Alpha virt. eigenvalues --    0.69797   0.71413   0.72378   0.73239   0.75821
 Alpha virt. eigenvalues --    0.76701   0.79292   0.79957   0.80593   0.82434
 Alpha virt. eigenvalues --    0.83343   0.85027   0.85284   0.86337   0.87242
 Alpha virt. eigenvalues --    0.87988   0.88459   0.88792   0.89554   0.90307
 Alpha virt. eigenvalues --    0.91171   0.91448   0.92796   0.93385   0.94059
 Alpha virt. eigenvalues --    0.94750   0.95408   0.96003   0.96828   0.98885
 Alpha virt. eigenvalues --    0.99346   0.99589   1.01322   1.02389   1.05719
 Alpha virt. eigenvalues --    1.06242   1.10112   1.17023   1.19639   1.24536
 Alpha virt. eigenvalues --    1.25638   1.31129   1.31472   1.34160   1.36693
 Alpha virt. eigenvalues --    1.38101   1.39965   1.46068   1.50401   1.50849
 Alpha virt. eigenvalues --    1.53916   1.54799   1.58189   1.60947   1.64186
 Alpha virt. eigenvalues --    1.64787   1.66491   1.70035   1.72297   1.74827
 Alpha virt. eigenvalues --    1.75866   1.76852   1.77578   1.81056   1.83821
 Alpha virt. eigenvalues --    1.86052   1.86818   1.87083   1.89259   1.90997
 Alpha virt. eigenvalues --    1.92213   1.95507   1.96046   1.96601   1.99471
 Alpha virt. eigenvalues --    2.00588   2.02126   2.03427   2.05284   2.05509
 Alpha virt. eigenvalues --    2.05746   2.06112   2.06874   2.08418   2.08663
 Alpha virt. eigenvalues --    2.10307   2.11245   2.12135   2.12469   2.12981
 Alpha virt. eigenvalues --    2.15844   2.16954   2.19765   2.21086   2.22564
 Alpha virt. eigenvalues --    2.25387   2.26375   2.27375   2.27603   2.28404
 Alpha virt. eigenvalues --    2.29575   2.31838   2.34044   2.34317   2.34792
 Alpha virt. eigenvalues --    2.35966   2.40086   2.41138   2.43476   2.43712
 Alpha virt. eigenvalues --    2.45859   2.49043   2.51243   2.52452   2.56001
 Alpha virt. eigenvalues --    2.57033   2.59395   2.60933   2.64130   2.66578
 Alpha virt. eigenvalues --    2.67233   2.68871   2.71585   2.72068   2.73020
 Alpha virt. eigenvalues --    2.74564   2.74943   2.76001   2.77619   2.80513
 Alpha virt. eigenvalues --    2.82499   2.82727   2.83477   2.84785   2.86631
 Alpha virt. eigenvalues --    2.88646   2.89063   2.89732   2.91064   2.91988
 Alpha virt. eigenvalues --    2.93171   2.93924   2.95331   2.97253   2.99312
 Alpha virt. eigenvalues --    3.00256   3.02640   3.19295   3.20408   3.20954
 Alpha virt. eigenvalues --    3.26457   3.29941   3.31532   3.32249   3.33149
 Alpha virt. eigenvalues --    3.33418   3.38132   3.39683   3.40903   3.43627
 Alpha virt. eigenvalues --    3.44128   3.47094   3.48255   3.50902   3.52310
 Alpha virt. eigenvalues --    3.54776   3.56741   3.57977   3.58832   4.00855
 Alpha virt. eigenvalues --    4.12201   4.34449   4.37942   4.39284   4.45617
 Alpha virt. eigenvalues --    4.57101   4.62421   4.64699   4.68102   4.75298
          Condensed to atoms (all electrons):
               1          2          3          4          5          6
     1  C    4.971582   0.376193  -0.063575  -0.054398   0.004553   0.000052
     2  C    0.376193   4.759569   0.324366   0.373516  -0.037629  -0.003822
     3  N   -0.063575   0.324366   6.801795  -0.076038  -0.005038  -0.001744
     4  C   -0.054398   0.373516  -0.076038   5.040167   0.339577  -0.039597
     5  C    0.004553  -0.037629  -0.005038   0.339577   4.985555   0.374550
     6  C    0.000052  -0.003822  -0.001744  -0.039597   0.374550   4.850325
     7  N   -0.000001   0.000114   0.000009   0.003558  -0.050814   0.274320
     8  C   -0.000000   0.000005  -0.000000  -0.000200   0.005028  -0.035518
     9  C    0.000000   0.000000  -0.000000   0.000001  -0.000046  -0.005404
    10  C   -0.000000  -0.000002  -0.000031   0.000093  -0.005668  -0.035228
    11  C    0.000000   0.000000   0.000000  -0.000004  -0.000019   0.005259
    12  H    0.381035  -0.030747  -0.005046  -0.007909   0.000008   0.000007
    13  H    0.374839  -0.030074   0.004401  -0.000589  -0.000001   0.000004
    14  H    0.370354  -0.027366   0.003461   0.005563  -0.000181   0.000003
    15  H   -0.041355   0.395455  -0.045841  -0.054079  -0.006638   0.003059
    16  H    0.007070  -0.039398   0.342931  -0.003619   0.002662   0.000208
    17  H   -0.006681  -0.039971   0.339163  -0.004390  -0.001022   0.000093
    18  H   -0.002794  -0.031993   0.006253   0.353179  -0.036617  -0.008193
    19  H   -0.006297  -0.034209  -0.004666   0.367498  -0.032834   0.004798
    20  H    0.000062  -0.008801   0.008740  -0.037644   0.372317  -0.040038
    21  H   -0.000130   0.004693   0.000226  -0.026332   0.369788  -0.039685
    22  H    0.000045   0.001958   0.000228  -0.000301  -0.047996   0.360860
    23  H   -0.000061  -0.001380   0.000118  -0.002463  -0.041213   0.384100
    24  H    0.000000  -0.000006  -0.000000   0.000037  -0.000080  -0.010841
    25  H   -0.000000   0.000000  -0.000000   0.000002  -0.000225   0.005320
    26  H    0.000000  -0.000000  -0.000000   0.000000  -0.000001  -0.000008
    27  H   -0.000000   0.000001  -0.000000   0.000002  -0.000318   0.000079
    28  H    0.000000  -0.000000   0.000000   0.000004  -0.000057  -0.000168
    29  H    0.000000  -0.000009  -0.000004   0.000036  -0.000035  -0.007401
    30  H   -0.000000   0.000020  -0.000056  -0.000255   0.000500  -0.002611
    31  H    0.000000  -0.000000  -0.000000   0.000002   0.000089  -0.000173
    32  H    0.000000  -0.000000  -0.000000   0.000000   0.000001  -0.000210
    33  H   -0.000000   0.000000  -0.000000   0.000000  -0.000012   0.000023
               7          8          9         10         11         12
     1  C   -0.000001  -0.000000   0.000000  -0.000000   0.000000   0.381035
     2  C    0.000114   0.000005   0.000000  -0.000002   0.000000  -0.030747
     3  N    0.000009  -0.000000  -0.000000  -0.000031   0.000000  -0.005046
     4  C    0.003558  -0.000200   0.000001   0.000093  -0.000004  -0.007909
     5  C   -0.050814   0.005028  -0.000046  -0.005668  -0.000019   0.000008
     6  C    0.274320  -0.035518  -0.005404  -0.035228   0.005259   0.000007
     7  N    6.977364   0.288315  -0.058891   0.291070  -0.058566   0.000000
     8  C    0.288315   4.804192   0.376186  -0.036228  -0.005368   0.000000
     9  C   -0.058891   0.376186   4.964088   0.005442  -0.000011  -0.000000
    10  C    0.291070  -0.036228   0.005442   4.802172   0.375450  -0.000000
    11  C   -0.058566  -0.005368  -0.000011   0.375450   4.963915   0.000000
    12  H    0.000000   0.000000  -0.000000  -0.000000   0.000000   0.608623
    13  H   -0.000000  -0.000000  -0.000000   0.000000  -0.000000  -0.030712
    14  H   -0.000000   0.000000  -0.000000   0.000000  -0.000000  -0.032752
    15  H   -0.000045   0.000006  -0.000000  -0.000010  -0.000000   0.005528
    16  H   -0.000076  -0.000000  -0.000000   0.000078  -0.000005  -0.000063
    17  H    0.000001   0.000000  -0.000000  -0.000001  -0.000000   0.005123
    18  H    0.000063  -0.000010  -0.000007  -0.000007   0.000000  -0.000013
    19  H   -0.000105   0.000003  -0.000000   0.000000  -0.000000   0.005331
    20  H   -0.001701  -0.000026  -0.000014  -0.000486  -0.000322   0.000005
    21  H    0.005454  -0.000140   0.000071  -0.000081  -0.000058  -0.000006
    22  H   -0.042931  -0.006873  -0.000098  -0.011174  -0.000074  -0.000002
    23  H   -0.035881  -0.004130   0.000779   0.005298  -0.000252   0.000000
    24  H   -0.043611   0.359584  -0.049683  -0.007490  -0.000132  -0.000000
    25  H   -0.037316   0.390300  -0.039350  -0.003742   0.000845   0.000000
    26  H    0.004288  -0.028154   0.366723  -0.000218   0.000001  -0.000000
    27  H   -0.002935  -0.032397   0.386188   0.000007  -0.000012   0.000000
    28  H    0.004361  -0.035157   0.378434  -0.000121   0.000051  -0.000000
    29  H   -0.044079  -0.011764  -0.000107   0.360190  -0.049529  -0.000000
    30  H   -0.038117   0.005534  -0.000255   0.389885  -0.039093   0.000000
    31  H    0.004266  -0.000131  -0.000063  -0.035104   0.378542  -0.000000
    32  H    0.004272  -0.000014  -0.000001  -0.028033   0.366636  -0.000000
    33  H   -0.002926   0.000139  -0.000351  -0.032342   0.386377   0.000000
              13         14         15         16         17         18
     1  C    0.374839   0.370354  -0.041355   0.007070  -0.006681  -0.002794
     2  C   -0.030074  -0.027366   0.395455  -0.039398  -0.039971  -0.031993
     3  N    0.004401   0.003461  -0.045841   0.342931   0.339163   0.006253
     4  C   -0.000589   0.005563  -0.054079  -0.003619  -0.004390   0.353179
     5  C   -0.000001  -0.000181  -0.006638   0.002662  -0.001022  -0.036617
     6  C    0.000004   0.000003   0.003059   0.000208   0.000093  -0.008193
     7  N   -0.000000  -0.000000  -0.000045  -0.000076   0.000001   0.000063
     8  C   -0.000000   0.000000   0.000006  -0.000000   0.000000  -0.000010
     9  C   -0.000000  -0.000000  -0.000000  -0.000000  -0.000000  -0.000007
    10  C    0.000000   0.000000  -0.000010   0.000078  -0.000001  -0.000007
    11  C   -0.000000  -0.000000  -0.000000  -0.000005  -0.000000   0.000000
    12  H   -0.030712  -0.032752   0.005528  -0.000063   0.005123  -0.000013
    13  H    0.609665  -0.028862  -0.003329  -0.000261  -0.000179   0.002245
    14  H   -0.028862   0.614406  -0.004713  -0.000118  -0.000434  -0.000154
    15  H   -0.003329  -0.004713   0.642511  -0.005068   0.007074  -0.001735
    16  H   -0.000261  -0.000118  -0.005068   0.474951  -0.033874   0.000009
    17  H   -0.000179  -0.000434   0.007074  -0.033874   0.483803   0.000031
    18  H    0.002245  -0.000154  -0.001735   0.000009   0.000031   0.660068
    19  H   -0.000242  -0.000049   0.006009  -0.000257   0.005343  -0.035057
    20  H   -0.000005  -0.000003   0.000307   0.003702   0.001137   0.006847
    21  H   -0.000004   0.000002   0.000014  -0.000074  -0.000027  -0.004725
    22  H    0.000003   0.000003   0.002463   0.001433  -0.000031  -0.000120
    23  H    0.000001   0.000000   0.000571  -0.000023  -0.000000   0.006102
    24  H    0.000000  -0.000000   0.000009   0.000001  -0.000000   0.000001
    25  H   -0.000000  -0.000000  -0.000000  -0.000000  -0.000000   0.000000
    26  H    0.000000   0.000000   0.000000   0.000000   0.000000   0.000000
    27  H    0.000000  -0.000000  -0.000001  -0.000000  -0.000000   0.000000
    28  H    0.000000   0.000000   0.000000   0.000000  -0.000000   0.000001
    29  H    0.000000  -0.000000   0.000002   0.000043  -0.000000   0.000001
    30  H   -0.000000   0.000000   0.000008   0.000584  -0.000005  -0.000000
    31  H    0.000000   0.000000  -0.000000   0.000000  -0.000000   0.000000
    32  H    0.000000   0.000000   0.000000   0.000000  -0.000000   0.000000
    33  H   -0.000000   0.000000   0.000000   0.000000  -0.000000  -0.000000
              19         20         21         22         23         24
     1  C   -0.006297   0.000062  -0.000130   0.000045  -0.000061   0.000000
     2  C   -0.034209  -0.008801   0.004693   0.001958  -0.001380  -0.000006
     3  N   -0.004666   0.008740   0.000226   0.000228   0.000118  -0.000000
     4  C    0.367498  -0.037644  -0.026332  -0.000301  -0.002463   0.000037
     5  C   -0.032834   0.372317   0.369788  -0.047996  -0.041213  -0.000080
     6  C    0.004798  -0.040038  -0.039685   0.360860   0.384100  -0.010841
     7  N   -0.000105  -0.001701   0.005454  -0.042931  -0.035881  -0.043611
     8  C    0.000003  -0.000026  -0.000140  -0.006873  -0.004130   0.359584
     9  C   -0.000000  -0.000014   0.000071  -0.000098   0.000779  -0.049683
    10  C    0.000000  -0.000486  -0.000081  -0.011174   0.005298  -0.007490
    11  C   -0.000000  -0.000322  -0.000058  -0.000074  -0.000252  -0.000132
    12  H    0.005331   0.000005  -0.000006  -0.000002   0.000000  -0.000000
    13  H   -0.000242  -0.000005  -0.000004   0.000003   0.000001   0.000000
    14  H   -0.000049  -0.000003   0.000002   0.000003   0.000000  -0.000000
    15  H    0.006009   0.000307   0.000014   0.002463   0.000571   0.000009
    16  H   -0.000257   0.003702  -0.000074   0.001433  -0.000023   0.000001
    17  H    0.005343   0.001137  -0.000027  -0.000031  -0.000000  -0.000000
    18  H   -0.035057   0.006847  -0.004725  -0.000120   0.006102   0.000001
    19  H    0.646653  -0.003981  -0.004054  -0.000161   0.000017  -0.000000
    20  H   -0.003981   0.642640  -0.037001  -0.006637   0.006130  -0.000008
    21  H   -0.004054  -0.037001   0.636713   0.006643  -0.006142   0.000074
    22  H   -0.000161  -0.006637   0.006643   0.684109  -0.044444   0.010625
    23  H    0.000017   0.006130  -0.006142  -0.044444   0.630030  -0.001455
    24  H   -0.000000  -0.000008   0.000074   0.010625  -0.001455   0.694045
    25  H   -0.000000   0.000007  -0.000012  -0.000301   0.000267  -0.044488
    26  H    0.000000   0.000000   0.000002   0.000033  -0.000260   0.002330
    27  H   -0.000001   0.000001   0.000048   0.000025   0.004523  -0.006142
    28  H   -0.000000   0.000002   0.000115   0.000078  -0.000080   0.006353
    29  H   -0.000001   0.000043   0.000078   0.011279  -0.000249   0.011571
    30  H    0.000017   0.003851  -0.000116  -0.001740   0.000219  -0.000299
    31  H   -0.000000   0.000054   0.000092   0.000069  -0.000008   0.000083
    32  H    0.000000   0.000013   0.000004   0.000037   0.000003   0.000038
    33  H    0.000000  -0.000000   0.000002  -0.000010   0.000006   0.000022
              25         26         27         28         29         30
     1  C   -0.000000   0.000000  -0.000000   0.000000   0.000000  -0.000000
     2  C    0.000000  -0.000000   0.000001  -0.000000  -0.000009   0.000020
     3  N   -0.000000  -0.000000  -0.000000   0.000000  -0.000004  -0.000056
     4  C    0.000002   0.000000   0.000002   0.000004   0.000036  -0.000255
     5  C   -0.000225  -0.000001  -0.000318  -0.000057  -0.000035   0.000500
     6  C    0.005320  -0.000008   0.000079  -0.000168  -0.007401  -0.002611
     7  N   -0.037316   0.004288  -0.002935   0.004361  -0.044079  -0.038117
     8  C    0.390300  -0.028154  -0.032397  -0.035157  -0.011764   0.005534
     9  C   -0.039350   0.366723   0.386188   0.378434  -0.000107  -0.000255
    10  C   -0.003742  -0.000218   0.000007  -0.000121   0.360190   0.389885
    11  C    0.000845   0.000001  -0.000012   0.000051  -0.049529  -0.039093
    12  H    0.000000  -0.000000   0.000000  -0.000000  -0.000000   0.000000
    13  H   -0.000000   0.000000   0.000000   0.000000   0.000000  -0.000000
    14  H   -0.000000   0.000000  -0.000000   0.000000  -0.000000   0.000000
    15  H   -0.000000   0.000000  -0.000001   0.000000   0.000002   0.000008
    16  H   -0.000000   0.000000  -0.000000   0.000000   0.000043   0.000584
    17  H   -0.000000   0.000000  -0.000000  -0.000000  -0.000000  -0.000005
    18  H    0.000000   0.000000   0.000000   0.000001   0.000001  -0.000000
    19  H   -0.000000   0.000000  -0.000001  -0.000000  -0.000001   0.000017
    20  H    0.000007   0.000000   0.000001   0.000002   0.000043   0.003851
    21  H   -0.000012   0.000002   0.000048   0.000115   0.000078  -0.000116
    22  H   -0.000301   0.000033   0.000025   0.000078   0.011279  -0.001740
    23  H    0.000267  -0.000260   0.004523  -0.000080  -0.000249   0.000219
    24  H   -0.044488   0.002330  -0.006142   0.006353   0.011571  -0.000299
    25  H    0.628052  -0.004222   0.005442  -0.005586  -0.001647   0.000249
    26  H   -0.004222   0.614871  -0.030243  -0.027507   0.000037   0.000003
    27  H    0.005442  -0.030243   0.599905  -0.032570  -0.000009   0.000006
    28  H   -0.005586  -0.027507  -0.032570   0.604461   0.000066  -0.000009
    29  H   -0.001647   0.000037  -0.000009   0.000066   0.693752  -0.044550
    30  H    0.000249   0.000003   0.000006  -0.000009  -0.044550   0.628388
    31  H   -0.000080   0.000004   0.000002   0.000081   0.006354  -0.005597
    32  H   -0.000254   0.000000   0.000000   0.000001   0.002343  -0.004299
    33  H    0.004515   0.000013   0.000001   0.000035  -0.006189   0.005446
              31         32         33
     1  C    0.000000   0.000000  -0.000000
     2  C   -0.000000  -0.000000   0.000000
     3  N   -0.000000  -0.000000  -0.000000
     4  C    0.000002   0.000000   0.000000
     5  C    0.000089   0.000001  -0.000012
     6  C   -0.000173  -0.000210   0.000023
     7  N    0.004266   0.004272  -0.002926
     8  C   -0.000131  -0.000014   0.000139
     9  C   -0.000063  -0.000001  -0.000351
    10  C   -0.035104  -0.028033  -0.032342
    11  C    0.378542   0.366636   0.386377
    12  H   -0.000000  -0.000000   0.000000
    13  H    0.000000   0.000000  -0.000000
    14  H    0.000000   0.000000   0.000000
    15  H   -0.000000   0.000000   0.000000
    16  H    0.000000   0.000000   0.000000
    17  H   -0.000000  -0.000000  -0.000000
    18  H    0.000000   0.000000  -0.000000
    19  H   -0.000000   0.000000   0.000000
    20  H    0.000054   0.000013  -0.000000
    21  H    0.000092   0.000004   0.000002
    22  H    0.000069   0.000037  -0.000010
    23  H   -0.000008   0.000003   0.000006
    24  H    0.000083   0.000038   0.000022
    25  H   -0.000080  -0.000254   0.004515
    26  H    0.000004   0.000000   0.000013
    27  H    0.000002   0.000000   0.000001
    28  H    0.000081   0.000001   0.000035
    29  H    0.006354   0.002343  -0.006189
    30  H   -0.005597  -0.004299   0.005446
    31  H    0.604372  -0.027506  -0.032606
    32  H   -0.027506   0.614947  -0.030270
    33  H   -0.032606  -0.030270   0.599550
 Mulliken charges:
               1
     1  C   -0.310493
     2  C    0.049515
     3  N   -0.629651
     4  C   -0.175417
     5  C   -0.188182
     6  C   -0.032417
     7  N   -0.439460
     8  C   -0.033182
     9  C   -0.323629
    10  C   -0.033717
    11  C   -0.323631
    12  H    0.101588
    13  H    0.103100
    14  H    0.100838
    15  H    0.099800
    16  H    0.249162
    17  H    0.244848
    18  H    0.086624
    19  H    0.086244
    20  H    0.090810
    21  H    0.094569
    22  H    0.083001
    23  H    0.099877
    24  H    0.079463
    25  H    0.102226
    26  H    0.102307
    27  H    0.108395
    28  H    0.107211
    29  H    0.079777
    30  H    0.102293
    31  H    0.107260
    32  H    0.102290
    33  H    0.108579
 Sum of Mulliken charges =  -0.00000
 Mulliken charges with hydrogens summed into heavy atoms:
               1
     1  C   -0.004966
     2  C    0.149315
     3  N   -0.135641
     4  C   -0.002549
     5  C   -0.002802
     6  C    0.150461
     7  N   -0.439460
     8  C    0.148507
     9  C   -0.005717
    10  C    0.148353
    11  C   -0.005502
 APT charges:
               1
     1  C   -1.393247
     2  C   -0.246167
     3  N   -0.728127
     4  C   -0.763664
     5  C   -0.644508
     6  C   -0.433095
     7  N   -0.343936
     8  C   -0.785337
     9  C   -1.193207
    10  C   -0.475422
    11  C   -1.348402
    12  H    0.531768
    13  H    0.349553
    14  H    0.575531
    15  H    0.180304
    16  H    0.079153
    17  H    0.628365
    18  H    0.330122
    19  H    0.458357
    20  H    0.288980
    21  H    0.367759
    22  H    0.233728
    23  H    0.333272
    24  H    0.235418
    25  H    0.599849
    26  H    0.701907
    27  H    0.148004
    28  H    0.391215
    29  H    0.314608
    30  H    0.227744
    31  H    0.299049
    32  H    0.549415
    33  H    0.531010
 Sum of APT charges =  -0.00000
 APT charges with hydrogens summed into heavy atoms:
               1
     1  C    0.063605
     2  C   -0.065863
     3  N   -0.020608
     4  C    0.024815
     5  C    0.012231
     6  C    0.133904
     7  N   -0.343936
     8  C    0.049930
     9  C    0.047919
    10  C    0.066930
    11  C    0.031072
 Electronic spatial extent (au):  <R**2>=           3034.6856
 Charge=             -0.0000 electrons
 Dipole moment (field-independent basis, Debye):
    X=             -0.6994    Y=              0.1047    Z=              0.3914  Tot=              0.8083
 Quadrupole moment (field-independent basis, Debye-Ang):
   XX=            -76.6267   YY=            -70.5601   ZZ=            -75.0894
   XY=              1.9506   XZ=              7.6487   YZ=             -2.9397
 Traceless Quadrupole moment (field-independent basis, Debye-Ang):
   XX=             -2.5346   YY=              3.5320   ZZ=             -0.9973
   XY=              1.9506   XZ=              7.6487   YZ=             -2.9397
 Octapole moment (field-independent basis, Debye-Ang**2):
  XXX=            -22.6101  YYY=             -7.2175  ZZZ=              2.0916  XYY=             -1.5298
  XXY=              8.0680  XXZ=             13.9507  XZZ=             -2.2098  YZZ=              1.3745
  YYZ=              3.2100  XYZ=             -9.6400
 Hexadecapole moment (field-independent basis, Debye-Ang**3):
 XXXX=          -3104.5188 YYYY=           -777.2724 ZZZZ=           -278.0615 XXXY=              2.4849
 XXXZ=             86.8612 YYYX=             -3.6452 YYYZ=             -7.0371 ZZZX=              3.0117
 ZZZY=             -3.8209 XXYY=           -649.6644 XXZZ=           -573.6894 YYZZ=           -185.1628
 XXYZ=            -38.6920 YYXZ=             19.4037 ZZXY=              3.8121
 N-N= 6.694484281529D+02 E-N=-2.416920492668D+03  KE= 4.612023733816D+02
  Exact polarizability:   0.000   0.000   0.000   0.000   0.000   0.000
 Approx polarizability: 153.389  -0.441 154.414   2.586  -1.275 145.439
 D2PCM: PCM CHGder 2nd derivatives, FixD1E=F FixD2E=F DoIter=F DoCFld=F I1PDM=0
 Calling FoFJK, ICntrl=    100147 FMM=F ISym2X=0 I1Cent= 0 IOpClX= 0 NMat=1 NMatS=1 NMatT=0.
 ***** Axes restored to original set *****
 -------------------------------------------------------------------
 Center     Atomic                   Forces (Hartrees/Bohr)
 Number     Number              X              Y              Z
 -------------------------------------------------------------------
      1        6           0.000153980    0.006066867   -0.002998390
      2        6           0.007983750   -0.002487416    0.010415529
      3        7           0.001513026   -0.005396353   -0.011973475
      4        6          -0.005927265    0.004395180    0.002535982
      5        6           0.002322475    0.003444614    0.000472282
      6        6           0.000145468   -0.006431827    0.009457620
      7        7          -0.000121194    0.001602753   -0.006468964
      8        6          -0.001609155   -0.000255865    0.008395099
      9        6          -0.002310080    0.003686131    0.000293514
     10        6          -0.001550297   -0.003283789    0.007611226
     11        6          -0.002030722   -0.003722635   -0.001351594
     12        1          -0.000433369   -0.001029125    0.000541405
     13        1           0.000563232   -0.000237581    0.000935966
     14        1          -0.000202245   -0.001291416    0.000614492
     15        1          -0.001330878   -0.001707600   -0.001176746
     16        1           0.001099924    0.000039744    0.000543977
     17        1          -0.001304363    0.000843816    0.000791235
     18        1          -0.000331290    0.001319924    0.000780974
     19        1           0.002446648    0.000743723   -0.001599517
     20        1          -0.000574022   -0.001180913   -0.000897121
     21        1          -0.002087595   -0.000805366   -0.002192825
     22        1           0.002169909    0.000569939   -0.004408254
     23        1          -0.004320319   -0.001377355   -0.000527749
     24        1           0.000411259    0.002266182   -0.004597494
     25        1           0.004681065   -0.004161355   -0.000983739
     26        1           0.000120179    0.001000012   -0.000153391
     27        1           0.000340383    0.000391443    0.001019294
     28        1           0.001042092   -0.000509033   -0.000905630
     29        1          -0.000672229    0.000599411   -0.005072333
     30        1           0.001232478    0.005999763    0.001171232
     31        1           0.000165454    0.001342241   -0.000563404
     32        1          -0.000818168   -0.000287026   -0.000533742
     33        1          -0.000768132   -0.000147087    0.000824536
 -------------------------------------------------------------------
 Cartesian Forces:  Max     0.011973475 RMS     0.003274422
 FormGI is forming the generalized inverse of G from B-inverse, IUseBI=4.

 GradGradGradGradGradGradGradGradGradGradGradGradGradGradGradGradGradGrad
 Berny optimization.
 Internal  Forces:  Max     0.008469005 RMS     0.002095580
 Search for a local minimum.
 Step number   1 out of a maximum of  180
 All quantities printed in internal units (Hartrees-Bohrs-Radians)
 Mixed Optimization -- RFO/linear search
 Second derivative matrix not updated -- analytic derivatives used.
 ITU=  0
     Eigenvalues ---    0.00146   0.00182   0.00196   0.00243   0.00293
     Eigenvalues ---    0.00328   0.00403   0.00464   0.00484   0.00519
     Eigenvalues ---    0.02437   0.03109   0.03539   0.03835   0.03945
     Eigenvalues ---    0.04109   0.04332   0.04408   0.04424   0.04519
     Eigenvalues ---    0.04561   0.04580   0.04646   0.04660   0.04677
     Eigenvalues ---    0.04699   0.05047   0.05100   0.05354   0.05370
     Eigenvalues ---    0.05384   0.06910   0.07482   0.08275   0.08318
     Eigenvalues ---    0.08638   0.10123   0.11387   0.11478   0.11708
     Eigenvalues ---    0.12230   0.12294   0.12373   0.13032   0.13389
     Eigenvalues ---    0.13728   0.14076   0.14164   0.14867   0.15962
     Eigenvalues ---    0.16057   0.16130   0.18069   0.18930   0.19505
     Eigenvalues ---    0.19710   0.20515   0.22045   0.22840   0.24234
     Eigenvalues ---    0.24391   0.26753   0.27856   0.29007   0.29109
     Eigenvalues ---    0.29343   0.31153   0.31679   0.31941   0.32437
     Eigenvalues ---    0.32585   0.32881   0.33083   0.33206   0.33278
     Eigenvalues ---    0.33472   0.33552   0.33611   0.33708   0.33734
     Eigenvalues ---    0.33775   0.33799   0.34010   0.34131   0.34274
     Eigenvalues ---    0.34641   0.34663   0.36115   0.36218   0.36690
     Eigenvalues ---    0.36937   0.43909   0.44548
 RFO step:  Lambda=-4.73198025D-03 EMin= 1.46237417D-03
 Linear search not attempted -- first point.
 Iteration  1 RMS(Cart)=  0.03735797 RMS(Int)=  0.00058274
 Iteration  2 RMS(Cart)=  0.00082967 RMS(Int)=  0.00016151
 Iteration  3 RMS(Cart)=  0.00000046 RMS(Int)=  0.00016151
 Variable       Old X    -DE/DX   Delta X   Delta X   Delta X     New X
                                 (Linear)    (Quad)   (Total)
    R1        2.88925   0.00219   0.00000   0.00515   0.00515   2.89440
    R2        2.07105   0.00039   0.00000   0.00238   0.00238   2.07343
    R3        2.07005  -0.00005   0.00000  -0.00146  -0.00146   2.06859
    R4        2.07087  -0.00083   0.00000  -0.00368  -0.00368   2.06719
    R5        2.76280   0.00847   0.00000   0.02366   0.02366   2.78646
    R6        2.90805   0.00486   0.00000   0.01223   0.01223   2.92028
    R7        2.06957   0.00093   0.00000   0.00512   0.00512   2.07468
    R8        1.92457  -0.00093   0.00000  -0.00010  -0.00010   1.92447
    R9        1.92723  -0.00070   0.00000   0.00154   0.00154   1.92877
   R10        2.90224   0.00413   0.00000   0.00338   0.00338   2.90562
   R11        2.07482   0.00155   0.00000   0.00227   0.00227   2.07709
   R12        2.07548   0.00035   0.00000   0.00209   0.00209   2.07757
   R13        2.90279   0.00014   0.00000  -0.00265  -0.00265   2.90014
   R14        2.06879   0.00114   0.00000   0.00447   0.00447   2.07326
   R15        2.07506  -0.00133   0.00000  -0.00319  -0.00319   2.07187
   R16        2.79305  -0.00116   0.00000  -0.01049  -0.01049   2.78256
   R17        2.07252   0.00484   0.00000   0.01698   0.01698   2.08950
   R18        2.07027  -0.00062   0.00000  -0.00140  -0.00140   2.06887
   R19        2.79002  -0.00186   0.00000  -0.00863  -0.00863   2.78139
   R20        2.79032  -0.00188   0.00000  -0.00855  -0.00855   2.78177
   R21        2.88417   0.00343   0.00000   0.00609   0.00609   2.89026
   R22        2.07379   0.00513   0.00000   0.01725   0.01725   2.09105
   R23        2.06993  -0.00086   0.00000  -0.00296  -0.00296   2.06697
   R24        2.06960   0.00035   0.00000  -0.00023  -0.00023   2.06937
   R25        2.06628   0.00064   0.00000   0.00185   0.00185   2.06813
   R26        2.06976  -0.00072   0.00000  -0.00161  -0.00161   2.06815
   R27        2.88367   0.00353   0.00000   0.00664   0.00664   2.89031
   R28        2.07385   0.00515   0.00000   0.01734   0.01734   2.09119
   R29        2.07021  -0.00096   0.00000  -0.00310  -0.00310   2.06711
   R30        2.06976  -0.00072   0.00000  -0.00161  -0.00161   2.06814
   R31        2.06961   0.00035   0.00000  -0.00024  -0.00024   2.06937
   R32        2.06631   0.00060   0.00000   0.00173   0.00173   2.06803
    A1        1.94868  -0.00196   0.00000  -0.01716  -0.01721   1.93147
    A2        1.93086   0.00120   0.00000   0.00896   0.00895   1.93981
    A3        1.93735  -0.00062   0.00000  -0.00481  -0.00490   1.93245
    A4        1.88279   0.00006   0.00000  -0.00260  -0.00258   1.88022
    A5        1.88457   0.00079   0.00000   0.00055   0.00041   1.88498
    A6        1.87696   0.00064   0.00000   0.01613   0.01609   1.89306
    A7        1.89332  -0.00133   0.00000   0.00266   0.00208   1.89541
    A8        1.92509  -0.00197   0.00000   0.00299   0.00250   1.92759
    A9        1.87875   0.00154   0.00000   0.00411   0.00406   1.88280
   A10        1.95698   0.00629   0.00000   0.04041   0.04036   1.99734
   A11        1.89187  -0.00293   0.00000  -0.03406  -0.03381   1.85806
   A12        1.91582  -0.00179   0.00000  -0.01782  -0.01749   1.89833
   A13        1.92439   0.00090   0.00000  -0.00921  -0.00938   1.91502
   A14        1.91616  -0.00251   0.00000  -0.01937  -0.01954   1.89662
   A15        1.85087   0.00001   0.00000  -0.01277  -0.01313   1.83775
   A16        2.01925   0.00329   0.00000   0.00843   0.00843   2.02768
   A17        1.89899   0.00006   0.00000  -0.00124  -0.00136   1.89763
   A18        1.91092  -0.00386   0.00000  -0.02847  -0.02848   1.88244
   A19        1.89203  -0.00135   0.00000   0.00936   0.00930   1.90133
   A20        1.88483   0.00112   0.00000   0.00947   0.00949   1.89432
   A21        1.85048   0.00056   0.00000   0.00239   0.00222   1.85270
   A22        1.97609   0.00422   0.00000   0.01523   0.01526   1.99135
   A23        1.90869  -0.00112   0.00000  -0.00007  -0.00001   1.90868
   A24        1.87967   0.00085   0.00000   0.01953   0.01966   1.89933
   A25        1.94129  -0.00140   0.00000  -0.01030  -0.01040   1.93089
   A26        1.90097  -0.00340   0.00000  -0.02238  -0.02260   1.87837
   A27        1.85194   0.00067   0.00000  -0.00232  -0.00258   1.84936
   A28        1.94330   0.00610   0.00000   0.02894   0.02890   1.97220
   A29        1.94267  -0.00281   0.00000  -0.00873  -0.00891   1.93376
   A30        1.86327   0.00151   0.00000   0.01831   0.01866   1.88193
   A31        1.92420  -0.00043   0.00000   0.00701   0.00683   1.93102
   A32        1.93101  -0.00548   0.00000  -0.04258  -0.04273   1.88828
   A33        1.85668   0.00079   0.00000  -0.00524  -0.00535   1.85133
   A34        1.93209   0.00013   0.00000   0.01088   0.01065   1.94273
   A35        1.93035   0.00033   0.00000   0.01077   0.01053   1.94088
   A36        1.93007   0.00003   0.00000   0.01139   0.01116   1.94124
   A37        1.95456   0.00423   0.00000   0.02233   0.02238   1.97694
   A38        1.94003  -0.00046   0.00000  -0.00115  -0.00136   1.93867
   A39        1.93160  -0.00584   0.00000  -0.04694  -0.04730   1.88430
   A40        1.92508  -0.00204   0.00000  -0.00530  -0.00530   1.91977
   A41        1.85168   0.00362   0.00000   0.03463   0.03496   1.88664
   A42        1.85644   0.00039   0.00000  -0.00391  -0.00431   1.85213
   A43        1.91644   0.00092   0.00000   0.00566   0.00566   1.92210
   A44        1.96292   0.00098   0.00000   0.00010   0.00007   1.96299
   A45        1.93664  -0.00190   0.00000  -0.01004  -0.01006   1.92659
   A46        1.87426  -0.00067   0.00000  -0.00015  -0.00015   1.87411
   A47        1.88014   0.00078   0.00000   0.01070   0.01072   1.89086
   A48        1.89053  -0.00009   0.00000  -0.00555  -0.00561   1.88492
   A49        1.95479   0.00433   0.00000   0.02280   0.02285   1.97763
   A50        1.94015  -0.00055   0.00000  -0.00167  -0.00187   1.93828
   A51        1.93139  -0.00579   0.00000  -0.04679  -0.04714   1.88425
   A52        1.92491  -0.00207   0.00000  -0.00551  -0.00551   1.91940
   A53        1.85295   0.00349   0.00000   0.03338   0.03372   1.88667
   A54        1.85517   0.00049   0.00000  -0.00258  -0.00296   1.85221
   A55        1.93679  -0.00187   0.00000  -0.01006  -0.01007   1.92671
   A56        1.91655   0.00091   0.00000   0.00523   0.00524   1.92179
   A57        1.96229   0.00101   0.00000   0.00095   0.00092   1.96321
   A58        1.88014   0.00078   0.00000   0.01077   0.01079   1.89092
   A59        1.89085  -0.00012   0.00000  -0.00580  -0.00584   1.88500
   A60        1.87434  -0.00068   0.00000  -0.00041  -0.00042   1.87392
    D1       -1.08883  -0.00291   0.00000  -0.02957  -0.02957  -1.11840
    D2        1.06080   0.00279   0.00000   0.02437   0.02427   1.08507
    D3       -3.13252   0.00042   0.00000   0.00699   0.00696  -3.12556
    D4        3.09726  -0.00249   0.00000  -0.02093  -0.02087   3.07639
    D5       -1.03630   0.00320   0.00000   0.03301   0.03297  -1.00333
    D6        1.05357   0.00084   0.00000   0.01563   0.01566   1.06923
    D7        1.01494  -0.00367   0.00000  -0.04384  -0.04377   0.97117
    D8       -3.11861   0.00203   0.00000   0.01010   0.01006  -3.10856
    D9       -1.02875  -0.00034   0.00000  -0.00729  -0.00724  -1.03599
   D10       -3.10630  -0.00001   0.00000   0.00772   0.00791  -3.09839
   D11        1.14386   0.00095   0.00000   0.04011   0.04009   1.18395
   D12        1.04660  -0.00070   0.00000  -0.02410  -0.02424   1.02237
   D13       -0.98642   0.00025   0.00000   0.00828   0.00795  -0.97848
   D14       -1.07104  -0.00048   0.00000  -0.00439  -0.00414  -1.07518
   D15       -3.10407   0.00048   0.00000   0.02799   0.02804  -3.07602
   D16        3.13255  -0.00061   0.00000  -0.00644  -0.00657   3.12598
   D17        0.99846  -0.00121   0.00000  -0.02374  -0.02383   0.97462
   D18       -1.01664   0.00019   0.00000  -0.01038  -0.01055  -1.02719
   D19       -1.03858   0.00059   0.00000   0.02634   0.02649  -1.01209
   D20        3.11052  -0.00002   0.00000   0.00904   0.00923   3.11974
   D21        1.09542   0.00138   0.00000   0.02241   0.02251   1.11793
   D22        1.06524  -0.00021   0.00000  -0.00234  -0.00235   1.06289
   D23       -1.06885  -0.00081   0.00000  -0.01964  -0.01961  -1.08846
   D24       -3.08395   0.00059   0.00000  -0.00627  -0.00633  -3.09027
   D25       -1.03843  -0.00190   0.00000  -0.05856  -0.05854  -1.09697
   D26        1.13688  -0.00153   0.00000  -0.06106  -0.06107   1.07580
   D27       -3.14118  -0.00085   0.00000  -0.05338  -0.05347   3.08854
   D28        1.09935  -0.00057   0.00000  -0.04695  -0.04689   1.05245
   D29       -3.00853  -0.00019   0.00000  -0.04945  -0.04943  -3.05796
   D30       -1.00340   0.00048   0.00000  -0.04177  -0.04183  -1.04522
   D31        3.09695  -0.00002   0.00000  -0.03454  -0.03447   3.06248
   D32       -1.01093   0.00036   0.00000  -0.03704  -0.03700  -1.04793
   D33        0.99420   0.00103   0.00000  -0.02936  -0.02940   0.96480
   D34       -3.01754   0.00106   0.00000   0.00324   0.00318  -3.01436
   D35        1.11101  -0.00077   0.00000  -0.02050  -0.02047   1.09054
   D36       -0.90822  -0.00112   0.00000  -0.02027  -0.02011  -0.92833
   D37        1.10812   0.00045   0.00000  -0.00015  -0.00015   1.10797
[...]
     2    C    1  S      Val( 2S)     1.10205
     3    C    1  S      Ryd( 3S)     0.00053
     4    C    1  S      Ryd( 4S)     0.00002
     5    C    1  px     Val( 2p)     1.12327
     6    C    1  px     Ryd( 3p)     0.00143
     7    C    1  py     Val( 2p)     1.21261
     8    C    1  py     Ryd( 3p)     0.00281
     9    C    1  pz     Val( 2p)     1.24246
    10    C    1  pz     Ryd( 3p)     0.00160
    11    C    1  dxy    Ryd( 3d)     0.00035
    12    C    1  dxz    Ryd( 3d)     0.00093
    13    C    1  dyz    Ryd( 3d)     0.00019
    14    C    1  dx2y2  Ryd( 3d)     0.00085
    15    C    1  dz2    Ryd( 3d)     0.00055

    16    C    2  S      Cor( 1S)     1.99925
    17    C    2  S      Val( 2S)     0.94971
    18    C    2  S      Ryd( 3S)     0.00144
    19    C    2  S      Ryd( 4S)     0.00004
    20    C    2  px     Val( 2p)     1.06017
    21    C    2  px     Ryd( 3p)     0.00359
    22    C    2  py     Val( 2p)     0.89814
    23    C    2  py     Ryd( 3p)     0.00536
    24    C    2  pz     Val( 2p)     1.14533
    25    C    2  pz     Ryd( 3p)     0.00332
    26    C    2  dxy    Ryd( 3d)     0.00109
    27    C    2  dxz    Ryd( 3d)     0.00086
    28    C    2  dyz    Ryd( 3d)     0.00100
    29    C    2  dx2y2  Ryd( 3d)     0.00126
    30    C    2  dz2    Ryd( 3d)     0.00091

    31    N    3  S      Cor( 1S)     1.99966
    32    N    3  S      Val( 2S)     1.46603
    33    N    3  S      Ryd( 3S)     0.00598
    34    N    3  S      Ryd( 4S)     0.00002
    35    N    3  px     Val( 2p)     1.55269
    36    N    3  px     Ryd( 3p)     0.00486
    37    N    3  py     Val( 2p)     1.29301
    38    N    3  py     Ryd( 3p)     0.00305
    39    N    3  pz     Val( 2p)     1.63029
    40    N    3  pz     Ryd( 3p)     0.00385
    41    N    3  dxy    Ryd( 3d)     0.00058
    42    N    3  dxz    Ryd( 3d)     0.00081
    43    N    3  dyz    Ryd( 3d)     0.00059
    44    N    3  dx2y2  Ryd( 3d)     0.00068
    45    N    3  dz2    Ryd( 3d)     0.00122

    46    C    4  S      Cor( 1S)     1.99929
    47    C    4  S      Val( 2S)     1.03836
    48    C    4  S      Ryd( 3S)     0.00095
    49    C    4  S      Ryd( 4S)     0.00003
    50    C    4  px     Val( 2p)     1.06563
    51    C    4  px     Ryd( 3p)     0.00239
    52    C    4  py     Val( 2p)     1.19786
    53    C    4  py     Ryd( 3p)     0.00291
    54    C    4  pz     Val( 2p)     1.16483
    55    C    4  pz     Ryd( 3p)     0.00253
    56    C    4  dxy    Ryd( 3d)     0.00038
    57    C    4  dxz    Ryd( 3d)     0.00081
    58    C    4  dyz    Ryd( 3d)     0.00021
    59    C    4  dx2y2  Ryd( 3d)     0.00097
    60    C    4  dz2    Ryd( 3d)     0.00079

    61    C    5  S      Cor( 1S)     1.99930
    62    C    5  S      Val( 2S)     1.04855
    63    C    5  S      Ryd( 3S)     0.00114
    64    C    5  S      Ryd( 4S)     0.00004
    65    C    5  px     Val( 2p)     1.04799
    66    C    5  px     Ryd( 3p)     0.00288
    67    C    5  py     Val( 2p)     1.24919
    68    C    5  py     Ryd( 3p)     0.00525
    69    C    5  pz     Val( 2p)     1.13218
    70    C    5  pz     Ryd( 3p)     0.00552
    71    C    5  dxy    Ryd( 3d)     0.00042
    72    C    5  dxz    Ryd( 3d)     0.00082
    73    C    5  dyz    Ryd( 3d)     0.00036
    74    C    5  dx2y2  Ryd( 3d)     0.00078
    75    C    5  dz2    Ryd( 3d)     0.00059

    76    C    6  S      Cor( 1S)     1.99925
    77    C    6  S      Val( 2S)     1.04710
    78    C    6  S      Ryd( 3S)     0.00207
    79    C    6  S      Ryd( 4S)     0.00004
    80    C    6  px     Val( 2p)     0.84935
    81    C    6  px     Ryd( 3p)     0.00299
    82    C    6  py     Val( 2p)     1.21288
    83    C    6  py     Ryd( 3p)     0.00485
    84    C    6  pz     Val( 2p)     1.18537
    85    C    6  pz     Ryd( 3p)     0.00354
    86    C    6  dxy    Ryd( 3d)     0.00069
    87    C    6  dxz    Ryd( 3d)     0.00062
    88    C    6  dyz    Ryd( 3d)     0.00049
    89    C    6  dx2y2  Ryd( 3d)     0.00136
    90    C    6  dz2    Ryd( 3d)     0.00115

    91    N    7  S      Cor( 1S)     1.99929
    92    N    7  S      Val( 2S)     1.29123
    93    N    7  S      Ryd( 3S)     0.00125
    94    N    7  S      Ryd( 4S)     0.00002
    95    N    7  px     Val( 2p)     1.28949
    96    N    7  px     Ryd( 3p)     0.00109
    97    N    7  py     Val( 2p)     1.29333
    98    N    7  py     Ryd( 3p)     0.00136
    99    N    7  pz     Val( 2p)     1.14536
   100    N    7  pz     Ryd( 3p)     0.00156
   101    N    7  dxy    Ryd( 3d)     0.00079
   102    N    7  dxz    Ryd( 3d)     0.00079
   103    N    7  dyz    Ryd( 3d)     0.00089
   104    N    7  dx2y2  Ryd( 3d)     0.00088
   105    N    7  dz2    Ryd( 3d)     0.00039

   106    C    8  S      Cor( 1S)     1.99930
   107    C    8  S      Val( 2S)     1.04453
   108    C    8  S      Ryd( 3S)     0.00160
   109    C    8  S      Ryd( 4S)     0.00003
   110    C    8  px     Val( 2p)     1.09079
   111    C    8  px     Ryd( 3p)     0.00296
   112    C    8  py     Val( 2p)     1.03683
   113    C    8  py     Ryd( 3p)     0.00298
   114    C    8  pz     Val( 2p)     1.12668
   115    C    8  pz     Ryd( 3p)     0.00231
   116    C    8  dxy    Ryd( 3d)     0.00130
   117    C    8  dxz    Ryd( 3d)     0.00078
   118    C    8  dyz    Ryd( 3d)     0.00080
   119    C    8  dx2y2  Ryd( 3d)     0.00062
   120    C    8  dz2    Ryd( 3d)     0.00094

   121    C    9  S      Cor( 1S)     1.99945
   122    C    9  S      Val( 2S)     1.11022
   123    C    9  S      Ryd( 3S)     0.00047
   124    C    9  S      Ryd( 4S)     0.00001
   125    C    9  px     Val( 2p)     1.25577
   126    C    9  px     Ryd( 3p)     0.00165
   127    C    9  py     Val( 2p)     1.12048
   128    C    9  py     Ryd( 3p)     0.00242
   129    C    9  pz     Val( 2p)     1.21319
   130    C    9  pz     Ryd( 3p)     0.00156
   131    C    9  dxy    Ryd( 3d)     0.00074
   132    C    9  dxz    Ryd( 3d)     0.00051
   133    C    9  dyz    Ryd( 3d)     0.00050
   134    C    9  dx2y2  Ryd( 3d)     0.00030
   135    C    9  dz2    Ryd( 3d)     0.00059

   136    C   10  S      Cor( 1S)     1.99928
   137    C   10  S      Val( 2S)     1.05186
   138    C   10  S      Ryd( 3S)     0.00263
   139    C   10  S      Ryd( 4S)     0.00003
   140    C   10  px     Val( 2p)     1.19715
   141    C   10  px     Ryd( 3p)     0.00332
   142    C   10  py     Val( 2p)     0.87165
   143    C   10  py     Ryd( 3p)     0.00445
   144    C   10  pz     Val( 2p)     1.18588
   145    C   10  pz     Ryd( 3p)     0.00380
   146    C   10  dxy    Ryd( 3d)     0.00075
   147    C   10  dxz    Ryd( 3d)     0.00041
   148    C   10  dyz    Ryd( 3d)     0.00063
   149    C   10  dx2y2  Ryd( 3d)     0.00130
   150    C   10  dz2    Ryd( 3d)     0.00112

   151    C   11  S      Cor( 1S)     1.99945
   152    C   11  S      Val( 2S)     1.10923
   153    C   11  S      Ryd( 3S)     0.00047
   154    C   11  S      Ryd( 4S)     0.00001
   155    C   11  px     Val( 2p)     1.14487
   156    C   11  px     Ryd( 3p)     0.00306
   157    C   11  py     Val( 2p)     1.22556
   158    C   11  py     Ryd( 3p)     0.00178
   159    C   11  pz     Val( 2p)     1.22070
   160    C   11  pz     Ryd( 3p)     0.00163
   161    C   11  dxy    Ryd( 3d)     0.00051
   162    C   11  dxz    Ryd( 3d)     0.00031
   163    C   11  dyz    Ryd( 3d)     0.00030
   164    C   11  dx2y2  Ryd( 3d)     0.00064
   165    C   11  dz2    Ryd( 3d)     0.00090

   166    H   12  S      Val( 1S)     0.77530
   167    H   12  S      Ryd( 2S)     0.00273
   168    H   12  px     Ryd( 2p)     0.00016
   169    H   12  py     Ryd( 2p)     0.00011
   170    H   12  pz     Ryd( 2p)     0.00027

   171    H   13  S      Val( 1S)     0.78300
   172    H   13  S      Ryd( 2S)     0.00470
   173    H   13  px     Ryd( 2p)     0.00008
   174    H   13  py     Ryd( 2p)     0.00035
   175    H   13  pz     Ryd( 2p)     0.00009

   176    H   14  S      Val( 1S)     0.76556
   177    H   14  S      Ryd( 2S)     0.00238
   178    H   14  px     Ryd( 2p)     0.00015
   179    H   14  py     Ryd( 2p)     0.00012
   180    H   14  pz     Ryd( 2p)     0.00024

   181    H   15  S      Val( 1S)     0.79057
   182    H   15  S      Ryd( 2S)     0.01443
   183    H   15  px     Ryd( 2p)     0.00018
   184    H   15  py     Ryd( 2p)     0.00009
   185    H   15  pz     Ryd( 2p)     0.00033

   186    H   16  S      Val( 1S)     0.76016
   187    H   16  S      Ryd( 2S)     0.07277
   188    H   16  px     Ryd( 2p)     0.00063
   189    H   16  py     Ryd( 2p)     0.00026
   190    H   16  pz     Ryd( 2p)     0.00038

   191    H   17  S      Val( 1S)     0.65808
   192    H   17  S      Ryd( 2S)     0.01749
   193    H   17  px     Ryd( 2p)     0.00041
   194    H   17  py     Ryd( 2p)     0.00029
   195    H   17  pz     Ryd( 2p)     0.00068

   196    H   18  S      Val( 1S)     0.77562
   197    H   18  S      Ryd( 2S)     0.00690
   198    H   18  px     Ryd( 2p)     0.00012
   199    H   18  py     Ryd( 2p)     0.00036
   200    H   18  pz     Ryd( 2p)     0.00010

   201    H   19  S      Val( 1S)     0.76673
   202    H   19  S      Ryd( 2S)     0.00687
   203    H   19  px     Ryd( 2p)     0.00017
   204    H   19  py     Ryd( 2p)     0.00011
   205    H   19  pz     Ryd( 2p)     0.00028

   206    H   20  S      Val( 1S)     0.82315
   207    H   20  S      Ryd( 2S)     0.04443
   208    H   20  px     Ryd( 2p)     0.00008
   209    H   20  py     Ryd( 2p)     0.00037
   210    H   20  pz     Ryd( 2p)     0.00013

   211    H   21  S      Val( 1S)     0.77395
   212    H   21  S      Ryd( 2S)     0.01097
   213    H   21  px     Ryd( 2p)     0.00012
   214    H   21  py     Ryd( 2p)     0.00012
   215    H   21  pz     Ryd( 2p)     0.00031

   216    H   22  S      Val( 1S)     0.74220
   217    H   22  S      Ryd( 2S)     0.03542
   218    H   22  px     Ryd( 2p)     0.00012
   219    H   22  py     Ryd( 2p)     0.00012
   220    H   22  pz     Ryd( 2p)     0.00030

   221    H   23  S      Val( 1S)     0.75239
   222    H   23  S      Ryd( 2S)     0.01062
   223    H   23  px     Ryd( 2p)     0.00007
   224    H   23  py     Ryd( 2p)     0.00037
   225    H   23  pz     Ryd( 2p)     0.00009

   226    H   24  S      Val( 1S)     0.69954
   227    H   24  S      Ryd( 2S)     0.00018
   228    H   24  px     Ryd( 2p)     0.00008
   229    H   24  py     Ryd( 2p)     0.00010
   230    H   24  pz     Ryd( 2p)     0.00037

   231    H   25  S      Val( 1S)     0.73359
   232    H   25  S      Ryd( 2S)     0.00274
   233    H   25  px     Ryd( 2p)     0.00033
   234    H   25  py     Ryd( 2p)     0.00012
   235    H   25  pz     Ryd( 2p)     0.00007

   236    H   26  S      Val( 1S)     0.73553
   237    H   26  S      Ryd( 2S)     0.00053
   238    H   26  px     Ryd( 2p)     0.00020
   239    H   26  py     Ryd( 2p)     0.00018
   240    H   26  pz     Ryd( 2p)     0.00013

   241    H   27  S      Val( 1S)     0.75631
   242    H   27  S      Ryd( 2S)     0.00307
   243    H   27  px     Ryd( 2p)     0.00025
   244    H   27  py     Ryd( 2p)     0.00018
   245    H   27  pz     Ryd( 2p)     0.00008

   246    H   28  S      Val( 1S)     0.74727
   247    H   28  S      Ryd( 2S)     0.00063
   248    H   28  px     Ryd( 2p)     0.00011
   249    H   28  py     Ryd( 2p)     0.00008
   250    H   28  pz     Ryd( 2p)     0.00031

   251    H   29  S      Val( 1S)     0.70714
   252    H   29  S      Ryd( 2S)     0.00389
   253    H   29  px     Ryd( 2p)     0.00010
   254    H   29  py     Ryd( 2p)     0.00007
   255    H   29  pz     Ryd( 2p)     0.00037

   256    H   30  S      Val( 1S)     0.79879
   257    H   30  S      Ryd( 2S)     0.05744
   258    H   30  px     Ryd( 2p)     0.00028
   259    H   30  py     Ryd( 2p)     0.00015
   260    H   30  pz     Ryd( 2p)     0.00007

   261    H   31  S      Val( 1S)     0.75120
   262    H   31  S      Ryd( 2S)     0.00174
   263    H   31  px     Ryd( 2p)     0.00008
   264    H   31  py     Ryd( 2p)     0.00007
   265    H   31  pz     Ryd( 2p)     0.00035

   266    H   32  S      Val( 1S)     0.73935
   267    H   32  S      Ryd( 2S)     0.00126
   268    H   32  px     Ryd( 2p)     0.00008
   269    H   32  py     Ryd( 2p)     0.00033
   270    H   32  pz     Ryd( 2p)     0.00009

   271    H   33  S      Val( 1S)     0.75897
   272    H   33  S      Ryd( 2S)     0.00080
   273    H   33  px     Ryd( 2p)     0.00030
   274    H   33  py     Ryd( 2p)     0.00013
   275    H   33  pz     Ryd( 2p)     0.00010


 Summary of Natural Population Analysis:                  
                                                          
                                       Natural Population 
                Natural  -----------------------------------------------
    Atom  No    Charge         Core      Valence    Rydberg      Total
 -----------------------------------------------------------------------
      C    1   -0.68905      1.99941     4.68039    0.00925     6.68905
      C    2   -0.07149      1.99925     4.05336    0.01888     6.07149
      N    3   -0.96334      1.99966     5.94202    0.02166     7.96334
      C    4   -0.47794      1.99929     4.46668    0.01197     6.47794
      C    5   -0.49500      1.99930     4.47791    0.01779     6.49500
      C    6   -0.31176      1.99925     4.29470    0.01781     6.31176
      N    7   -0.02772      1.99929     5.01941    0.00903     7.02772
      C    8   -0.31243      1.99930     4.29883    0.01430     6.31243
      C    9   -0.70785      1.99945     4.69966    0.00874     6.70785
      C   10   -0.32426      1.99928     4.30654    0.01844     6.32426
      C   11   -0.70942      1.99945     4.70035    0.00962     6.70942
      H   12    0.22142      0.00000     0.77530    0.00327     0.77858
      H   13    0.21177      0.00000     0.78300    0.00523     0.78823
      H   14    0.23156      0.00000     0.76556    0.00289     0.76844
      H   15    0.19440      0.00000     0.79057    0.01503     0.80560
      H   16    0.16580      0.00000     0.76016    0.07404     0.83420
      H   17    0.32304      0.00000     0.65808    0.01887     0.67696
      H   18    0.21691      0.00000     0.77562    0.00747     0.78309
      H   19    0.22584      0.00000     0.76673    0.00744     0.77416
      H   20    0.13184      0.00000     0.82315    0.04501     0.86816
      H   21    0.21453      0.00000     0.77395    0.01152     0.78547
      H   22    0.22183      0.00000     0.74220    0.03597     0.77817
      H   23    0.23646      0.00000     0.75239    0.01115     0.76354
      H   24    0.29973      0.00000     0.69954    0.00073     0.70027
      H   25    0.26314      0.00000     0.73359    0.00326     0.73686
      H   26    0.26344      0.00000     0.73553    0.00104     0.73656
      H   27    0.24011      0.00000     0.75631    0.00358     0.75989
      H   28    0.25160      0.00000     0.74727    0.00113     0.74840
      H   29    0.28842      0.00000     0.70714    0.00443     0.71158
      H   30    0.14327      0.00000     0.79879    0.05794     0.85673
      H   31    0.24655      0.00000     0.75120    0.00225     0.75345
      H   32    0.25889      0.00000     0.73935    0.00177     0.74111
      H   33    0.23970      0.00000     0.75897    0.00133     0.76030
 =======================================================================
   * Total *   -0.00000     21.99293    67.53426    0.47281    90.00000

                                 Natural Population      
 --------------------------------------------------------
   Core                      21.99293 ( 99.9678% of  22)
   Valence                   67.53426 ( 99.3151% of  68)
   Natural Minimal Basis     89.52719 ( 99.4747% of  90)
   Natural Rydberg Basis      0.47281 (  0.5253% of  90)
 --------------------------------------------------------

    Atom  No          Natural Electron Configuration
 ----------------------------------------------------------------------------
      C    1      [core]2S( 1.10)2p( 3.58)3p( 0.01)
      C    2      [core]2S( 0.95)2p( 3.10)3p( 0.01)3d( 0.01)
      N    3      [core]2S( 1.47)2p( 4.48)3S( 0.01)3p( 0.01)
      C    4      [core]2S( 1.04)2p( 3.43)3p( 0.01)
      C    5      [core]2S( 1.05)2p( 3.43)3p( 0.01)
      C    6      [core]2S( 1.05)2p( 3.25)3p( 0.01)
      N    7      [core]2S( 1.29)2p( 3.73)
      C    8      [core]2S( 1.04)2p( 3.25)3p( 0.01)
      C    9      [core]2S( 1.11)2p( 3.59)3p( 0.01)
      C   10      [core]2S( 1.05)2p( 3.25)3p( 0.01)
      C   11      [core]2S( 1.11)2p( 3.59)3p( 0.01)
      H   12            1S( 0.78)
      H   13            1S( 0.78)
      H   14            1S( 0.77)
      H   15            1S( 0.79)2S( 0.01)
      H   16            1S( 0.76)2S( 0.07)
      H   17            1S( 0.66)2S( 0.02)
      H   18            1S( 0.78)2S( 0.01)
      H   19            1S( 0.77)2S( 0.01)
      H   20            1S( 0.82)2S( 0.04)
      H   21            1S( 0.77)2S( 0.01)
      H   22            1S( 0.74)2S( 0.04)
      H   23            1S( 0.75)2S( 0.01)
      H   24            1S( 0.70)
      H   25            1S( 0.73)
      H   26            1S( 0.74)
      H   27            1S( 0.76)
      H   28            1S( 0.75)
      H   29            1S( 0.71)
      H   30            1S( 0.80)2S( 0.06)
      H   31            1S( 0.75)
      H   32            1S( 0.74)
      H   33            1S( 0.76)


 NBO analysis skipped by request.
 1\1\GINC-CN34\SP\RB3LYP TD-FC\6-31G(d,p)\C9H22N2\QDUEZ\11-Jul-2024\0\\
 # TD(NStates=10, Root=1) B3LYP/6-31G** SCRF=(Solvent=water) volume pop
 =NPA density=current Geom=AllCheck Guess=Read\\CAPCBAYULRXQAN-VIFPVBQE
 SA-N_conf_4\\0,1\C,0,3.8949296066,1.8964852273,-0.4393184409\C,0,2.744
 2923279,0.8880346641,-0.5145761028\N,0,3.2861274426,-0.416745042,-0.93
 974364\C,0,1.9622867677,0.8599495165,0.8191789151\C,0,0.7441018334,-0.
 0763225762,0.8714736213\C,0,-0.4237546154,0.3668092412,-0.0198226444\N
 ,0,-1.611118472,-0.4916287543,0.1208576972\C,0,-2.8459366003,0.2335225
 2,-0.2186857856\C,0,-3.3302541661,1.1540149688,0.9025857712\C,0,-1.479
 370459,-1.7287320644,-0.6656715618\C,0,-2.3415271435,-2.874420015,-0.1
 333066309\H,0,4.6121985241,1.6071221706,0.3391119601\H,0,3.5270030388,
 2.8984037889,-0.1964402136\H,0,4.4316799187,1.9440922386,-1.3912027177
 \H,0,2.0639245854,1.2121823743,-1.3133613324\H,0,2.5249660639,-1.08331
 32453,-1.0544419902\H,0,3.8618736788,-0.7937193264,-0.1858600047\H,0,1
 .6384994372,1.8828015644,1.0583889717\H,0,2.6642072119,0.5689077931,1.
 6137576393\H,0,1.0570173,-1.0963583134,0.6145847422\H,0,0.37562129,-0.
 127917092,1.9027963346\H,0,-0.1078492473,0.429403669,-1.0779403848\H,0
 ,-0.7015275855,1.3847613835,0.2725428128\H,0,-2.7249741973,0.809580693
 8,-1.1559484755\H,0,-3.6278278074,-0.5055514041,-0.4167988166\H,0,-4.2
 618276335,1.6498091681,0.6099460695\H,0,-2.6029518151,1.9367983051,1.1
 400969005\H,0,-3.5166354819,0.579819098,1.8154599956\H,0,-1.7070657981
 ,-1.548298279,-1.7336932931\H,0,-0.4320109314,-2.0427092201,-0.6286212
 683\H,0,-2.0774799533,-3.1014497068,0.9042422168\H,0,-2.1866021806,-3.
 7762862043,-0.7348680369\H,0,-3.4100149392,-2.6390471418,-0.1647223077
 \\Version=EM64L-G16RevA.03\State=1-A\HF=-465.7376364\RMSD=4.872e-09\Di
 pole=-5.1378839,0.4234403,0.6531502\Quadrupole=-0.4908761,1.6401263,-1
 .1492502,2.6133752,8.3720723,-0.7202995\PG=C01 [X(C9H22N2)]\\@


 THE WORLD IS MADE UP OF THE WILLS, THE WON'TS, AND THE CANT'S:
 THE WILLS DO EVERYTHING,
 THE WON'TS DO NOTHING,
 THE CAN'TS CAN'T DO ANYTHING.

                               -- FROM WALT DISNEY'S "BLACK HOLE"
 Job cpu time:       0 days  2 hours  3 minutes  0.8 seconds.
 Elapsed time:       0 days  0 hours 39 minutes 10.8 seconds.
 File lengths (MBytes):  RWF=    640 Int=      0 D2E=      0 Chk=     41 Scr=      1
 Normal termination of Gaussian 16 at Thu Jul 11 19:11:15 2024.
