 Entering Gaussian System, Link 0=g16
 Initial command:
 /opt/sw/arch/manual/gaussian/G16_A03/g16/l1.exe "/scratch/1032036.jesse.materianova.be/Gau-17288.inp" -scrdir="/scratch/1032036.jesse.materianova.be/"
 Entering Link 1 = /opt/sw/arch/manual/gaussian/G16_A03/g16/l1.exe PID=     17290.
  
 Copyright (c) 1988,1990,1992,1993,1995,1998,2003,2009,2016,
            Gaussian, Inc.  All Rights Reserved.
  
 This is part of the Gaussian(R) 16 program.  It is based on
 the Gaussian(R) 09 system (copyright 2009, Gaussian, Inc.),
 the Gaussian(R) 03 system (copyright 2003, Gaussian, Inc.),
 the Gaussian(R) 98 system (copyright 1998, Gaussian, Inc.),
 the Gaussian(R) 94 system (copyright 1995, Gaussian, Inc.),
 the Gaussian 92(TM) system (copyright 1992, Gaussian, Inc.),
 the Gaussian 90(TM) system (copyright 1990, Gaussian, Inc.),
 the Gaussian 88(TM) system (copyright 1988, Gaussian, Inc.),
 the Gaussian 86(TM) system (copyright 1986, Carnegie Mellon
 University), and the Gaussian 82(TM) system (copyright 1983,
 Carnegie Mellon University). Gaussian is a federally registered
 trademark of Gaussian, Inc.
  
 This software contains proprietary and confidential information,
 including trade secrets, belonging to Gaussian, Inc.
  
 This software is provided under written license and may be
 used, copied, transmitted, or stored only in accord with that
 written license.
  
 The following legend is applicable only to US Government
 contracts under FAR:
  
                    RESTRICTED RIGHTS LEGEND
  
 Use, reproduction and disclosure by the US Government is
 subject to restrictions as set forth in subparagraphs (a)
 and (c) of the Commercial Computer Software - Restricted
 Rights clause in FAR 52.227-19.
  
 Gaussian, Inc.
 340 Quinnipiac St., Bldg. 40, Wallingford CT 06492
  
  
 ---------------------------------------------------------------
 Warning -- This program may not be used in any manner that
 competes with the business of Gaussian, Inc. or will provide
 assistance to any competitor of Gaussian, Inc.  The licensee
 of this program is prohibited from giving any competitor of
 Gaussian, Inc. access to this program.  By using this program,
 the user acknowledges that Gaussian, Inc. is engaged in the
 business of creating and licensing software in the field of
 computational chemistry and represents and warrants to the
 licensee that it is not a competitor of Gaussian, Inc. and that
 it will not use this program in any manner prohibited above.
 ---------------------------------------------------------------
  

 Cite this work as:
 Gaussian 16, Revision A.03,
 M. J. Frisch, G. W. Trucks, H. B. Schlegel, G. E. Scuseria, 
 M. A. Robb, J. R. Cheeseman, G. Scalmani, V. Barone, 
 G. A. Petersson, H. Nakatsuji, X. Li, M. Caricato, A. V. Marenich, 
 J. Bloino, B. G. Janesko, R. Gomperts, B. Mennucci, H. P. Hratchian, 
 J. V. Ortiz, A. F. Izmaylov, J. L. Sonnenberg, D. Williams-Young, 
 F. Ding, F. Lipparini, F. Egidi, J. Goings, B. Peng, A. Petrone, 
 T. Henderson, D. Ranasinghe, V. G. Zakrzewski, J. Gao, N. Rega, 
 G. Zheng, W. Liang, M. Hada, M. Ehara, K. Toyota, R. Fukuda, 
 J. Hasegawa, M. Ishida, T. Nakajima, Y. Honda, O. Kitao, H. Nakai, 
 T. Vreven, K. Throssell, J. A. Montgomery, Jr., J. E. Peralta, 
 F. Ogliaro, M. J. Bearpark, J. J. Heyd, E. N. Brothers, K. N. Kudin, 
 V. N. Staroverov, T. A. Keith, R. Kobayashi, J. Normand, 
 K. Raghavachari, A. P. Rendell, J. C. Burant, S. S. Iyengar, 
 J. Tomasi, M. Cossi, J. M. Millam, M. Klene, C. Adamo, R. Cammi, 
 J. W. Ochterski, R. L. Martin, K. Morokuma, O. Farkas, 
 J. B. Foresman, and D. J. Fox, Gaussian, Inc., Wallingford CT, 2016.
 
 ******************************************
 Gaussian 16:  EM64L-G16RevA.03 25-Dec-2016
                11-Jul-2024 
 ******************************************
 %nprocshared=5
 Will use up to    5 processors via shared memory.
 %mem=10GB
 %Chk=CAPCBAYULRXQAN-VIFPVBQESA-N_conf_1_0.chk
 -------------------------------------------------------
 # opt=CalcFc B3LYP/6-31G** SCRF=(Solvent=water) scf=xqc
 -------------------------------------------------------
 1/10=4,18=20,19=15,26=3,38=1/1,3;
 2/9=110,12=2,17=6,18=5,40=1/2;
 3/5=1,6=6,7=101,11=2,25=1,30=1,70=2201,71=2,72=1,74=-5,140=1/1,2,3;
 4//1;
 5/5=2,8=3,13=1,38=5,53=1/2,8;
 8/6=4,10=90,11=11/1;
 11/6=1,8=1,9=11,15=111,16=1/1,2,10;
 10/6=1,13=1/2;
 6/7=2,8=2,9=2,10=2,28=1/1;
 7/10=1,18=20,25=1/1,2,3,16;
 1/10=4,18=20,19=15,26=3/3(2);
 2/9=110/2;
 99//99;
 2/9=110/2;
 3/5=1,6=6,7=101,11=2,25=1,30=1,70=2205,71=1,72=1,74=-5/1,2,3;
 4/5=5,16=3,69=1/1;
 5/5=2,8=3,13=1,38=5,53=1/2,8;
 7//1,2,3,16;
 1/18=20,19=15,26=3/3(-5);
 2/9=110/2;
 6/7=2,8=2,9=2,10=2,19=2,28=1/1;
 99/9=1/99;
 ----------------------------------
 CAPCBAYULRXQAN-VIFPVBQESA-N_conf_1
 ----------------------------------
 Symbolic Z-matrix:
 Charge =  0 Multiplicity = 1
 C                     3.37776   1.15061   0.24099 
 C                     2.46313   0.29353  -0.63139 
 N                     3.25741  -0.24099  -1.74398 
 C                     1.81879  -0.86918   0.14364 
 C                     0.9313   -0.46076   1.32878 
 C                    -0.21842   0.4986    0.98427 
 N                    -1.09277   0.04793  -0.11205 
 C                    -1.96789   1.1519   -0.54304 
 C                    -2.77706   0.84677  -1.79951 
 C                    -1.8092   -1.20504   0.17704 
 C                    -2.83001  -1.16215   1.31053 
 H                     4.15361   0.54712   0.72534 
 H                     2.81112   1.6652    1.02317 
 H                     3.87573   1.92382  -0.35541 
 H                     1.68639   0.93362  -1.06268 
 H                     2.64999  -0.79471  -2.34813 
 H                     3.96004  -0.88645  -1.38572 
 H                     2.60529  -1.53265   0.52838 
 H                     1.22533  -1.4795   -0.54936 
 H                     1.55251   0.00789   2.10176 
 H                     0.53025  -1.3693    1.79394 
 H                     0.23515   1.45989   0.71114 
 H                    -0.80103   0.69855   1.89191 
 H                    -2.64278   1.465     0.26245 
 H                    -1.34273   2.02227  -0.78112 
 H                    -3.55546   0.10096  -1.6129 
 H                    -2.1319    0.48591  -2.60735 
 H                    -3.27511   1.75667  -2.1509 
 H                    -2.31159  -1.55302  -0.73314 
 H                    -1.08666  -2.00071   0.39125 
 H                    -3.63118  -0.4448    1.11063 
 H                    -3.29508  -2.14738   1.42371 
 H                    -2.36496  -0.90957   2.26774 
 

 GradGradGradGradGradGradGradGradGradGradGradGradGradGradGradGradGradGrad
 Berny optimization.
 Initialization pass.
                           ----------------------------
                           !    Initial Parameters    !
                           ! (Angstroms and Degrees)  !
 --------------------------                            --------------------------
 ! Name  Definition              Value          Derivative Info.                !
 --------------------------------------------------------------------------------
 ! R1    R(1,2)                  1.5272         calculate D2E/DX2 analytically  !
 ! R2    R(1,12)                 1.0958         calculate D2E/DX2 analytically  !
 ! R3    R(1,13)                 1.0944         calculate D2E/DX2 analytically  !
 ! R4    R(1,14)                 1.0961         calculate D2E/DX2 analytically  !
 ! R5    R(2,3)                  1.4678         calculate D2E/DX2 analytically  !
 ! R6    R(2,4)                  1.5387         calculate D2E/DX2 analytically  !
 ! R7    R(2,15)                 1.095          calculate D2E/DX2 analytically  !
 ! R8    R(3,16)                 1.0201         calculate D2E/DX2 analytically  !
 ! R9    R(3,17)                 1.0191         calculate D2E/DX2 analytically  !
 ! R10   R(4,5)                  1.5359         calculate D2E/DX2 analytically  !
 ! R11   R(4,18)                 1.0985         calculate D2E/DX2 analytically  !
 ! R12   R(4,19)                 1.0977         calculate D2E/DX2 analytically  !
 ! R13   R(5,6)                  1.5365         calculate D2E/DX2 analytically  !
 ! R14   R(5,20)                 1.0968         calculate D2E/DX2 analytically  !
 ! R15   R(5,21)                 1.0967         calculate D2E/DX2 analytically  !
 ! R16   R(6,7)                  1.4729         calculate D2E/DX2 analytically  !
 ! R17   R(6,22)                 1.0975         calculate D2E/DX2 analytically  !
 ! R18   R(6,23)                 1.0969         calculate D2E/DX2 analytically  !
 ! R19   R(7,8)                  1.4732         calculate D2E/DX2 analytically  !
 ! R20   R(7,10)                 1.472          calculate D2E/DX2 analytically  !
 ! R21   R(8,9)                  1.5253         calculate D2E/DX2 analytically  !
 ! R22   R(8,24)                 1.0965         calculate D2E/DX2 analytically  !
 ! R23   R(8,25)                 1.0977         calculate D2E/DX2 analytically  !
 ! R24   R(9,26)                 1.0941         calculate D2E/DX2 analytically  !
 ! R25   R(9,27)                 1.095          calculate D2E/DX2 analytically  !
 ! R26   R(9,28)                 1.0952         calculate D2E/DX2 analytically  !
 ! R27   R(10,11)                1.526          calculate D2E/DX2 analytically  !
 ! R28   R(10,29)                1.0963         calculate D2E/DX2 analytically  !
 ! R29   R(10,30)                1.0959         calculate D2E/DX2 analytically  !
 ! R30   R(11,31)                1.0938         calculate D2E/DX2 analytically  !
 ! R31   R(11,32)                1.0953         calculate D2E/DX2 analytically  !
 ! R32   R(11,33)                1.0938         calculate D2E/DX2 analytically  !
 ! A1    A(2,1,12)             111.5588         calculate D2E/DX2 analytically  !
 ! A2    A(2,1,13)             111.2276         calculate D2E/DX2 analytically  !
 ! A3    A(2,1,14)             110.9256         calculate D2E/DX2 analytically  !
 ! A4    A(12,1,13)            108.038          calculate D2E/DX2 analytically  !
 ! A5    A(12,1,14)            107.8987         calculate D2E/DX2 analytically  !
 ! A6    A(13,1,14)            107.0023         calculate D2E/DX2 analytically  !
 ! A7    A(1,2,3)              108.2575         calculate D2E/DX2 analytically  !
 ! A8    A(1,2,4)              112.777          calculate D2E/DX2 analytically  !
 ! A9    A(1,2,15)             108.7694         calculate D2E/DX2 analytically  !
 ! A10   A(3,2,4)              109.4639         calculate D2E/DX2 analytically  !
 ! A11   A(3,2,15)             107.3479         calculate D2E/DX2 analytically  !
 ! A12   A(4,2,15)             110.063          calculate D2E/DX2 analytically  !
 ! A13   A(2,3,16)             108.9274         calculate D2E/DX2 analytically  !
 ! A14   A(2,3,17)             109.7094         calculate D2E/DX2 analytically  !
 ! A15   A(16,3,17)            105.9585         calculate D2E/DX2 analytically  !
 ! A16   A(2,4,5)              115.4469         calculate D2E/DX2 analytically  !
 ! A17   A(2,4,18)             109.449          calculate D2E/DX2 analytically  !
 ! A18   A(2,4,19)             109.1796         calculate D2E/DX2 analytically  !
 ! A19   A(5,4,18)             107.7008         calculate D2E/DX2 analytically  !
 ! A20   A(5,4,19)             108.8201         calculate D2E/DX2 analytically  !
 ! A21   A(18,4,19)            105.8062         calculate D2E/DX2 analytically  !
 ! A22   A(4,5,6)              115.175          calculate D2E/DX2 analytically  !
 ! A23   A(4,5,20)             109.2781         calculate D2E/DX2 analytically  !
 ! A24   A(4,5,21)             108.5601         calculate D2E/DX2 analytically  !
 ! A25   A(6,5,20)             108.3622         calculate D2E/DX2 analytically  !
 ! A26   A(6,5,21)             109.7995         calculate D2E/DX2 analytically  !
 ! A27   A(20,5,21)            105.1999         calculate D2E/DX2 analytically  !
 ! A28   A(5,6,7)              114.8359         calculate D2E/DX2 analytically  !
 ! A29   A(5,6,22)             107.0651         calculate D2E/DX2 analytically  !
 ! A30   A(5,6,23)             109.0088         calculate D2E/DX2 analytically  !
 ! A31   A(7,6,22)             109.1538         calculate D2E/DX2 analytically  !
 ! A32   A(7,6,23)             110.877          calculate D2E/DX2 analytically  !
 ! A33   A(22,6,23)            105.4133         calculate D2E/DX2 analytically  !
 ! A34   A(6,7,8)              109.9429         calculate D2E/DX2 analytically  !
 ! A35   A(6,7,10)             113.7776         calculate D2E/DX2 analytically  !
 ! A36   A(8,7,10)             113.9663         calculate D2E/DX2 analytically  !
 ! A37   A(7,8,9)              113.9668         calculate D2E/DX2 analytically  !
 ! A38   A(7,8,24)             111.3883         calculate D2E/DX2 analytically  !
 ! A39   A(7,8,25)             108.6207         calculate D2E/DX2 analytically  !
 ! A40   A(9,8,24)             109.6166         calculate D2E/DX2 analytically  !
 ! A41   A(9,8,25)             106.3837         calculate D2E/DX2 analytically  !
 ! A42   A(24,8,25)            106.4661         calculate D2E/DX2 analytically  !
 ! A43   A(8,9,26)             111.9192         calculate D2E/DX2 analytically  !
 ! A44   A(8,9,27)             111.1665         calculate D2E/DX2 analytically  !
 ! A45   A(8,9,28)             109.8366         calculate D2E/DX2 analytically  !
 ! A46   A(26,9,27)            108.6855         calculate D2E/DX2 analytically  !
 ! A47   A(26,9,28)            107.3099         calculate D2E/DX2 analytically  !
 ! A48   A(27,9,28)            107.7598         calculate D2E/DX2 analytically  !
 ! A49   A(7,10,11)            116.5854         calculate D2E/DX2 analytically  !
 ! A50   A(7,10,29)            109.2791         calculate D2E/DX2 analytically  !
 ! A51   A(7,10,30)            109.6024         calculate D2E/DX2 analytically  !
 ! A52   A(11,10,29)           108.6054         calculate D2E/DX2 analytically  !
 ! A53   A(11,10,30)           108.4368         calculate D2E/DX2 analytically  !
 ! A54   A(29,10,30)           103.5297         calculate D2E/DX2 analytically  !
 ! A55   A(10,11,31)           111.8792         calculate D2E/DX2 analytically  !
 ! A56   A(10,11,32)           109.6028         calculate D2E/DX2 analytically  !
 ! A57   A(10,11,33)           111.8466         calculate D2E/DX2 analytically  !
 ! A58   A(31,11,32)           107.3245         calculate D2E/DX2 analytically  !
 ! A59   A(31,11,33)           108.6576         calculate D2E/DX2 analytically  !
 ! A60   A(32,11,33)           107.3267         calculate D2E/DX2 analytically  !
 ! D1    D(12,1,2,3)           -65.6775         calculate D2E/DX2 analytically  !
 ! D2    D(12,1,2,4)            55.5925         calculate D2E/DX2 analytically  !
 ! D3    D(12,1,2,15)          177.9809         calculate D2E/DX2 analytically  !
 ! D4    D(13,1,2,3)           173.616          calculate D2E/DX2 analytically  !
 ! D5    D(13,1,2,4)           -65.114          calculate D2E/DX2 analytically  !
 ! D6    D(13,1,2,15)           57.2744         calculate D2E/DX2 analytically  !
 ! D7    D(14,1,2,3)            54.6447         calculate D2E/DX2 analytically  !
 ! D8    D(14,1,2,4)           175.9147         calculate D2E/DX2 analytically  !
 ! D9    D(14,1,2,15)          -61.6969         calculate D2E/DX2 analytically  !
 ! D10   D(1,2,3,16)          -178.4524         calculate D2E/DX2 analytically  !
 ! D11   D(1,2,3,17)            65.9793         calculate D2E/DX2 analytically  !
 ! D12   D(4,2,3,16)            58.2515         calculate D2E/DX2 analytically  !
 ! D13   D(4,2,3,17)           -57.3169         calculate D2E/DX2 analytically  !
 ! D14   D(15,2,3,16)          -61.1933         calculate D2E/DX2 analytically  !
 ! D15   D(15,2,3,17)         -176.7616         calculate D2E/DX2 analytically  !
 ! D16   D(1,2,4,5)             60.4737         calculate D2E/DX2 analytically  !
 ! D17   D(1,2,4,18)           -61.2025         calculate D2E/DX2 analytically  !
 ! D18   D(1,2,4,19)          -176.5858         calculate D2E/DX2 analytically  !
 ! D19   D(3,2,4,5)           -178.9442         calculate D2E/DX2 analytically  !
 ! D20   D(3,2,4,18)            59.3796         calculate D2E/DX2 analytically  !
 ! D21   D(3,2,4,19)           -56.0037         calculate D2E/DX2 analytically  !
 ! D22   D(15,2,4,5)           -61.1857         calculate D2E/DX2 analytically  !
 ! D23   D(15,2,4,18)          177.1382         calculate D2E/DX2 analytically  !
 ! D24   D(15,2,4,19)           61.7549         calculate D2E/DX2 analytically  !
 ! D25   D(2,4,5,6)             56.2373         calculate D2E/DX2 analytically  !
 ! D26   D(2,4,5,20)           -65.9823         calculate D2E/DX2 analytically  !
 ! D27   D(2,4,5,21)           179.7853         calculate D2E/DX2 analytically  !
 ! D28   D(18,4,5,6)           178.8484         calculate D2E/DX2 analytically  !
 ! D29   D(18,4,5,20)           56.6288         calculate D2E/DX2 analytically  !
 ! D30   D(18,4,5,21)          -57.6036         calculate D2E/DX2 analytically  !
 ! D31   D(19,4,5,6)           -66.8936         calculate D2E/DX2 analytically  !
 ! D32   D(19,4,5,20)          170.8868         calculate D2E/DX2 analytically  !
 ! D33   D(19,4,5,21)           56.6544         calculate D2E/DX2 analytically  !
 ! D34   D(4,5,6,7)             53.2544         calculate D2E/DX2 analytically  !
 ! D35   D(4,5,6,22)           -68.0958         calculate D2E/DX2 analytically  !
 ! D36   D(4,5,6,23)           178.3381         calculate D2E/DX2 analytically  !
 ! D37   D(20,5,6,7)           175.9647         calculate D2E/DX2 analytically  !
 ! D38   D(20,5,6,22)           54.6145         calculate D2E/DX2 analytically  !
 ! D39   D(20,5,6,23)          -58.9516         calculate D2E/DX2 analytically  !
 ! D40   D(21,5,6,7)           -69.6352         calculate D2E/DX2 analytically  !
 ! D41   D(21,5,6,22)          169.0146         calculate D2E/DX2 analytically  !
 ! D42   D(21,5,6,23)           55.4484         calculate D2E/DX2 analytically  !
 ! D43   D(5,6,7,8)           -168.0794         calculate D2E/DX2 analytically  !
 ! D44   D(5,6,7,10)            62.7187         calculate D2E/DX2 analytically  !
 ! D45   D(22,6,7,8)           -47.8762         calculate D2E/DX2 analytically  !
 ! D46   D(22,6,7,10)         -177.0782         calculate D2E/DX2 analytically  !
 ! D47   D(23,6,7,8)            67.8199         calculate D2E/DX2 analytically  !
 ! D48   D(23,6,7,10)          -61.382          calculate D2E/DX2 analytically  !
 ! D49   D(6,7,8,9)            172.0325         calculate D2E/DX2 analytically  !
 ! D50   D(6,7,8,24)           -63.3091         calculate D2E/DX2 analytically  !
 ! D51   D(6,7,8,25)            53.6396         calculate D2E/DX2 analytically  !
 ! D52   D(10,7,8,9)           -58.8682         calculate D2E/DX2 analytically  !
 ! D53   D(10,7,8,24)           65.7902         calculate D2E/DX2 analytically  !
 ! D54   D(10,7,8,25)         -177.261          calculate D2E/DX2 analytically  !
 ! D55   D(6,7,10,11)           65.0804         calculate D2E/DX2 analytically  !
 ! D56   D(6,7,10,29)         -171.3455         calculate D2E/DX2 analytically  !
 ! D57   D(6,7,10,30)          -58.5361         calculate D2E/DX2 analytically  !
 ! D58   D(8,7,10,11)          -62.0577         calculate D2E/DX2 analytically  !
 ! D59   D(8,7,10,29)           61.5164         calculate D2E/DX2 analytically  !
 ! D60   D(8,7,10,30)          174.3258         calculate D2E/DX2 analytically  !
 ! D61   D(7,8,9,26)            70.0141         calculate D2E/DX2 analytically  !
 ! D62   D(7,8,9,27)           -51.73           calculate D2E/DX2 analytically  !
 ! D63   D(7,8,9,28)          -170.9004         calculate D2E/DX2 analytically  !
 ! D64   D(24,8,9,26)          -55.5859         calculate D2E/DX2 analytically  !
 ! D65   D(24,8,9,27)         -177.33           calculate D2E/DX2 analytically  !
 ! D66   D(24,8,9,28)           63.4995         calculate D2E/DX2 analytically  !
 ! D67   D(25,8,9,26)         -170.3219         calculate D2E/DX2 analytically  !
 ! D68   D(25,8,9,27)           67.9341         calculate D2E/DX2 analytically  !
 ! D69   D(25,8,9,28)          -51.2364         calculate D2E/DX2 analytically  !
 ! D70   D(7,10,11,31)          60.8348         calculate D2E/DX2 analytically  !
 ! D71   D(7,10,11,32)         179.7593         calculate D2E/DX2 analytically  !
 ! D72   D(7,10,11,33)         -61.334          calculate D2E/DX2 analytically  !
 ! D73   D(29,10,11,31)        -63.0853         calculate D2E/DX2 analytically  !
 ! D74   D(29,10,11,32)         55.8392         calculate D2E/DX2 analytically  !
 ! D75   D(29,10,11,33)        174.7459         calculate D2E/DX2 analytically  !
 ! D76   D(30,10,11,31)       -174.951          calculate D2E/DX2 analytically  !
 ! D77   D(30,10,11,32)        -56.0265         calculate D2E/DX2 analytically  !
 ! D78   D(30,10,11,33)         62.8802         calculate D2E/DX2 analytically  !
 --------------------------------------------------------------------------------
 Trust Radius=3.00D-01 FncErr=1.00D-07 GrdErr=1.00D-06 EigMax=2.50D+02 EigMin=1.00D-04
 Number of steps in this run=    180 maximum allowed number of steps=    198.
 GradGradGradGradGradGradGradGradGradGradGradGradGradGradGradGradGradGrad

                          Input orientation:                          
 ---------------------------------------------------------------------
 Center     Atomic      Atomic             Coordinates (Angstroms)
 Number     Number       Type             X           Y           Z
 ---------------------------------------------------------------------
      1          6           0        3.377764    1.150612    0.240993
      2          6           0        2.463130    0.293526   -0.631390
      3          7           0        3.257415   -0.240991   -1.743984
      4          6           0        1.818794   -0.869185    0.143637
      5          6           0        0.931304   -0.460759    1.328785
      6          6           0       -0.218419    0.498604    0.984273
      7          7           0       -1.092767    0.047927   -0.112046
      8          6           0       -1.967890    1.151903   -0.543038
      9          6           0       -2.777062    0.846768   -1.799510
     10          6           0       -1.809205   -1.205044    0.177041
     11          6           0       -2.830005   -1.162155    1.310529
     12          1           0        4.153615    0.547119    0.725345
     13          1           0        2.811123    1.665200    1.023167
     14          1           0        3.875726    1.923818   -0.355408
     15          1           0        1.686393    0.933620   -1.062678
     16          1           0        2.649990   -0.794711   -2.348128
     17          1           0        3.960037   -0.886449   -1.385723
     18          1           0        2.605290   -1.532655    0.528380
     19          1           0        1.225335   -1.479497   -0.549363
     20          1           0        1.552511    0.007891    2.101761
     21          1           0        0.530252   -1.369302    1.793941
     22          1           0        0.235146    1.459894    0.711144
     23          1           0       -0.801026    0.698549    1.891905
     24          1           0       -2.642782    1.464999    0.262449
     25          1           0       -1.342725    2.022270   -0.781121
     26          1           0       -3.555455    0.100956   -1.612897
     27          1           0       -2.131898    0.485908   -2.607350
     28          1           0       -3.275111    1.756672   -2.150896
     29          1           0       -2.311593   -1.553025   -0.733135
     30          1           0       -1.086662   -2.000710    0.391245
     31          1           0       -3.631177   -0.444801    1.110626
     32          1           0       -3.295084   -2.147385    1.423709
     33          1           0       -2.364962   -0.909568    2.267736
 ---------------------------------------------------------------------
                    Distance matrix (angstroms):
                    1          2          3          4          5
     1  C    0.000000
     2  C    1.527156   0.000000
     3  N    2.427175   1.467808   0.000000
     4  C    2.553321   1.538744   2.455070   0.000000
     5  C    3.124896   2.599562   3.860181   1.535912   0.000000
     6  C    3.729626   3.137376   4.480157   2.593791   1.536531
     7  N    4.618030   3.602005   4.655188   3.063275   2.536063
     8  C    5.402844   4.514262   5.539516   4.346871   3.809163
     9  C    6.491367   5.397239   6.131983   5.276571   5.024722
    10  C    5.697179   4.599143   5.503669   3.643664   3.064451
    11  C    6.710380   5.823001   6.872792   4.801958   3.826191
    12  H    1.095785   2.182379   2.742604   2.792076   3.429759
    13  H    1.094385   2.177188   3.389671   2.860314   2.854264
    14  H    1.096133   2.174729   2.645156   3.504409   4.146364
    15  H    2.146481   1.095011   2.076535   2.173207   2.869416
    16  H    3.319260   2.041168   1.020079   2.627799   4.072480
    17  H    2.671117   2.049900   1.019139   2.631380   4.089375
    18  H    2.806997   2.167997   2.693938   1.098543   2.142857
    19  H    3.489282   2.163903   2.662774   1.097690   2.156784
    20  H    2.846018   2.894984   4.214071   2.162041   1.096825
    21  H    4.107303   3.518983   4.607321   2.152663   1.096659
    22  H    3.192607   2.850741   4.249091   2.873084   2.134250
    23  H    4.515768   4.145574   5.529319   3.518194   2.159182
    24  H    6.028787   5.314286   6.461308   5.036684   4.197583
    25  H    4.907904   4.182764   5.216392   4.383023   3.973455
    26  H    7.253152   6.101132   6.822706   5.736648   5.394444
    27  H    6.237889   5.005568   5.506221   5.001217   5.076666
    28  H    7.095716   6.113682   6.843254   6.173157   5.892292
    29  H    6.373960   5.120360   5.810086   4.277436   3.995114
    30  H    5.466672   4.348600   5.150419   3.127832   2.706033
    31  H    7.240639   6.381248   7.459426   5.551337   4.567721
    32  H    7.536743   6.583199   7.523553   5.424401   4.551491
    33  H    6.428914   5.758719   6.939165   4.692253   3.456650
                    6          7          8          9         10
     6  C    0.000000
     7  N    1.472926   0.000000
     8  C    2.412494   1.473213   0.000000
     9  C    3.797014   2.514464   1.525315   0.000000
    10  C    2.466706   1.472002   2.469593   3.008893   0.000000
    11  C    3.112064   2.550689   3.087687   3.702825   1.525998
    12  H    4.379963   5.336191   6.280715   7.382341   6.239065
    13  H    3.246626   4.375458   5.055238   6.313885   5.504694
    14  H    4.537401   5.316401   5.897365   6.892391   6.510892
    15  H    2.829763   3.067880   3.697494   4.524698   4.281354
    16  H    4.583158   4.440533   5.326582   5.696344   5.140941
    17  H    4.999475   5.293972   6.324976   6.968770   5.985640
    18  H    3.508160   4.072347   5.410061   6.328541   4.440555
    19  H    2.889524   2.810314   4.137752   4.795159   3.132318
    20  H    2.150761   3.449643   4.549390   5.888024   4.059174
    21  H    2.169134   2.876719   4.249548   5.363038   2.848579
    22  H    1.097451   2.105860   2.553664   3.968967   3.400960
    23  H    1.096907   2.127027   2.737891   4.189657   2.753334
    24  H    2.707856   2.133281   1.096502   2.156829   2.798442
    25  H    2.588868   2.099565   1.097750   2.115713   3.398711
    26  H    4.247262   2.884476   2.183908   1.094056   2.821153
    27  H    4.069560   2.738278   2.175278   1.095017   3.273574
    28  H    4.555808   3.440835   2.158653   1.095194   4.042269
    29  H    3.397065   2.105786   2.733295   2.666988   1.096315
    30  H    2.711475   2.109562   3.404176   3.970515   1.095918
    31  H    3.543006   2.860285   2.837356   3.296446   2.183834
    32  H    4.081694   3.468160   4.063845   4.429722   2.156391
    33  H    2.870169   2.863326   3.508244   4.449385   2.183387
                   11         12         13         14         15
    11  C    0.000000
    12  H    7.213529   0.000000
    13  H    6.316553   1.772312   0.000000
    14  H    7.567391   1.772159   1.760890   0.000000
    15  H    5.515636   3.071415   2.480116   2.504776   0.000000
    16  H    6.599329   3.675273   4.176453   3.586608   2.359666
    17  H    7.310982   2.559140   3.692380   2.994371   2.930267
    18  H    5.503768   2.600301   3.242446   3.787122   3.075443
    19  H    4.472772   3.782443   3.857032   4.317956   2.509820
    20  H    4.604509   2.991827   2.343959   3.886617   3.299784
    21  H    3.401166   4.235955   3.873585   5.162997   3.847127
    22  H    4.077935   4.023401   2.602914   3.821856   2.351495
    23  H    2.813711   5.092373   3.838846   5.331390   3.869377
    24  H    2.834689   6.873702   5.510340   6.563780   4.558518
    25  H    4.089935   5.886872   4.542841   5.236713   3.231098
    26  H    3.266213   8.068221   7.066046   7.754132   5.336014
    27  H    4.307348   7.114652   6.245385   6.574981   4.143163
    28  H    4.549630   8.057403   6.864786   7.374699   5.145693
    29  H    2.144317   6.952459   6.299507   7.107323   4.719735
    30  H    2.141846   5.836399   5.388038   6.370613   4.291156
    31  H    1.093816   7.857183   6.779600   8.007072   5.907610
    32  H    1.095348   7.951803   7.209854   8.435667   6.363162
    33  H    1.093759   6.855126   5.913564   7.338607   5.559000
                   16         17         18         19         20
    16  H    0.000000
    17  H    1.628147   0.000000
    18  H    2.969994   2.432429   0.000000
    19  H    2.394605   2.920582   1.751752   0.000000
    20  H    4.652972   4.331117   2.440728   3.057422   0.000000
    21  H    4.688303   4.701790   2.436003   2.446703   1.742534
    22  H    4.502650   4.876165   3.821823   3.348039   2.403659
    23  H    5.667206   5.993563   4.294236   3.848352   2.461744
    24  H    6.319402   7.200208   6.049703   4.928633   4.806945
    25  H    5.131537   6.078279   5.471664   4.348680   4.555340
    26  H    6.312712   7.583482   6.723729   5.146347   6.316539
    27  H    4.957180   6.362971   6.028959   4.401038   5.998258
    28  H    6.454090   7.740733   7.251021   5.769897   6.667028
    29  H    5.272623   6.340626   5.076178   3.542462   5.040278
    30  H    4.787606   5.465196   3.724029   2.549850   3.731699
    31  H    7.179031   8.003333   6.357354   5.235634   5.296970
    32  H    7.169407   7.881602   5.999493   4.977276   5.348284
    33  H    6.816828   7.304376   5.302547   4.599032   4.026894
                   21         22         23         24         25
    21  H    0.000000
    22  H    3.043663   0.000000
    23  H    2.461282   1.745708   0.000000
    24  H    4.521822   2.912701   2.575779   0.000000
    25  H    4.652069   2.243391   3.031624   1.757764   0.000000
    26  H    5.519168   4.649359   4.497515   2.492090   3.046223
    27  H    5.468109   4.190937   4.696779   3.074958   2.513626
    28  H    6.309853   4.538861   4.856435   2.511801   2.383472
    29  H    3.807356   4.201131   3.773889   3.195206   3.704557
    30  H    2.231735   3.718238   3.101543   3.801215   4.198140
    31  H    4.317304   4.328499   3.150777   2.311637   3.860331
    32  H    3.921184   5.097326   3.812987   3.850110   5.104802
    33  H    2.969529   3.846802   2.274463   3.120405   4.351571
                   26         27         28         29         30
    26  H    0.000000
    27  H    1.778663   0.000000
    28  H    1.763358   1.769216   0.000000
    29  H    2.248739   2.775287   3.727265   0.000000
    30  H    3.811630   4.033282   5.036836   1.721950   0.000000
    31  H    2.778698   4.115508   3.951050   2.523671   3.068048
    32  H    3.787322   4.953451   5.293379   2.443869   2.442258
    33  H    4.183031   5.076233   5.240373   3.069546   2.519099
                   31         32         33
    31  H    0.000000
    32  H    1.763454   0.000000
    33  H    1.777135   1.763434   0.000000
 Stoichiometry    C9H22N2
 Framework group  C1[X(C9H22N2)]
 Deg. of freedom    93
 Full point group                 C1      NOp   1
 Largest Abelian subgroup         C1      NOp   1
 Largest concise Abelian subgroup C1      NOp   1
                         Standard orientation:                         
 ---------------------------------------------------------------------
 Center     Atomic      Atomic             Coordinates (Angstroms)
 Number     Number       Type             X           Y           Z
 ---------------------------------------------------------------------
      1          6           0        3.321692    0.045086    1.094035
      2          6           0        2.418697    0.449607   -0.069222
      3          7           0        3.251201    1.082949   -1.098920
      4          6           0        1.665382   -0.744193   -0.681668
      5          6           0        0.728655   -1.495163    0.276253
      6          6           0       -0.343884   -0.628870    0.954578
      7          7           0       -1.170812    0.167308    0.031648
      8          6           0       -1.956483    1.157725    0.788056
      9          6           0       -2.700584    2.159211   -0.089399
     10          6           0       -1.970391   -0.644973   -0.899836
     11          6           0       -3.056421   -1.521414   -0.282536
     12          1           0        4.032039   -0.735644    0.799734
     13          1           0        2.735686   -0.330770    1.938433
     14          1           0        3.896964    0.903403    1.459909
     15          1           0        1.706113    1.202628    0.283245
     16          1           0        2.653892    1.380701   -1.870364
     17          1           0        3.894211    0.396458   -1.491236
     18          1           0        2.389350   -1.469317   -1.077727
     19          1           0        1.084512   -0.398731   -1.546635
     20          1           0        1.324538   -1.982197    1.057755
     21          1           0        0.250899   -2.314816   -0.273819
     22          1           0        0.177014    0.046527    1.645161
     23          1           0       -0.970607   -1.267736    1.588828
     24          1           0       -2.662681    0.670728    1.471016
     25          1           0       -1.271665    1.743865    1.414568
     26          1           0       -3.528174    1.691696   -0.631140
     27          1           0       -2.026436    2.627008   -0.814488
     28          1           0       -3.125910    2.954082    0.532474
     29          1           0       -2.432766    0.010846   -1.646842
     30          1           0       -1.306590   -1.282834   -1.494427
     31          1           0       -3.803695   -0.928315    0.252486
     32          1           0       -3.580058   -2.069367   -1.073319
     33          1           0       -2.639348   -2.262115    0.405738
 ---------------------------------------------------------------------
 Rotational constants (GHZ):           1.5988120           0.5285229           0.4725117
 Standard basis: 6-31G(d,p) (6D, 7F)
 There are   275 symmetry adapted cartesian basis functions of A   symmetry.
 There are   275 symmetry adapted basis functions of A   symmetry.
   275 basis functions,   462 primitive gaussians,   275 cartesian basis functions
    45 alpha electrons       45 beta electrons
       nuclear repulsion energy       685.5866338669 Hartrees.
 NAtoms=   33 NActive=   33 NUniq=   33 SFac= 1.00D+00 NAtFMM=   60 NAOKFM=F Big=F
 Integral buffers will be    131072 words long.
 Raffenetti 2 integral format.
 Two-electron integral symmetry is turned on.
 Force inversion solution in PCM.
 ------------------------------------------------------------------------------
 Polarizable Continuum Model (PCM)
 =================================
 Model                : PCM.
 Atomic radii         : UFF (Universal Force Field).
 Polarization charges : Total charges.
 Charge compensation  : None.
 Solution method      : Matrix inversion.
 Cavity type          : Scaled VdW (van der Waals Surface) (Alpha=1.100).
 Cavity algorithm     : GePol (No added spheres)
                        Default sphere list used, NSphG=   33.
                        Lebedev-Laikov grids with approx.  5.0 points / Ang**2.
                        Smoothing algorithm: York/Karplus (Gamma=1.0000).
                        Polarization charges: spherical gaussians, with
                                              point-specific exponents (IZeta= 3).
                        Self-potential: point-specific (ISelfS= 7).
                        Self-field    : sphere-specific E.n sum rule (ISelfD= 2).
 1st derivatives      : Analytical E(r).r(x)/FMM algorithm (CHGder, D1EAlg=3).
                        Cavity 1st derivative terms included.
 2nd derivatives      : Analytical E(r).r(xy)/FMM algorithm (CHGder, D2EAlg=3).
                        Cavity 2nd derivative terms included.
 Solvent              : Water, Eps=  78.355300 Eps(inf)=   1.777849
 ------------------------------------------------------------------------------
 One-electron integrals computed using PRISM.
 NBasis=   275 RedAO= T EigKep=  3.26D-03  NBF=   275
 NBsUse=   275 1.00D-06 EigRej= -1.00D+00 NBFU=   275
 ExpMin= 1.61D-01 ExpMax= 4.17D+03 ExpMxC= 6.27D+02 IAcc=3 IRadAn=         5 AccDes= 0.00D+00
 Harris functional with IExCor=  402 and IRadAn=       5 diagonalized for initial guess.
 HarFok:  IExCor=  402 AccDes= 0.00D+00 IRadAn=         5 IDoV= 1 UseB2=F ITyADJ=14
 ICtDFT=  3500011 ScaDFX=  1.000000  1.000000  1.000000  1.000000
 FoFCou: FMM=F IPFlag=           0 FMFlag=      100000 FMFlg1=           0
         NFxFlg=           0 DoJE=T BraDBF=F KetDBF=T FulRan=T
         wScrn=  0.000000 ICntrl=       500 IOpCl=  0 I1Cent=   200000004 NGrid=           0
         NMat0=    1 NMatS0=      1 NMatT0=    0 NMatD0=    1 NMtDS0=    0 NMtDT0=    0
 Petite list used in FoFCou.
 Requested convergence on RMS density matrix=1.00D-08 within  32 cycles.
 Requested convergence on MAX density matrix=1.00D-06.
 Requested convergence on             energy=1.00D-06.
 No special actions if energy rises.
 Inv3:  Mode=1 IEnd=    13230000.
 Iteration    1 A*A^-1 deviation from unit magnitude is 7.99D-15 for   1790.
 Iteration    1 A*A^-1 deviation from orthogonality  is 4.45D-15 for   1757   1427.
 Iteration    1 A^-1*A deviation from unit magnitude is 7.99D-15 for   1790.
 Iteration    1 A^-1*A deviation from orthogonality  is 2.89D-15 for   1934    366.
 Error on total polarization charges =  0.01096
 SCF Done:  E(RB3LYP) =  -465.733196199     A.U. after   11 cycles
            NFock= 11  Conv=0.48D-08     -V/T= 2.0099
 QCSCF skips out because SCF is already converged.
 DoSCS=F DFT=T ScalE2(SS,OS)=  1.000000  1.000000
 Range of M.O.s used for correlation:     1   275
 NBasis=   275 NAE=    45 NBE=    45 NFC=     0 NFV=     0
 NROrb=    275 NOA=    45 NOB=    45 NVA=   230 NVB=   230
 Symmetrizing basis deriv contribution to polar:
 IMax=3 JMax=2 DiffMx= 0.00D+00
 G2DrvN: will do    34 centers at a time, making    1 passes.
 Calling FoFCou, ICntrl=  3107 FMM=F I1Cent=   0 AccDes= 0.00D+00.
 NEqPCM:  Using equilibrium solvation (IEInf=0, Eps=  78.3553, EpsInf=   1.7778)
 G2PCM: DoFxE=T DoFxN=T DoGrad=T DoDP/DQ/DG/TGxP=FFFF NFrqRd=   0 IEInf=0 SqF1=F DoCFld=F IF1Alg=4.
 End of G2Drv F.D. properties file   721 does not exist.
 End of G2Drv F.D. properties file   722 does not exist.
 End of G2Drv F.D. properties file   788 does not exist.
          IDoAtm=111111111111111111111111111111111
 NEqPCM:  Using equilibrium solvation (IEInf=0, Eps=  78.3553, EpsInf=   1.7778)
          Differentiating once with respect to nuclear coordinates.
 Keep R1 ints in memory in canonical form, NReq=731370929.
          There are   102 degrees of freedom in the 1st order CPHF.  IDoFFX=6 NUNeed=     0.
     96 vectors produced by pass  0 Test12= 1.04D-14 1.00D-09 XBig12= 7.61D-02 5.40D-02.
 AX will form    96 AO Fock derivatives at one time.
     96 vectors produced by pass  1 Test12= 1.04D-14 1.00D-09 XBig12= 3.75D-03 8.71D-03.
     96 vectors produced by pass  2 Test12= 1.04D-14 1.00D-09 XBig12= 2.96D-05 7.76D-04.
     96 vectors produced by pass  3 Test12= 1.04D-14 1.00D-09 XBig12= 6.93D-08 2.82D-05.
     96 vectors produced by pass  4 Test12= 1.04D-14 1.00D-09 XBig12= 8.19D-11 7.54D-07.
     37 vectors produced by pass  5 Test12= 1.04D-14 1.00D-09 XBig12= 5.23D-14 2.74D-08.
 InvSVY:  IOpt=1 It=  1 EMax= 7.77D-16
 Solved reduced A of dimension   517 with   102 vectors.
 End of Minotr F.D. properties file   721 does not exist.
 End of Minotr F.D. properties file   722 does not exist.
 End of Minotr F.D. properties file   788 does not exist.

 **********************************************************************

            Population analysis using the SCF density.

 **********************************************************************

 Orbital symmetries:
       Occupied  (A) (A) (A) (A) (A) (A) (A) (A) (A) (A) (A) (A)
                 (A) (A) (A) (A) (A) (A) (A) (A) (A) (A) (A) (A)
                 (A) (A) (A) (A) (A) (A) (A) (A) (A) (A) (A) (A)
                 (A) (A) (A) (A) (A) (A) (A) (A) (A)
       Virtual   (A) (A) (A) (A) (A) (A) (A) (A) (A) (A) (A) (A)
                 (A) (A) (A) (A) (A) (A) (A) (A) (A) (A) (A) (A)
                 (A) (A) (A) (A) (A) (A) (A) (A) (A) (A) (A) (A)
                 (A) (A) (A) (A) (A) (A) (A) (A) (A) (A) (A) (A)
                 (A) (A) (A) (A) (A) (A) (A) (A) (A) (A) (A) (A)
                 (A) (A) (A) (A) (A) (A) (A) (A) (A) (A) (A) (A)
                 (A) (A) (A) (A) (A) (A) (A) (A) (A) (A) (A) (A)
                 (A) (A) (A) (A) (A) (A) (A) (A) (A) (A) (A) (A)
                 (A) (A) (A) (A) (A) (A) (A) (A) (A) (A) (A) (A)
                 (A) (A) (A) (A) (A) (A) (A) (A) (A) (A) (A) (A)
                 (A) (A) (A) (A) (A) (A) (A) (A) (A) (A) (A) (A)
                 (A) (A) (A) (A) (A) (A) (A) (A) (A) (A) (A) (A)
                 (A) (A) (A) (A) (A) (A) (A) (A) (A) (A) (A) (A)
                 (A) (A) (A) (A) (A) (A) (A) (A) (A) (A) (A) (A)
                 (A) (A) (A) (A) (A) (A) (A) (A) (A) (A) (A) (A)
                 (A) (A) (A) (A) (A) (A) (A) (A) (A) (A) (A) (A)
                 (A) (A) (A) (A) (A) (A) (A) (A) (A) (A) (A) (A)
                 (A) (A) (A) (A) (A) (A) (A) (A) (A) (A) (A) (A)
                 (A) (A) (A) (A) (A) (A) (A) (A) (A) (A) (A) (A)
                 (A) (A)
 The electronic state is 1-A.
 Alpha  occ. eigenvalues --  -14.31664 -14.30253 -10.20370 -10.20024 -10.19959
 Alpha  occ. eigenvalues --  -10.19749 -10.17350 -10.17091 -10.16890 -10.16806
 Alpha  occ. eigenvalues --  -10.16782  -0.90833  -0.87834  -0.77679  -0.75062
 Alpha  occ. eigenvalues --   -0.73132  -0.70830  -0.66424  -0.63052  -0.60018
 Alpha  occ. eigenvalues --   -0.56360  -0.53826  -0.48873  -0.48544  -0.47385
 Alpha  occ. eigenvalues --   -0.44901  -0.43839  -0.42716  -0.41492  -0.40762
 Alpha  occ. eigenvalues --   -0.39812  -0.38936  -0.37698  -0.37075  -0.36336
 Alpha  occ. eigenvalues --   -0.35911  -0.35055  -0.34236  -0.33550  -0.33126
 Alpha  occ. eigenvalues --   -0.32515  -0.31649  -0.30925  -0.22719  -0.20351
 Alpha virt. eigenvalues --    0.07096   0.09219   0.10608   0.10993   0.12111
 Alpha virt. eigenvalues --    0.12709   0.13945   0.15048   0.15392   0.16187
 Alpha virt. eigenvalues --    0.16747   0.17048   0.17291   0.18090   0.18795
 Alpha virt. eigenvalues --    0.18941   0.19712   0.19920   0.20994   0.22333
 Alpha virt. eigenvalues --    0.22390   0.23110   0.23350   0.24669   0.24858
 Alpha virt. eigenvalues --    0.25494   0.25731   0.26864   0.27673   0.29309
 Alpha virt. eigenvalues --    0.30047   0.32609   0.49928   0.50735   0.51330
 Alpha virt. eigenvalues --    0.52783   0.53971   0.54302   0.54627   0.54853
 Alpha virt. eigenvalues --    0.55399   0.57521   0.58812   0.61225   0.62927
 Alpha virt. eigenvalues --    0.63863   0.64861   0.66532   0.67858   0.68955
 Alpha virt. eigenvalues --    0.70238   0.70938   0.72496   0.73853   0.75454
 Alpha virt. eigenvalues --    0.77707   0.78749   0.80485   0.81306   0.83149
 Alpha virt. eigenvalues --    0.84529   0.84782   0.85910   0.86788   0.87249
 Alpha virt. eigenvalues --    0.87902   0.88168   0.89049   0.89938   0.90027
 Alpha virt. eigenvalues --    0.91955   0.93078   0.93894   0.94260   0.95598
 Alpha virt. eigenvalues --    0.95999   0.96580   0.97404   0.97901   0.98694
 Alpha virt. eigenvalues --    0.99096   1.00577   1.01128   1.02406   1.04946
 Alpha virt. eigenvalues --    1.06698   1.08232   1.11219   1.18619   1.21172
 Alpha virt. eigenvalues --    1.28205   1.29616   1.30247   1.34328   1.36120
 Alpha virt. eigenvalues --    1.40151   1.42688   1.46857   1.49546   1.50727
 Alpha virt. eigenvalues --    1.53814   1.56042   1.57029   1.59753   1.60435
 Alpha virt. eigenvalues --    1.63098   1.68128   1.70678   1.73950   1.74495
 Alpha virt. eigenvalues --    1.76249   1.78587   1.80501   1.82613   1.85121
 Alpha virt. eigenvalues --    1.86208   1.86915   1.88577   1.89780   1.91990
 Alpha virt. eigenvalues --    1.92724   1.93838   1.94823   1.97227   1.98237
 Alpha virt. eigenvalues --    1.99810   2.01098   2.04095   2.04633   2.05725
 Alpha virt. eigenvalues --    2.06286   2.07154   2.08819   2.09692   2.09954
 Alpha virt. eigenvalues --    2.11410   2.12247   2.12699   2.13788   2.16852
 Alpha virt. eigenvalues --    2.17799   2.19148   2.20223   2.22740   2.23473
 Alpha virt. eigenvalues --    2.24126   2.25284   2.26320   2.27658   2.28442
 Alpha virt. eigenvalues --    2.29864   2.31411   2.32764   2.34589   2.35702
 Alpha virt. eigenvalues --    2.38822   2.39816   2.41889   2.43515   2.44824
 Alpha virt. eigenvalues --    2.45556   2.46296   2.49281   2.50563   2.52682
 Alpha virt. eigenvalues --    2.54935   2.58101   2.58542   2.62515   2.65301
 Alpha virt. eigenvalues --    2.69254   2.70299   2.70957   2.71826   2.72735
 Alpha virt. eigenvalues --    2.73582   2.74002   2.75572   2.77706   2.78440
 Alpha virt. eigenvalues --    2.80343   2.83110   2.84695   2.85912   2.86210
 Alpha virt. eigenvalues --    2.86948   2.88961   2.89757   2.89971   2.91136
 Alpha virt. eigenvalues --    2.92934   2.94262   2.95518   2.98727   2.99565
 Alpha virt. eigenvalues --    3.01600   3.02250   3.18977   3.19982   3.21799
 Alpha virt. eigenvalues --    3.29376   3.31290   3.32194   3.32811   3.33475
 Alpha virt. eigenvalues --    3.35730   3.38775   3.40103   3.42007   3.44225
 Alpha virt. eigenvalues --    3.45898   3.46275   3.48196   3.48878   3.53517
 Alpha virt. eigenvalues --    3.55423   3.56181   3.57611   3.59571   4.03467
 Alpha virt. eigenvalues --    4.09817   4.34148   4.38810   4.41338   4.46420
 Alpha virt. eigenvalues --    4.60356   4.62733   4.65369   4.68093   4.75709
          Condensed to atoms (all electrons):
               1          2          3          4          5          6
     1  C    4.976534   0.373360  -0.062788  -0.055054  -0.002216  -0.002247
     2  C    0.373360   4.764295   0.317475   0.386021  -0.034758  -0.002146
     3  N   -0.062788   0.317475   6.808179  -0.070288   0.006334  -0.000030
     4  C   -0.055054   0.386021  -0.070288   5.016821   0.311633  -0.044270
     5  C   -0.002216  -0.034758   0.006334   0.311633   5.025716   0.366583
     6  C   -0.002247  -0.002146  -0.000030  -0.044270   0.366583   4.818108
     7  N    0.000198  -0.003795  -0.000016   0.003528  -0.055085   0.306659
     8  C   -0.000002  -0.000025   0.000001  -0.000046   0.005091  -0.043539
     9  C   -0.000000   0.000010   0.000000  -0.000012  -0.000188   0.005050
    10  C   -0.000002   0.000095  -0.000001  -0.002021  -0.001928  -0.049805
    11  C    0.000000  -0.000007  -0.000000   0.000235  -0.001961  -0.006577
    12  H    0.380422  -0.032029  -0.004103  -0.007111  -0.000420   0.000125
    13  H    0.375574  -0.028579   0.004282  -0.002378   0.000504  -0.000296
    14  H    0.371719  -0.027701   0.002950   0.005702  -0.000053   0.000030
    15  H   -0.044673   0.389165  -0.042562  -0.048509  -0.006256   0.003082
    16  H    0.007321  -0.041327   0.339900  -0.001540   0.000063  -0.000010
    17  H   -0.006664  -0.041830   0.338831  -0.004272   0.000054   0.000014
    18  H   -0.008425  -0.036035  -0.002262   0.367137  -0.032484   0.005175
    19  H    0.005716  -0.035331  -0.001486   0.372906  -0.033378  -0.008613
    20  H    0.003884  -0.007972   0.000026  -0.036254   0.375258  -0.031269
    21  H   -0.000033   0.004598  -0.000159  -0.028974   0.370910  -0.035734
    22  H   -0.000015   0.004563  -0.000025  -0.009248  -0.034146   0.387076
    23  H    0.000073  -0.000288  -0.000001   0.006564  -0.048686   0.366261
    24  H    0.000001  -0.000015  -0.000000   0.000045  -0.000429  -0.007111
    25  H   -0.000011   0.000079  -0.000000  -0.000083   0.000435  -0.005348
    26  H   -0.000000  -0.000000  -0.000000   0.000000   0.000004  -0.000006
    27  H    0.000000  -0.000008  -0.000000   0.000004  -0.000018  -0.000001
    28  H    0.000000  -0.000000   0.000000   0.000000   0.000002  -0.000133
    29  H   -0.000000   0.000002  -0.000000   0.000009   0.000060   0.006015
    30  H   -0.000001   0.000049  -0.000000  -0.000832   0.004550  -0.007129
    31  H   -0.000000   0.000000  -0.000000  -0.000004   0.000052  -0.000471
    32  H   -0.000000   0.000000   0.000000  -0.000002   0.000022   0.000152
    33  H    0.000000  -0.000000  -0.000000   0.000000   0.000163   0.001925
               7          8          9         10         11         12
     1  C    0.000198  -0.000002  -0.000000  -0.000002   0.000000   0.380422
     2  C   -0.003795  -0.000025   0.000010   0.000095  -0.000007  -0.032029
     3  N   -0.000016   0.000001   0.000000  -0.000001  -0.000000  -0.004103
     4  C    0.003528  -0.000046  -0.000012  -0.002021   0.000235  -0.007111
     5  C   -0.055085   0.005091  -0.000188  -0.001928  -0.001961  -0.000420
     6  C    0.306659  -0.043539   0.005050  -0.049805  -0.006577   0.000125
     7  N    6.898176   0.319216  -0.054270   0.331695  -0.060623  -0.000003
     8  C    0.319216   4.773459   0.370147  -0.050070  -0.006273   0.000000
     9  C   -0.054270   0.370147   4.967985  -0.002674  -0.002203  -0.000000
    10  C    0.331695  -0.050070  -0.002674   4.790937   0.342697   0.000000
    11  C   -0.060623  -0.006273  -0.002203   0.342697   5.019116  -0.000000
    12  H   -0.000003   0.000000  -0.000000   0.000000  -0.000000   0.609444
    13  H   -0.000006  -0.000002   0.000000   0.000001  -0.000000  -0.030717
    14  H   -0.000001  -0.000000   0.000000   0.000000  -0.000000  -0.032823
    15  H    0.004599   0.000090  -0.000082  -0.000011   0.000007   0.005618
    16  H    0.000017  -0.000001   0.000000  -0.000001   0.000000  -0.000066
    17  H   -0.000003   0.000000  -0.000000  -0.000000  -0.000000   0.004851
    18  H    0.000212   0.000000  -0.000000   0.000004   0.000003   0.005146
    19  H    0.008435  -0.000122  -0.000007   0.000509   0.000108  -0.000009
    20  H    0.003872  -0.000128   0.000002   0.000029   0.000041   0.000419
    21  H   -0.004856  -0.000011   0.000005   0.001334  -0.000028  -0.000038
    22  H   -0.041779  -0.004583   0.000351   0.005579  -0.000240  -0.000041
    23  H   -0.051500  -0.007025  -0.000233  -0.008631   0.007850  -0.000002
    24  H   -0.052160   0.361897  -0.050434  -0.008933   0.008305  -0.000000
    25  H   -0.041548   0.393029  -0.036164   0.005529  -0.000222   0.000000
    26  H   -0.003645  -0.031941   0.387092   0.001122   0.000107  -0.000000
    27  H    0.004426  -0.032910   0.374815  -0.001189   0.000344   0.000000
    28  H    0.003652  -0.026191   0.374157   0.000105   0.000042  -0.000000
    29  H   -0.039140  -0.007403   0.004876   0.392971  -0.054195   0.000000
    30  H   -0.039544   0.006139   0.000047   0.393221  -0.054757   0.000000
    31  H   -0.003905   0.002472   0.000139  -0.033475   0.387507  -0.000000
    32  H    0.004174   0.000147   0.000010  -0.023187   0.368067   0.000000
    33  H   -0.003451  -0.000646   0.000086  -0.033676   0.388062  -0.000000
              13         14         15         16         17         18
     1  C    0.375574   0.371719  -0.044673   0.007321  -0.006664  -0.008425
     2  C   -0.028579  -0.027701   0.389165  -0.041327  -0.041830  -0.036035
     3  N    0.004282   0.002950  -0.042562   0.339900   0.338831  -0.002262
     4  C   -0.002378   0.005702  -0.048509  -0.001540  -0.004272   0.367137
     5  C    0.000504  -0.000053  -0.006256   0.000063   0.000054  -0.032484
     6  C   -0.000296   0.000030   0.003082  -0.000010   0.000014   0.005175
     7  N   -0.000006  -0.000001   0.004599   0.000017  -0.000003   0.000212
     8  C   -0.000002  -0.000000   0.000090  -0.000001   0.000000   0.000000
     9  C    0.000000   0.000000  -0.000082   0.000000  -0.000000  -0.000000
    10  C    0.000001   0.000000  -0.000011  -0.000001  -0.000000   0.000004
    11  C   -0.000000  -0.000000   0.000007   0.000000  -0.000000   0.000003
    12  H   -0.030717  -0.032823   0.005618  -0.000066   0.004851   0.005146
    13  H    0.604198  -0.028603  -0.004130  -0.000273  -0.000196  -0.000104
    14  H   -0.028603   0.611659  -0.004127  -0.000083  -0.000496  -0.000069
    15  H   -0.004130  -0.004127   0.645331  -0.004979   0.007051   0.006267
    16  H   -0.000273  -0.000083  -0.004979   0.484169  -0.032923  -0.000355
    17  H   -0.000196  -0.000496   0.007051  -0.032923   0.487611   0.006474
    18  H   -0.000104  -0.000069   0.006267  -0.000355   0.006474   0.654871
    19  H   -0.000042  -0.000193  -0.004190   0.006024  -0.000335  -0.039017
    20  H    0.001443  -0.000126  -0.000009   0.000009   0.000001  -0.004734
    21  H    0.000048   0.000002  -0.000112  -0.000005  -0.000009  -0.003595
    22  H    0.002127  -0.000034  -0.001263   0.000001  -0.000002  -0.000079
    23  H   -0.000096   0.000000   0.000223  -0.000000   0.000000  -0.000098
    24  H   -0.000000  -0.000000   0.000052   0.000000  -0.000000   0.000000
    25  H   -0.000004  -0.000000   0.000180  -0.000000   0.000000  -0.000001
    26  H   -0.000000   0.000000   0.000000  -0.000000   0.000000  -0.000000
    27  H   -0.000000  -0.000000   0.000086   0.000001   0.000000   0.000000
    28  H    0.000000  -0.000000   0.000001  -0.000000  -0.000000   0.000000
    29  H   -0.000000  -0.000000  -0.000010   0.000000   0.000000  -0.000001
    30  H    0.000000  -0.000000  -0.000040  -0.000003   0.000000  -0.000112
    31  H    0.000000   0.000000  -0.000000  -0.000000  -0.000000   0.000000
    32  H    0.000000  -0.000000  -0.000000  -0.000000   0.000000  -0.000000
    33  H   -0.000000   0.000000  -0.000000  -0.000000  -0.000000   0.000000
              19         20         21         22         23         24
     1  C    0.005716   0.003884  -0.000033  -0.000015   0.000073   0.000001
     2  C   -0.035331  -0.007972   0.004598   0.004563  -0.000288  -0.000015
     3  N   -0.001486   0.000026  -0.000159  -0.000025  -0.000001  -0.000000
     4  C    0.372906  -0.036254  -0.028974  -0.009248   0.006564   0.000045
     5  C   -0.033378   0.375258   0.370910  -0.034146  -0.048686  -0.000429
     6  C   -0.008613  -0.031269  -0.035734   0.387076   0.366261  -0.007111
     7  N    0.008435   0.003872  -0.004856  -0.041779  -0.051500  -0.052160
     8  C   -0.000122  -0.000128  -0.000011  -0.004583  -0.007025   0.361897
     9  C   -0.000007   0.000002   0.000005   0.000351  -0.000233  -0.050434
    10  C    0.000509   0.000029   0.001334   0.005579  -0.008631  -0.008933
    11  C    0.000108   0.000041  -0.000028  -0.000240   0.007850   0.008305
    12  H   -0.000009   0.000419  -0.000038  -0.000041  -0.000002  -0.000000
    13  H   -0.000042   0.001443   0.000048   0.002127  -0.000096  -0.000000
    14  H   -0.000193  -0.000126   0.000002  -0.000034   0.000000  -0.000000
    15  H   -0.004190  -0.000009  -0.000112  -0.001263   0.000223   0.000052
    16  H    0.006024   0.000009  -0.000005   0.000001  -0.000000   0.000000
    17  H   -0.000335   0.000001  -0.000009  -0.000002   0.000000  -0.000000
    18  H   -0.039017  -0.004734  -0.003595  -0.000079  -0.000098   0.000000
    19  H    0.637036   0.006076  -0.006121  -0.000280   0.000206   0.000014
    20  H    0.006076   0.634325  -0.036192  -0.005522   0.000420   0.000015
    21  H   -0.006121  -0.036192   0.643579   0.006069  -0.006592  -0.000015
    22  H   -0.000280  -0.005522   0.006069   0.636862  -0.048487  -0.002108
    23  H    0.000206   0.000420  -0.006592  -0.048487   0.704531   0.012218
    24  H    0.000014   0.000015  -0.000015  -0.002108   0.012218   0.709785
    25  H   -0.000024  -0.000016  -0.000000   0.007001  -0.001658  -0.049893
    26  H   -0.000001  -0.000000  -0.000001   0.000003  -0.000008  -0.007390
    27  H    0.000030   0.000000  -0.000000  -0.000043   0.000040   0.006870
    28  H   -0.000000  -0.000000  -0.000000  -0.000023   0.000017   0.001065
    29  H   -0.000097  -0.000003  -0.000036  -0.000172  -0.000315  -0.001028
    30  H    0.000989  -0.000085   0.001732   0.000155  -0.001345  -0.000395
    31  H    0.000001   0.000001  -0.000012  -0.000020   0.000172   0.001184
    32  H   -0.000003  -0.000000  -0.000030   0.000003  -0.000359  -0.000343
    33  H   -0.000003  -0.000043   0.000728  -0.000078   0.001645   0.000101
              25         26         27         28         29         30
     1  C   -0.000011  -0.000000   0.000000   0.000000  -0.000000  -0.000001
     2  C    0.000079  -0.000000  -0.000008  -0.000000   0.000002   0.000049
     3  N   -0.000000  -0.000000  -0.000000   0.000000  -0.000000  -0.000000
     4  C   -0.000083   0.000000   0.000004   0.000000   0.000009  -0.000832
     5  C    0.000435   0.000004  -0.000018   0.000002   0.000060   0.004550
     6  C   -0.005348  -0.000006  -0.000001  -0.000133   0.006015  -0.007129
     7  N   -0.041548  -0.003645   0.004426   0.003652  -0.039140  -0.039544
     8  C    0.393029  -0.031941  -0.032910  -0.026191  -0.007403   0.006139
     9  C   -0.036164   0.387092   0.374815   0.374157   0.004876   0.000047
    10  C    0.005529   0.001122  -0.001189   0.000105   0.392971   0.393221
    11  C   -0.000222   0.000107   0.000344   0.000042  -0.054195  -0.054757
    12  H    0.000000  -0.000000   0.000000  -0.000000   0.000000   0.000000
    13  H   -0.000004  -0.000000  -0.000000   0.000000  -0.000000   0.000000
    14  H   -0.000000   0.000000  -0.000000  -0.000000  -0.000000  -0.000000
    15  H    0.000180   0.000000   0.000086   0.000001  -0.000010  -0.000040
    16  H   -0.000000  -0.000000   0.000001  -0.000000   0.000000  -0.000003
    17  H    0.000000   0.000000   0.000000  -0.000000   0.000000   0.000000
    18  H   -0.000001  -0.000000   0.000000   0.000000  -0.000001  -0.000112
    19  H   -0.000024  -0.000001   0.000030  -0.000000  -0.000097   0.000989
    20  H   -0.000016  -0.000000   0.000000  -0.000000  -0.000003  -0.000085
    21  H   -0.000000  -0.000001  -0.000000  -0.000000  -0.000036   0.001732
    22  H    0.007001   0.000003  -0.000043  -0.000023  -0.000172   0.000155
    23  H   -0.001658  -0.000008   0.000040   0.000017  -0.000315  -0.001345
    24  H   -0.049893  -0.007390   0.006870   0.001065  -0.001028  -0.000395
    25  H    0.633833   0.005518  -0.005711  -0.005167   0.000140  -0.000160
    26  H    0.005518   0.599267  -0.033724  -0.030396   0.001012  -0.000002
    27  H   -0.005711  -0.033724   0.607076  -0.028369  -0.000054  -0.000122
    28  H   -0.005167  -0.030396  -0.028369   0.605135  -0.000110  -0.000006
    29  H    0.000140   0.001012  -0.000054  -0.000110   0.632173  -0.035045
    30  H   -0.000160  -0.000002  -0.000122  -0.000006  -0.035045   0.630516
    31  H   -0.000064   0.001154  -0.000027  -0.000052  -0.005504   0.005291
    32  H    0.000002  -0.000032  -0.000005  -0.000001  -0.001323  -0.001206
    33  H   -0.000017  -0.000027  -0.000003   0.000002   0.005336  -0.005433
              31         32         33
     1  C   -0.000000  -0.000000   0.000000
     2  C    0.000000   0.000000  -0.000000
     3  N   -0.000000   0.000000  -0.000000
     4  C   -0.000004  -0.000002   0.000000
     5  C    0.000052   0.000022   0.000163
     6  C   -0.000471   0.000152   0.001925
     7  N   -0.003905   0.004174  -0.003451
     8  C    0.002472   0.000147  -0.000646
     9  C    0.000139   0.000010   0.000086
    10  C   -0.033475  -0.023187  -0.033676
    11  C    0.387507   0.368067   0.388062
    12  H   -0.000000   0.000000  -0.000000
    13  H    0.000000   0.000000  -0.000000
    14  H    0.000000  -0.000000   0.000000
    15  H   -0.000000  -0.000000  -0.000000
    16  H   -0.000000  -0.000000  -0.000000
    17  H   -0.000000   0.000000  -0.000000
    18  H    0.000000  -0.000000   0.000000
    19  H    0.000001  -0.000003  -0.000003
    20  H    0.000001  -0.000000  -0.000043
    21  H   -0.000012  -0.000030   0.000728
    22  H   -0.000020   0.000003  -0.000078
    23  H    0.000172  -0.000359   0.001645
    24  H    0.001184  -0.000343   0.000101
    25  H   -0.000064   0.000002  -0.000017
    26  H    0.001154  -0.000032  -0.000027
    27  H   -0.000027  -0.000005  -0.000003
    28  H   -0.000052  -0.000001   0.000002
    29  H   -0.005504  -0.001323   0.005336
    30  H    0.005291  -0.001206  -0.005433
    31  H    0.597955  -0.030169  -0.032971
    32  H   -0.030169   0.610299  -0.030028
    33  H   -0.032971  -0.030028   0.596866
 Mulliken charges:
               1
     1  C   -0.312673
     2  C    0.052134
     3  N   -0.634257
     4  C   -0.159708
     5  C   -0.215427
     6  C   -0.021515
     7  N   -0.433528
     8  C   -0.020770
     9  C   -0.338505
    10  C   -0.050225
    11  C   -0.335406
    12  H    0.101337
    13  H    0.107248
    14  H    0.102246
    15  H    0.099201
    16  H    0.244061
    17  H    0.241842
    18  H    0.082079
    19  H    0.091201
    20  H    0.096532
    21  H    0.093547
    22  H    0.098397
    23  H    0.075103
    24  H    0.078701
    25  H    0.100344
    26  H    0.111893
    27  H    0.108493
    28  H    0.106270
    29  H    0.101841
    30  H    0.103526
    31  H    0.110745
    32  H    0.103812
    33  H    0.111461
 Sum of Mulliken charges =  -0.00000
 Mulliken charges with hydrogens summed into heavy atoms:
               1
     1  C   -0.001843
     2  C    0.151336
     3  N   -0.148355
     4  C    0.013572
     5  C   -0.025347
     6  C    0.151986
     7  N   -0.433528
     8  C    0.158275
     9  C   -0.011850
    10  C    0.155142
    11  C   -0.009387
 APT charges:
               1
     1  C   -1.195745
     2  C   -0.145887
     3  N   -1.060850
     4  C   -0.637289
     5  C   -0.828199
     6  C   -0.587536
     7  N   -0.312717
     8  C   -0.635492
     9  C   -1.257060
    10  C   -0.614780
    11  C   -1.319551
    12  H    0.531762
    13  H    0.166604
    14  H    0.565705
    15  H    0.132766
    16  H    0.289456
    17  H    0.683730
    18  H    0.479142
    19  H    0.203839
    20  H    0.451333
    21  H    0.372952
    22  H    0.306138
    23  H    0.372098
    24  H    0.379907
    25  H    0.307224
    26  H    0.456316
    27  H    0.207180
    28  H    0.638174
    29  H    0.449429
    30  H    0.280058
    31  H    0.454550
    32  H    0.607507
    33  H    0.259235
 Sum of APT charges =  -0.00000
 APT charges with hydrogens summed into heavy atoms:
               1
     1  C    0.068326
     2  C   -0.013121
     3  N   -0.087664
     4  C    0.045692
     5  C   -0.003914
     6  C    0.090700
     7  N   -0.312717
     8  C    0.051640
     9  C    0.044611
    10  C    0.114707
    11  C    0.001740
 Electronic spatial extent (au):  <R**2>=           2673.5478
 Charge=             -0.0000 electrons
 Dipole moment (field-independent basis, Debye):
    X=             -1.5000    Y=             -1.6600    Z=             -0.2361  Tot=              2.2497
 Quadrupole moment (field-independent basis, Debye-Ang):
   XX=            -75.5325   YY=            -74.5556   ZZ=            -69.3379
   XY=             -6.4554   XZ=             -1.0861   YZ=              1.4843
 Traceless Quadrupole moment (field-independent basis, Debye-Ang):
   XX=             -2.3905   YY=             -1.4136   ZZ=              3.8041
   XY=             -6.4554   XZ=             -1.0861   YZ=              1.4843
 Octapole moment (field-independent basis, Debye-Ang**2):
  XXX=            -19.4966  YYY=             -1.3123  ZZZ=            -10.4161  XYY=            -11.0123
  XXY=            -23.1916  XXZ=             -7.8424  XZZ=              7.7693  YZZ=              2.9977
  YYZ=              1.0517  XYZ=              0.7020
 Hexadecapole moment (field-independent basis, Debye-Ang**3):
 XXXX=          -2568.0359 YYYY=           -732.3910 ZZZZ=           -382.0993 XXXY=           -104.5514
 XXXZ=            -22.3260 YYYX=            -20.2195 YYYZ=              6.6794 ZZZX=            -24.5879
 ZZZY=             -8.4156 XXYY=           -583.5124 XXZZ=           -457.6154 YYZZ=           -180.1506
 XXYZ=             23.7926 YYXZ=              2.5285 ZZXY=              7.3345
 N-N= 6.855866338669D+02 E-N=-2.449382266720D+03  KE= 4.611779309315D+02
  Exact polarizability:   0.000   0.000   0.000   0.000   0.000   0.000
 Approx polarizability: 152.093  -2.804 149.068   1.334   1.393 150.206
 D2PCM: PCM CHGder 2nd derivatives, FixD1E=F FixD2E=F DoIter=F DoCFld=F I1PDM=0
 Calling FoFJK, ICntrl=    100147 FMM=F ISym2X=0 I1Cent= 0 IOpClX= 0 NMat=1 NMatS=1 NMatT=0.
 ***** Axes restored to original set *****
 -------------------------------------------------------------------
 Center     Atomic                   Forces (Hartrees/Bohr)
 Number     Number              X              Y              Z
 -------------------------------------------------------------------
      1        6          -0.001452008    0.006753023    0.001829827
      2        6           0.008261086   -0.011682686    0.002077648
      3        7           0.002606449    0.005542982   -0.013446518
      4        6          -0.008709474    0.002567608    0.006802604
      5        6          -0.002968002   -0.004800455    0.001184710
      6        6           0.003060777   -0.002327171   -0.000357677
      7        7           0.006095592    0.004119727   -0.003488136
      8        6           0.003176624   -0.002039368   -0.005456906
      9        6          -0.003611546   -0.001570406   -0.000469245
     10        6           0.000392396   -0.003253593   -0.002510251
     11        6          -0.003990210   -0.002224621    0.003622971
     12        1          -0.000077504   -0.001116430    0.000076864
     13        1           0.000733557   -0.000777744    0.001299084
     14        1          -0.000443060   -0.001879817   -0.000704080
     15        1          -0.001290884   -0.000833774   -0.000573018
     16        1           0.001782191   -0.000753583    0.001058651
     17        1          -0.001345660   -0.000626558    0.001198793
     18        1           0.002539929    0.001558984   -0.001429972
     19        1           0.000469055    0.002236349   -0.001437861
     20        1          -0.001834672    0.001638670    0.000349974
     21        1           0.000029465   -0.000456006    0.000601105
     22        1          -0.004323605   -0.000157465   -0.004103415
     23        1          -0.000921702    0.001351363    0.005677701
     24        1          -0.003839847    0.003051871    0.003051661
     25        1           0.003149900   -0.002215097    0.004246008
     26        1          -0.000141541   -0.000504135   -0.001745287
     27        1           0.000232086   -0.000683369    0.000749427
     28        1          -0.000055273   -0.000122024    0.000655930
     29        1           0.000427649    0.004080681   -0.001358640
     30        1           0.003440607    0.003589056    0.000556959
     31        1          -0.000287991    0.000675662    0.001134942
     32        1          -0.000195568   -0.000043796    0.000228005
     33        1          -0.000908815    0.000902123    0.000678143
 -------------------------------------------------------------------
 Cartesian Forces:  Max     0.013446518 RMS     0.003281664
 FormGI is forming the generalized inverse of G from B-inverse, IUseBI=4.

 GradGradGradGradGradGradGradGradGradGradGradGradGradGradGradGradGradGrad
 Berny optimization.
 Internal  Forces:  Max     0.008613379 RMS     0.002207500
 Search for a local minimum.
 Step number   1 out of a maximum of  180
 All quantities printed in internal units (Hartrees-Bohrs-Radians)
 Mixed Optimization -- RFO/linear search
 Second derivative matrix not updated -- analytic derivatives used.
 ITU=  0
     Eigenvalues ---    0.00180   0.00221   0.00259   0.00292   0.00310
     Eigenvalues ---    0.00335   0.00430   0.00455   0.00487   0.00716
     Eigenvalues ---    0.02114   0.03326   0.03396   0.03760   0.03899
     Eigenvalues ---    0.03988   0.04335   0.04365   0.04438   0.04485
     Eigenvalues ---    0.04504   0.04542   0.04565   0.04598   0.04683
     Eigenvalues ---    0.04713   0.04753   0.04928   0.05107   0.05222
     Eigenvalues ---    0.05401   0.07211   0.07477   0.08461   0.08613
     Eigenvalues ---    0.08995   0.10555   0.11650   0.11724   0.12059
     Eigenvalues ---    0.12211   0.12285   0.12352   0.13011   0.13209
     Eigenvalues ---    0.13844   0.13913   0.14045   0.14933   0.16080
     Eigenvalues ---    0.16351   0.16558   0.19275   0.19341   0.19523
     Eigenvalues ---    0.19730   0.21655   0.22895   0.24284   0.25058
     Eigenvalues ---    0.25210   0.26843   0.28205   0.28363   0.29382
     Eigenvalues ---    0.29453   0.31217   0.31551   0.31994   0.32438
     Eigenvalues ---    0.32591   0.32821   0.32852   0.33201   0.33293
     Eigenvalues ---    0.33367   0.33471   0.33571   0.33698   0.33741
     Eigenvalues ---    0.33801   0.33856   0.33886   0.33971   0.34492
     Eigenvalues ---    0.34598   0.34751   0.36028   0.36449   0.36623
     Eigenvalues ---    0.36916   0.43806   0.44152
 RFO step:  Lambda=-4.77693544D-03 EMin= 1.80272619D-03
 Linear search not attempted -- first point.
 Iteration  1 RMS(Cart)=  0.03676645 RMS(Int)=  0.00060491
 Iteration  2 RMS(Cart)=  0.00078620 RMS(Int)=  0.00013910
 Iteration  3 RMS(Cart)=  0.00000050 RMS(Int)=  0.00013909
 Variable       Old X    -DE/DX   Delta X   Delta X   Delta X     New X
                                 (Linear)    (Quad)   (Total)
    R1        2.88591   0.00235   0.00000   0.00782   0.00782   2.89373
    R2        2.07073   0.00059   0.00000   0.00311   0.00311   2.07385
    R3        2.06809   0.00018   0.00000  -0.00101  -0.00101   2.06708
    R4        2.07139  -0.00114   0.00000  -0.00417  -0.00417   2.06722
    R5        2.77376   0.00861   0.00000   0.01850   0.01850   2.79225
    R6        2.90780   0.00322   0.00000   0.00758   0.00758   2.91539
    R7        2.06927   0.00065   0.00000   0.00458   0.00458   2.07385
    R8        1.92767  -0.00128   0.00000  -0.00063  -0.00063   1.92704
    R9        1.92589  -0.00011   0.00000   0.00347   0.00347   1.92936
   R10        2.90245   0.00402   0.00000   0.00446   0.00446   2.90691
   R11        2.07595   0.00038   0.00000   0.00231   0.00231   2.07826
   R12        2.07433  -0.00059   0.00000  -0.00151  -0.00151   2.07282
   R13        2.90362   0.00013   0.00000   0.00011   0.00011   2.90373
   R14        2.07270  -0.00009   0.00000   0.00019   0.00019   2.07289
   R15        2.07239   0.00062   0.00000   0.00030   0.00030   2.07268
   R16        2.78343  -0.00338   0.00000  -0.00964  -0.00964   2.77378
   R17        2.07388  -0.00090   0.00000  -0.00221  -0.00221   2.07167
   R18        2.07285   0.00543   0.00000   0.01704   0.01704   2.08990
   R19        2.78397  -0.00272   0.00000  -0.00838  -0.00838   2.77559
   R20        2.78168  -0.00217   0.00000  -0.00165  -0.00165   2.78003
   R21        2.88243   0.00314   0.00000   0.00718   0.00718   2.88960
   R22        2.07209   0.00547   0.00000   0.01801   0.01801   2.09010
   R23        2.07445  -0.00088   0.00000  -0.00245  -0.00245   2.07200
   R24        2.06747   0.00015   0.00000  -0.00020  -0.00020   2.06726
   R25        2.06928  -0.00019   0.00000  -0.00010  -0.00010   2.06918
   R26        2.06962  -0.00029   0.00000  -0.00113  -0.00113   2.06849
   R27        2.88372   0.00779   0.00000   0.02323   0.02323   2.90695
   R28        2.07174  -0.00036   0.00000  -0.00279  -0.00279   2.06895
   R29        2.07098  -0.00023   0.00000  -0.00229  -0.00229   2.06870
   R30        2.06701   0.00045   0.00000   0.00156   0.00156   2.06857
   R31        2.06991   0.00014   0.00000  -0.00037  -0.00037   2.06953
   R32        2.06691   0.00042   0.00000   0.00144   0.00144   2.06835
    A1        1.94707  -0.00154   0.00000  -0.01518  -0.01525   1.93181
    A2        1.94129   0.00179   0.00000   0.01010   0.01010   1.95139
    A3        1.93602  -0.00181   0.00000  -0.00912  -0.00921   1.92681
    A4        1.88562  -0.00043   0.00000  -0.00548  -0.00545   1.88017
    A5        1.88319   0.00110   0.00000   0.00166   0.00149   1.88468
    A6        1.86754   0.00100   0.00000   0.01925   0.01924   1.88678
    A7        1.88945  -0.00190   0.00000   0.00378   0.00317   1.89262
    A8        1.96833  -0.00281   0.00000  -0.00134  -0.00210   1.96623
    A9        1.89838   0.00195   0.00000  -0.00337  -0.00358   1.89480
   A10        1.91051   0.00791   0.00000   0.05037   0.05037   1.96087
   A11        1.87357  -0.00268   0.00000  -0.02054  -0.02010   1.85347
   A12        1.92096  -0.00251   0.00000  -0.02970  -0.02948   1.89148
   A13        1.90114   0.00150   0.00000  -0.00443  -0.00461   1.89653
   A14        1.91479  -0.00303   0.00000  -0.02440  -0.02458   1.89021
   A15        1.84932  -0.00049   0.00000  -0.01978  -0.02019   1.82914
   A16        2.01493   0.00670   0.00000   0.02096   0.02105   2.03598
   A17        1.91025  -0.00432   0.00000  -0.02523  -0.02549   1.88476
   A18        1.90554  -0.00317   0.00000  -0.02357  -0.02369   1.88186
   A19        1.87973   0.00007   0.00000   0.01528   0.01543   1.89516
   A20        1.89927  -0.00139   0.00000   0.00131   0.00146   1.90073
   A21        1.84667   0.00182   0.00000   0.01129   0.01086   1.85753
   A22        2.01018   0.00043   0.00000   0.00268   0.00269   2.01287
   A23        1.90726   0.00141   0.00000   0.01334   0.01334   1.92060
   A24        1.89473  -0.00022   0.00000   0.00038   0.00036   1.89509
   A25        1.89128  -0.00196   0.00000  -0.01987  -0.01987   1.87141
   A26        1.91636   0.00022   0.00000   0.00239   0.00238   1.91874
   A27        1.83608   0.00011   0.00000   0.00108   0.00103   1.83712
   A28        2.00426  -0.00214   0.00000  -0.00576  -0.00579   1.99848
   A29        1.86864   0.00511   0.00000   0.02926   0.02910   1.89774
   A30        1.90256  -0.00148   0.00000  -0.00924  -0.00928   1.89328
   A31        1.90509  -0.00451   0.00000  -0.04123  -0.04105   1.86404
   A32        1.93517   0.00344   0.00000   0.02493   0.02502   1.96019
   A33        1.83981  -0.00024   0.00000   0.00266   0.00283   1.84264
   A34        1.91887   0.00178   0.00000   0.01572   0.01569   1.93455
   A35        1.98579  -0.00097   0.00000   0.00095   0.00085   1.98664
   A36        1.98909  -0.00051   0.00000   0.00079   0.00069   1.98978
   A37        1.98910  -0.00063   0.00000  -0.00072  -0.00071   1.98838
   A38        1.94409   0.00220   0.00000   0.01610   0.01611   1.96021
   A39        1.89579  -0.00431   0.00000  -0.03316  -0.03311   1.86268
   A40        1.91317  -0.00140   0.00000  -0.00691  -0.00694   1.90624
   A41        1.85675   0.00492   0.00000   0.03422   0.03426   1.89100
   A42        1.85818  -0.00071   0.00000  -0.00991  -0.00988   1.84830
   A43        1.95336   0.00262   0.00000   0.01139   0.01140   1.96475
   A44        1.94022  -0.00128   0.00000  -0.00807  -0.00806   1.93216
   A45        1.91701  -0.00069   0.00000  -0.00261  -0.00262   1.91439
   A46        1.89692  -0.00101   0.00000  -0.00818  -0.00815   1.88877
   A47        1.87291  -0.00060   0.00000  -0.00002  -0.00003   1.87288
   A48        1.88076   0.00093   0.00000   0.00766   0.00766   1.88842
   A49        2.03480   0.00563   0.00000   0.01299   0.01308   2.04788
   A50        1.90728  -0.00394   0.00000  -0.02535  -0.02540   1.88188
   A51        1.91292  -0.00476   0.00000  -0.03278  -0.03282   1.88010
   A52        1.89552  -0.00007   0.00000   0.00622   0.00622   1.90174
   A53        1.89258   0.00051   0.00000   0.00911   0.00911   1.90168
   A54        1.80693   0.00234   0.00000   0.03298   0.03255   1.83949
   A55        1.95266   0.00093   0.00000   0.00206   0.00206   1.95472
   A56        1.91293   0.00015   0.00000   0.00034   0.00033   1.91326
   A57        1.95209   0.00112   0.00000   0.00383   0.00382   1.95591
   A58        1.87317  -0.00036   0.00000   0.00333   0.00332   1.87649
   A59        1.89643  -0.00155   0.00000  -0.01291  -0.01291   1.88352
   A60        1.87320  -0.00041   0.00000   0.00337   0.00336   1.87657
    D1       -1.14629  -0.00311   0.00000  -0.02005  -0.01999  -1.16628
    D2        0.97027   0.00374   0.00000   0.04517   0.04505   1.01532
    D3        3.10635   0.00005   0.00000   0.00403   0.00396   3.11031
    D4        3.03017  -0.00275   0.00000  -0.00961  -0.00949   3.02068
    D5       -1.13645   0.00410   0.00000   0.05561   0.05555  -1.08091
    D6        0.99963   0.00041   0.00000   0.01447   0.01446   1.01408
    D7        0.95373  -0.00399   0.00000  -0.03439  -0.03424   0.91949
    D8        3.07029   0.00286   0.00000   0.03083   0.03080   3.10109
    D9       -1.07681  -0.00082   0.00000  -0.01031  -0.01029  -1.08711
   D10       -3.11458  -0.00068   0.00000  -0.01664  -0.01628  -3.13087
   D11        1.15156   0.00074   0.00000   0.02298   0.02310   1.17465
   D12        1.01668  -0.00095   0.00000  -0.04898  -0.04912   0.96756
   D13       -1.00037   0.00046   0.00000  -0.00936  -0.00974  -1.01011
   D14       -1.06802  -0.00080   0.00000  -0.02955  -0.02941  -1.09744
   D15       -3.08507   0.00061   0.00000   0.01007   0.00997  -3.07510
   D16        1.05546  -0.00037   0.00000  -0.00548  -0.00556   1.04990
   D17       -1.06818  -0.00185   0.00000  -0.02081  -0.02066  -1.08884
   D18       -3.08200   0.00012   0.00000  -0.00727  -0.00749  -3.08950
   D19       -3.12317   0.00087   0.00000   0.03353   0.03374  -3.08943
   D20        1.03637  -0.00060   0.00000   0.01820   0.01864   1.05501
   D21       -0.97745   0.00137   0.00000   0.03174   0.03180  -0.94565
   D22       -1.06789   0.00086   0.00000   0.02111   0.02089  -1.04700
   D23        3.09164  -0.00062   0.00000   0.00578   0.00580   3.09744
   D24        1.07783   0.00136   0.00000   0.01931   0.01896   1.09679
   D25        0.98153  -0.00017   0.00000   0.01169   0.01164   0.99316
   D26       -1.15161   0.00101   0.00000   0.02554   0.02550  -1.12611
   D27        3.13785   0.00026   0.00000   0.01705   0.01699  -3.12836
   D28        3.12149  -0.00116   0.00000   0.00494   0.00500   3.12649
   D29        0.98836   0.00002   0.00000   0.01878   0.01886   1.00722
   D30       -1.00537  -0.00074   0.00000   0.01029   0.01035  -0.99503
   D31       -1.16751   0.00030   0.00000   0.02672   0.02671  -1.14081
   D32        2.98254   0.00148   0.00000   0.04057   0.04057   3.02311
   D33        0.98881   0.00072   0.00000   0.03207   0.03206   1.02086
   D34        0.92947  -0.00180   0.00000  -0.00618  -0.00623   0.92323
   D35       -1.18850   0.00160   0.00000   0.02876   0.02883  -1.15966
   D36        3.11259  -0.00001   0.00000   0.01523   0.01522   3.12781
   D37        3.07116  -0.00117   0.00000  -0.00223  -0.00229   3.06887
[...]
     4    C    1  S      Ryd( 4S)     0.00002
     5    C    1  px     Val( 2p)     1.18146
     6    C    1  px     Ryd( 3p)     0.00225
     7    C    1  py     Val( 2p)     1.22832
     8    C    1  py     Ryd( 3p)     0.00195
     9    C    1  pz     Val( 2p)     1.17405
    10    C    1  pz     Ryd( 3p)     0.00216
    11    C    1  dxy    Ryd( 3d)     0.00094
    12    C    1  dxz    Ryd( 3d)     0.00076
    13    C    1  dyz    Ryd( 3d)     0.00062
    14    C    1  dx2y2  Ryd( 3d)     0.00012
    15    C    1  dz2    Ryd( 3d)     0.00031

    16    C    2  S      Cor( 1S)     1.99924
    17    C    2  S      Val( 2S)     0.95938
    18    C    2  S      Ryd( 3S)     0.00155
    19    C    2  S      Ryd( 4S)     0.00005
    20    C    2  px     Val( 2p)     1.04798
    21    C    2  px     Ryd( 3p)     0.00336
    22    C    2  py     Val( 2p)     1.06296
    23    C    2  py     Ryd( 3p)     0.00458
    24    C    2  pz     Val( 2p)     0.97381
    25    C    2  pz     Ryd( 3p)     0.00210
    26    C    2  dxy    Ryd( 3d)     0.00146
    27    C    2  dxz    Ryd( 3d)     0.00118
    28    C    2  dyz    Ryd( 3d)     0.00104
    29    C    2  dx2y2  Ryd( 3d)     0.00048
    30    C    2  dz2    Ryd( 3d)     0.00087

    31    N    3  S      Cor( 1S)     1.99967
    32    N    3  S      Val( 2S)     1.44462
    33    N    3  S      Ryd( 3S)     0.00050
    34    N    3  S      Ryd( 4S)     0.00001
    35    N    3  px     Val( 2p)     1.45947
    36    N    3  px     Ryd( 3p)     0.00327
    37    N    3  py     Val( 2p)     1.60688
    38    N    3  py     Ryd( 3p)     0.00416
    39    N    3  pz     Val( 2p)     1.40146
    40    N    3  pz     Ryd( 3p)     0.00319
    41    N    3  dxy    Ryd( 3d)     0.00116
    42    N    3  dxz    Ryd( 3d)     0.00113
    43    N    3  dyz    Ryd( 3d)     0.00117
    44    N    3  dx2y2  Ryd( 3d)     0.00068
    45    N    3  dz2    Ryd( 3d)     0.00048

    46    C    4  S      Cor( 1S)     1.99929
    47    C    4  S      Val( 2S)     1.04153
    48    C    4  S      Ryd( 3S)     0.00105
    49    C    4  S      Ryd( 4S)     0.00002
    50    C    4  px     Val( 2p)     1.14797
    51    C    4  px     Ryd( 3p)     0.00323
    52    C    4  py     Val( 2p)     1.13118
    53    C    4  py     Ryd( 3p)     0.00282
    54    C    4  pz     Val( 2p)     1.15209
    55    C    4  pz     Ryd( 3p)     0.00238
    56    C    4  dxy    Ryd( 3d)     0.00088
    57    C    4  dxz    Ryd( 3d)     0.00090
    58    C    4  dyz    Ryd( 3d)     0.00076
    59    C    4  dx2y2  Ryd( 3d)     0.00029
    60    C    4  dz2    Ryd( 3d)     0.00028

    61    C    5  S      Cor( 1S)     1.99933
    62    C    5  S      Val( 2S)     1.04025
    63    C    5  S      Ryd( 3S)     0.00080
    64    C    5  S      Ryd( 4S)     0.00003
    65    C    5  px     Val( 2p)     1.10053
    66    C    5  px     Ryd( 3p)     0.00255
    67    C    5  py     Val( 2p)     1.16522
    68    C    5  py     Ryd( 3p)     0.00246
    69    C    5  pz     Val( 2p)     1.16424
    70    C    5  pz     Ryd( 3p)     0.00365
    71    C    5  dxy    Ryd( 3d)     0.00077
    72    C    5  dxz    Ryd( 3d)     0.00086
    73    C    5  dyz    Ryd( 3d)     0.00087
    74    C    5  dx2y2  Ryd( 3d)     0.00030
    75    C    5  dz2    Ryd( 3d)     0.00029

    76    C    6  S      Cor( 1S)     1.99927
    77    C    6  S      Val( 2S)     1.04122
    78    C    6  S      Ryd( 3S)     0.00196
    79    C    6  S      Ryd( 4S)     0.00005
    80    C    6  px     Val( 2p)     1.06262
    81    C    6  px     Ryd( 3p)     0.00267
    82    C    6  py     Val( 2p)     1.10743
    83    C    6  py     Ryd( 3p)     0.00477
    84    C    6  pz     Val( 2p)     1.09859
    85    C    6  pz     Ryd( 3p)     0.00583
    86    C    6  dxy    Ryd( 3d)     0.00114
    87    C    6  dxz    Ryd( 3d)     0.00109
    88    C    6  dyz    Ryd( 3d)     0.00127
    89    C    6  dx2y2  Ryd( 3d)     0.00046
    90    C    6  dz2    Ryd( 3d)     0.00031

    91    N    7  S      Cor( 1S)     1.99932
    92    N    7  S      Val( 2S)     1.28951
    93    N    7  S      Ryd( 3S)     0.00142
    94    N    7  S      Ryd( 4S)     0.00006
    95    N    7  px     Val( 2p)     1.23345
    96    N    7  px     Ryd( 3p)     0.00139
    97    N    7  py     Val( 2p)     1.24800
    98    N    7  py     Ryd( 3p)     0.00109
    99    N    7  pz     Val( 2p)     1.24977
   100    N    7  pz     Ryd( 3p)     0.00099
   101    N    7  dxy    Ryd( 3d)     0.00080
   102    N    7  dxz    Ryd( 3d)     0.00084
   103    N    7  dyz    Ryd( 3d)     0.00093
   104    N    7  dx2y2  Ryd( 3d)     0.00055
   105    N    7  dz2    Ryd( 3d)     0.00066

   106    C    8  S      Cor( 1S)     1.99931
   107    C    8  S      Val( 2S)     1.04550
   108    C    8  S      Ryd( 3S)     0.00196
   109    C    8  S      Ryd( 4S)     0.00004
   110    C    8  px     Val( 2p)     1.13487
   111    C    8  px     Ryd( 3p)     0.00411
   112    C    8  py     Val( 2p)     1.00843
   113    C    8  py     Ryd( 3p)     0.00248
   114    C    8  pz     Val( 2p)     1.11891
   115    C    8  pz     Ryd( 3p)     0.00562
   116    C    8  dxy    Ryd( 3d)     0.00115
   117    C    8  dxz    Ryd( 3d)     0.00118
   118    C    8  dyz    Ryd( 3d)     0.00114
   119    C    8  dx2y2  Ryd( 3d)     0.00048
   120    C    8  dz2    Ryd( 3d)     0.00032

   121    C    9  S      Cor( 1S)     1.99945
   122    C    9  S      Val( 2S)     1.11923
   123    C    9  S      Ryd( 3S)     0.00046
   124    C    9  S      Ryd( 4S)     0.00001
   125    C    9  px     Val( 2p)     1.22498
   126    C    9  px     Ryd( 3p)     0.00185
   127    C    9  py     Val( 2p)     1.15938
   128    C    9  py     Ryd( 3p)     0.00163
   129    C    9  pz     Val( 2p)     1.19959
   130    C    9  pz     Ryd( 3p)     0.00256
   131    C    9  dxy    Ryd( 3d)     0.00058
   132    C    9  dxz    Ryd( 3d)     0.00088
   133    C    9  dyz    Ryd( 3d)     0.00081
   134    C    9  dx2y2  Ryd( 3d)     0.00030
   135    C    9  dz2    Ryd( 3d)     0.00008

   136    C   10  S      Cor( 1S)     1.99931
   137    C   10  S      Val( 2S)     1.04411
   138    C   10  S      Ryd( 3S)     0.00149
   139    C   10  S      Ryd( 4S)     0.00004
   140    C   10  px     Val( 2p)     1.08215
   141    C   10  px     Ryd( 3p)     0.00448
   142    C   10  py     Val( 2p)     1.11568
   143    C   10  py     Ryd( 3p)     0.00457
   144    C   10  pz     Val( 2p)     1.06084
   145    C   10  pz     Ryd( 3p)     0.00291
   146    C   10  dxy    Ryd( 3d)     0.00118
   147    C   10  dxz    Ryd( 3d)     0.00113
   148    C   10  dyz    Ryd( 3d)     0.00122
   149    C   10  dx2y2  Ryd( 3d)     0.00043
   150    C   10  dz2    Ryd( 3d)     0.00035

   151    C   11  S      Cor( 1S)     1.99940
   152    C   11  S      Val( 2S)     1.14211
   153    C   11  S      Ryd( 3S)     0.00049
   154    C   11  S      Ryd( 4S)     0.00004
   155    C   11  px     Val( 2p)     1.13525
   156    C   11  px     Ryd( 3p)     0.00263
   157    C   11  py     Val( 2p)     1.17524
   158    C   11  py     Ryd( 3p)     0.00243
   159    C   11  pz     Val( 2p)     1.23568
   160    C   11  pz     Ryd( 3p)     0.00125
   161    C   11  dxy    Ryd( 3d)     0.00075
   162    C   11  dxz    Ryd( 3d)     0.00070
   163    C   11  dyz    Ryd( 3d)     0.00081
   164    C   11  dx2y2  Ryd( 3d)     0.00022
   165    C   11  dz2    Ryd( 3d)     0.00021

   166    H   12  S      Val( 1S)     0.77581
   167    H   12  S      Ryd( 2S)     0.00357
   168    H   12  px     Ryd( 2p)     0.00020
   169    H   12  py     Ryd( 2p)     0.00021
   170    H   12  pz     Ryd( 2p)     0.00012

   171    H   13  S      Val( 1S)     0.78036
   172    H   13  S      Ryd( 2S)     0.01112
   173    H   13  px     Ryd( 2p)     0.00016
   174    H   13  py     Ryd( 2p)     0.00014
   175    H   13  pz     Ryd( 2p)     0.00023

   176    H   14  S      Val( 1S)     0.76873
   177    H   14  S      Ryd( 2S)     0.00426
   178    H   14  px     Ryd( 2p)     0.00016
   179    H   14  py     Ryd( 2p)     0.00024
   180    H   14  pz     Ryd( 2p)     0.00011

   181    H   15  S      Val( 1S)     0.79904
   182    H   15  S      Ryd( 2S)     0.03187
   183    H   15  px     Ryd( 2p)     0.00021
   184    H   15  py     Ryd( 2p)     0.00023
   185    H   15  pz     Ryd( 2p)     0.00014

   186    H   16  S      Val( 1S)     0.62229
   187    H   16  S      Ryd( 2S)     0.00552
   188    H   16  px     Ryd( 2p)     0.00044
   189    H   16  py     Ryd( 2p)     0.00047
   190    H   16  pz     Ryd( 2p)     0.00051

   191    H   17  S      Val( 1S)     0.62052
   192    H   17  S      Ryd( 2S)     0.00271
   193    H   17  px     Ryd( 2p)     0.00045
   194    H   17  py     Ryd( 2p)     0.00054
   195    H   17  pz     Ryd( 2p)     0.00044

   196    H   18  S      Val( 1S)     0.76465
   197    H   18  S      Ryd( 2S)     0.00505
   198    H   18  px     Ryd( 2p)     0.00020
   199    H   18  py     Ryd( 2p)     0.00020
   200    H   18  pz     Ryd( 2p)     0.00015

   201    H   19  S      Val( 1S)     0.77923
   202    H   19  S      Ryd( 2S)     0.00920
   203    H   19  px     Ryd( 2p)     0.00016
   204    H   19  py     Ryd( 2p)     0.00014
   205    H   19  pz     Ryd( 2p)     0.00025

   206    H   20  S      Val( 1S)     0.76212
   207    H   20  S      Ryd( 2S)     0.01042
   208    H   20  px     Ryd( 2p)     0.00018
   209    H   20  py     Ryd( 2p)     0.00017
   210    H   20  pz     Ryd( 2p)     0.00020

   211    H   21  S      Val( 1S)     0.77038
   212    H   21  S      Ryd( 2S)     0.01724
   213    H   21  px     Ryd( 2p)     0.00016
   214    H   21  py     Ryd( 2p)     0.00024
   215    H   21  pz     Ryd( 2p)     0.00016

   216    H   22  S      Val( 1S)     0.79278
   217    H   22  S      Ryd( 2S)     0.03776
   218    H   22  px     Ryd( 2p)     0.00017
   219    H   22  py     Ryd( 2p)     0.00016
   220    H   22  pz     Ryd( 2p)     0.00020

   221    H   23  S      Val( 1S)     0.72858
   222    H   23  S      Ryd( 2S)     0.02107
   223    H   23  px     Ryd( 2p)     0.00015
   224    H   23  py     Ryd( 2p)     0.00021
   225    H   23  pz     Ryd( 2p)     0.00020

   226    H   24  S      Val( 1S)     0.72385
   227    H   24  S      Ryd( 2S)     0.01935
   228    H   24  px     Ryd( 2p)     0.00024
   229    H   24  py     Ryd( 2p)     0.00010
   230    H   24  pz     Ryd( 2p)     0.00021

   231    H   25  S      Val( 1S)     0.78513
   232    H   25  S      Ryd( 2S)     0.03672
   233    H   25  px     Ryd( 2p)     0.00017
   234    H   25  py     Ryd( 2p)     0.00015
   235    H   25  pz     Ryd( 2p)     0.00019

   236    H   26  S      Val( 1S)     0.76950
   237    H   26  S      Ryd( 2S)     0.01358
   238    H   26  px     Ryd( 2p)     0.00023
   239    H   26  py     Ryd( 2p)     0.00014
   240    H   26  pz     Ryd( 2p)     0.00016

   241    H   27  S      Val( 1S)     0.75808
   242    H   27  S      Ryd( 2S)     0.00695
   243    H   27  px     Ryd( 2p)     0.00019
   244    H   27  py     Ryd( 2p)     0.00013
   245    H   27  pz     Ryd( 2p)     0.00018

   246    H   28  S      Val( 1S)     0.75801
   247    H   28  S      Ryd( 2S)     0.00751
   248    H   28  px     Ryd( 2p)     0.00012
   249    H   28  py     Ryd( 2p)     0.00023
   250    H   28  pz     Ryd( 2p)     0.00015

   251    H   29  S      Val( 1S)     0.75223
   252    H   29  S      Ryd( 2S)     0.01660
   253    H   29  px     Ryd( 2p)     0.00014
   254    H   29  py     Ryd( 2p)     0.00017
   255    H   29  pz     Ryd( 2p)     0.00022

   256    H   30  S      Val( 1S)     0.76062
   257    H   30  S      Ryd( 2S)     0.02082
   258    H   30  px     Ryd( 2p)     0.00017
   259    H   30  py     Ryd( 2p)     0.00017
   260    H   30  pz     Ryd( 2p)     0.00018

   261    H   31  S      Val( 1S)     0.77347
   262    H   31  S      Ryd( 2S)     0.01869
   263    H   31  px     Ryd( 2p)     0.00020
   264    H   31  py     Ryd( 2p)     0.00016
   265    H   31  pz     Ryd( 2p)     0.00015

   266    H   32  S      Val( 1S)     0.76182
   267    H   32  S      Ryd( 2S)     0.01325
   268    H   32  px     Ryd( 2p)     0.00015
   269    H   32  py     Ryd( 2p)     0.00015
   270    H   32  pz     Ryd( 2p)     0.00020

   271    H   33  S      Val( 1S)     0.77728
   272    H   33  S      Ryd( 2S)     0.02131
   273    H   33  px     Ryd( 2p)     0.00013
   274    H   33  py     Ryd( 2p)     0.00021
   275    H   33  pz     Ryd( 2p)     0.00017


 Summary of Natural Population Analysis:                  
                                                          
                                       Natural Population 
                Natural  -----------------------------------------------
    Atom  No    Charge         Core      Valence    Rydberg      Total
 -----------------------------------------------------------------------
      C    1   -0.70092      1.99941     4.69183    0.00968     6.70092
      C    2   -0.06005      1.99924     4.04413    0.01668     6.06005
      N    3   -0.92787      1.99967     5.91244    0.01576     7.92787
      C    4   -0.48469      1.99929     4.47278    0.01262     6.48469
      C    5   -0.48215      1.99933     4.47024    0.01258     6.48215
      C    6   -0.32867      1.99927     4.30987    0.01954     6.32867
      N    7   -0.02878      1.99932     5.02072    0.00873     7.02878
      C    8   -0.32552      1.99931     4.30772    0.01849     6.32552
      C    9   -0.71182      1.99945     4.70319    0.00918     6.71182
      C   10   -0.31988      1.99931     4.30278    0.01779     6.31988
      C   11   -0.69719      1.99940     4.68827    0.00952     6.69719
      H   12    0.22010      0.00000     0.77581    0.00410     0.77990
      H   13    0.20799      0.00000     0.78036    0.01165     0.79201
      H   14    0.22651      0.00000     0.76873    0.00476     0.77349
      H   15    0.16852      0.00000     0.79904    0.03244     0.83148
      H   16    0.37078      0.00000     0.62229    0.00694     0.62922
      H   17    0.37533      0.00000     0.62052    0.00414     0.62467
      H   18    0.22975      0.00000     0.76465    0.00560     0.77025
      H   19    0.21102      0.00000     0.77923    0.00975     0.78898
      H   20    0.22691      0.00000     0.76212    0.01097     0.77309
      H   21    0.21182      0.00000     0.77038    0.01780     0.78818
      H   22    0.16893      0.00000     0.79278    0.03829     0.83107
      H   23    0.24979      0.00000     0.72858    0.02164     0.75021
      H   24    0.25625      0.00000     0.72385    0.01990     0.74375
      H   25    0.17763      0.00000     0.78513    0.03724     0.82237
      H   26    0.21640      0.00000     0.76950    0.01410     0.78360
      H   27    0.23446      0.00000     0.75808    0.00745     0.76554
      H   28    0.23397      0.00000     0.75801    0.00801     0.76603
      H   29    0.23064      0.00000     0.75223    0.01713     0.76936
      H   30    0.21804      0.00000     0.76062    0.02134     0.78196
      H   31    0.20733      0.00000     0.77347    0.01920     0.79267
      H   32    0.22443      0.00000     0.76182    0.01375     0.77557
      H   33    0.20090      0.00000     0.77728    0.02182     0.79910
 =======================================================================
   * Total *   -0.00000     21.99299    67.50845    0.49856    90.00000

                                 Natural Population      
 --------------------------------------------------------
   Core                      21.99299 ( 99.9681% of  22)
   Valence                   67.50845 ( 99.2771% of  68)
   Natural Minimal Basis     89.50144 ( 99.4460% of  90)
   Natural Rydberg Basis      0.49856 (  0.5540% of  90)
 --------------------------------------------------------

    Atom  No          Natural Electron Configuration
 ----------------------------------------------------------------------------
      C    1      [core]2S( 1.11)2p( 3.58)3p( 0.01)
      C    2      [core]2S( 0.96)2p( 3.08)3p( 0.01)3d( 0.01)
      N    3      [core]2S( 1.44)2p( 4.47)3p( 0.01)
      C    4      [core]2S( 1.04)2p( 3.43)3p( 0.01)
      C    5      [core]2S( 1.04)2p( 3.43)3p( 0.01)
      C    6      [core]2S( 1.04)2p( 3.27)3p( 0.01)
      N    7      [core]2S( 1.29)2p( 3.73)
      C    8      [core]2S( 1.05)2p( 3.26)3p( 0.01)
      C    9      [core]2S( 1.12)2p( 3.58)3p( 0.01)
      C   10      [core]2S( 1.04)2p( 3.26)3p( 0.01)
      C   11      [core]2S( 1.14)2p( 3.55)3p( 0.01)
      H   12            1S( 0.78)
      H   13            1S( 0.78)2S( 0.01)
      H   14            1S( 0.77)
      H   15            1S( 0.80)2S( 0.03)
      H   16            1S( 0.62)2S( 0.01)
      H   17            1S( 0.62)
      H   18            1S( 0.76)2S( 0.01)
      H   19            1S( 0.78)2S( 0.01)
      H   20            1S( 0.76)2S( 0.01)
      H   21            1S( 0.77)2S( 0.02)
      H   22            1S( 0.79)2S( 0.04)
      H   23            1S( 0.73)2S( 0.02)
      H   24            1S( 0.72)2S( 0.02)
      H   25            1S( 0.79)2S( 0.04)
      H   26            1S( 0.77)2S( 0.01)
      H   27            1S( 0.76)2S( 0.01)
      H   28            1S( 0.76)2S( 0.01)
      H   29            1S( 0.75)2S( 0.02)
      H   30            1S( 0.76)2S( 0.02)
      H   31            1S( 0.77)2S( 0.02)
      H   32            1S( 0.76)2S( 0.01)
      H   33            1S( 0.78)2S( 0.02)


 NBO analysis skipped by request.
 1\1\GINC-CN34\SP\RB3LYP TD-FC\6-31G(d,p)\C9H22N2\QDUEZ\11-Jul-2024\0\\
 # TD(NStates=10, Root=1) B3LYP/6-31G** SCRF=(Solvent=water) volume pop
 =NPA density=current Geom=AllCheck Guess=Read\\CAPCBAYULRXQAN-VIFPVBQE
 SA-N_conf_1\\0,1\C,0,3.4562427686,1.1042826289,0.2607522746\C,0,2.4951
 777054,0.3016786833,-0.6207037485\N,0,3.2367823366,-0.177014559,-1.806
 5937597\C,0,1.7945644171,-0.8418924677,0.1429993452\C,0,0.9122719912,-
 0.4368202416,1.3359735473\C,0,-0.246283714,0.5161914629,1.0020485437\N
 ,0,-1.1204872081,0.0537806458,-0.0827369361\C,0,-1.9952750453,1.135252
 9984,-0.5540006854\C,0,-2.7413647353,0.8087286298,-1.8485462286\C,0,-1
 .8259818903,-1.2029741624,0.2132261196\C,0,-2.859428577,-1.180060016,1
 .3534338649\H,0,4.2356573817,0.4528113462,0.6764382589\H,0,2.938658914
 2,1.57950337,1.0989257823\H,0,3.9476098125,1.886311935,-0.3255331887\H
 ,0,1.7238914312,0.9843836027,-1.0006942624\H,0,2.6005472276,-0.7161419
 274,-2.3936295999\H,0,3.9367431243,-0.8521364738,-1.4951677311\H,0,2.5
 676641571,-1.5390878312,0.4975232771\H,0,1.1809552948,-1.3969970947,-0
 .5770191126\H,0,1.520359305,0.0515109856,2.1073737077\H,0,0.5239863212
 ,-1.3473555925,1.8082742556\H,0,0.1696945655,1.4788909385,0.6828371421
 \H,0,-0.8045300396,0.7277178467,1.9334351365\H,0,-2.7239200817,1.45369
 30362,0.2152958989\H,0,-1.3519375549,2.0044128436,-0.734885457\H,0,-3.
 5079177097,0.0407196345,-1.7094155465\H,0,-2.0454893508,0.4610459737,-
 2.6190723406\H,0,-3.2443398608,1.7067727291,-2.2210336388\H,0,-2.31864
 74384,-1.5337664833,-0.706735469\H,0,-1.0707321616,-1.9644245967,0.432
 6758672\H,0,-3.6732512462,-0.4754296252,1.154809523\H,0,-3.3041752591,
 -2.174340633,1.4671815407\H,0,-2.4070448814,-0.9092475865,2.3125636197
 \\Version=EM64L-G16RevA.03\State=1-A\HF=-465.7357941\RMSD=3.690e-09\Di
 pole=-1.4788295,-0.7501613,0.40062\Quadrupole=-1.8244961,1.8928218,-0.
 0683257,-5.3529144,3.7955686,3.0803541\PG=C01 [X(C9H22N2)]\\@


 A CHEMICAL PHYSICIST MAKES PRECISE MEASUREMENTS ON IMPURE COMPOUNDS.
 A THEORETICAL PHYSICAL CHEMIST MAKES IMPRECISE
     MEASUREMENTS ON PURE COMPOUNDS.
 AN EXPERIMENTAL PHYSICAL CHEMIST MAKES IMPRECISE
     MEASUREMENTS ON IMPURE COMPOUNDS.
 Job cpu time:       0 days  2 hours 11 minutes 46.1 seconds.
 Elapsed time:       0 days  0 hours 41 minutes 43.2 seconds.
 File lengths (MBytes):  RWF=    638 Int=      0 D2E=      0 Chk=     41 Scr=      1
 Normal termination of Gaussian 16 at Thu Jul 11 19:15:44 2024.
