 Entering Gaussian System, Link 0=g16
 Initial command:
 /opt/sw/arch/manual/gaussian/G16_A03/g16/l1.exe "/scratch/1380886/Gau-193731.inp" -scrdir="/scratch/1380886/"
 Entering Link 1 = /opt/sw/arch/manual/gaussian/G16_A03/g16/l1.exe PID=    193732.
  
 Copyright (c) 1988,1990,1992,1993,1995,1998,2003,2009,2016,
            Gaussian, Inc.  All Rights Reserved.
  
 This is part of the Gaussian(R) 16 program.  It is based on
 the Gaussian(R) 09 system (copyright 2009, Gaussian, Inc.),
 the Gaussian(R) 03 system (copyright 2003, Gaussian, Inc.),
 the Gaussian(R) 98 system (copyright 1998, Gaussian, Inc.),
 the Gaussian(R) 94 system (copyright 1995, Gaussian, Inc.),
 the Gaussian 92(TM) system (copyright 1992, Gaussian, Inc.),
 the Gaussian 90(TM) system (copyright 1990, Gaussian, Inc.),
 the Gaussian 88(TM) system (copyright 1988, Gaussian, Inc.),
 the Gaussian 86(TM) system (copyright 1986, Carnegie Mellon
 University), and the Gaussian 82(TM) system (copyright 1983,
 Carnegie Mellon University). Gaussian is a federally registered
 trademark of Gaussian, Inc.
  
 This software contains proprietary and confidential information,
 including trade secrets, belonging to Gaussian, Inc.
  
 This software is provided under written license and may be
 used, copied, transmitted, or stored only in accord with that
 written license.
  
 The following legend is applicable only to US Government
 contracts under FAR:
  
                    RESTRICTED RIGHTS LEGEND
  
 Use, reproduction and disclosure by the US Government is
 subject to restrictions as set forth in subparagraphs (a)
 and (c) of the Commercial Computer Software - Restricted
 Rights clause in FAR 52.227-19.
  
 Gaussian, Inc.
 340 Quinnipiac St., Bldg. 40, Wallingford CT 06492
  
  
 ---------------------------------------------------------------
 Warning -- This program may not be used in any manner that
 competes with the business of Gaussian, Inc. or will provide
 assistance to any competitor of Gaussian, Inc.  The licensee
 of this program is prohibited from giving any competitor of
 Gaussian, Inc. access to this program.  By using this program,
 the user acknowledges that Gaussian, Inc. is engaged in the
 business of creating and licensing software in the field of
 computational chemistry and represents and warrants to the
 licensee that it is not a competitor of Gaussian, Inc. and that
 it will not use this program in any manner prohibited above.
 ---------------------------------------------------------------
  

 Cite this work as:
 Gaussian 16, Revision A.03,
 M. J. Frisch, G. W. Trucks, H. B. Schlegel, G. E. Scuseria, 
 M. A. Robb, J. R. Cheeseman, G. Scalmani, V. Barone, 
 G. A. Petersson, H. Nakatsuji, X. Li, M. Caricato, A. V. Marenich, 
 J. Bloino, B. G. Janesko, R. Gomperts, B. Mennucci, H. P. Hratchian, 
 J. V. Ortiz, A. F. Izmaylov, J. L. Sonnenberg, D. Williams-Young, 
 F. Ding, F. Lipparini, F. Egidi, J. Goings, B. Peng, A. Petrone, 
 T. Henderson, D. Ranasinghe, V. G. Zakrzewski, J. Gao, N. Rega, 
 G. Zheng, W. Liang, M. Hada, M. Ehara, K. Toyota, R. Fukuda, 
 J. Hasegawa, M. Ishida, T. Nakajima, Y. Honda, O. Kitao, H. Nakai, 
 T. Vreven, K. Throssell, J. A. Montgomery, Jr., J. E. Peralta, 
 F. Ogliaro, M. J. Bearpark, J. J. Heyd, E. N. Brothers, K. N. Kudin, 
 V. N. Staroverov, T. A. Keith, R. Kobayashi, J. Normand, 
 K. Raghavachari, A. P. Rendell, J. C. Burant, S. S. Iyengar, 
 J. Tomasi, M. Cossi, J. M. Millam, M. Klene, C. Adamo, R. Cammi, 
 J. W. Ochterski, R. L. Martin, K. Morokuma, O. Farkas, 
 J. B. Foresman, and D. J. Fox, Gaussian, Inc., Wallingford CT, 2016.
 
 ******************************************
 Gaussian 16:  ES64L-G16RevA.03 25-Dec-2016
                18-Jul-2024 
 ******************************************
 %nprocshared=4
 Will use up to    4 processors via shared memory.
 %mem=8GB
 %Chk=JTUXBPXZECVPKS-UHFFFAOYSA-N_conf_0_0.chk
 -------------------------------------------------------
 # opt=CalcFc B3LYP/6-31G** SCRF=(Solvent=water) scf=xqc
 -------------------------------------------------------
 1/10=4,18=20,19=15,26=3,38=1/1,3;
 2/9=110,12=2,17=6,18=5,40=1/2;
 3/5=1,6=6,7=101,11=2,25=1,30=1,70=2201,71=2,72=1,74=-5,140=1/1,2,3;
 4//1;
 5/5=2,8=3,13=1,38=5,53=1/2,8;
 8/6=4,10=90,11=11/1;
 11/6=1,8=1,9=11,15=111,16=1/1,2,10;
 10/6=1,13=1/2;
 6/7=2,8=2,9=2,10=2,28=1/1;
 7/10=1,18=20,25=1/1,2,3,16;
 1/10=4,18=20,19=15,26=3/3(2);
 2/9=110/2;
 99//99;
 2/9=110/2;
 3/5=1,6=6,7=101,11=2,25=1,30=1,70=2205,71=1,72=1,74=-5/1,2,3;
 4/5=5,16=3,69=1/1;
 5/5=2,8=3,13=1,38=5,53=1/2,8;
 7//1,2,3,16;
 1/18=20,19=15,26=3/3(-5);
 2/9=110/2;
 6/7=2,8=2,9=2,10=2,19=2,28=1/1;
 99/9=1/99;
 ----------------------------------
 JTUXBPXZECVPKS-UHFFFAOYSA-N_conf_0
 ----------------------------------
 Symbolic Z-matrix:
 Charge =  0 Multiplicity = 1
 O                     0.93432  -0.01763  -2.29378 
 C                     1.623    -0.26507  -1.13906 
 C                     2.90274   0.26268  -0.95598 
 C                     3.63224  -0.03715   0.2005 
 N                     4.86307   0.58738   0.43847 
 C                     3.02499  -0.7944    1.20796 
 C                     1.7457   -1.32567   1.02792 
 C                     1.03976  -1.04801  -0.14153 
 O                    -0.20273  -1.61386  -0.28928 
 C                    -1.29863  -0.7814   -0.20615 
 C                    -2.45835  -1.24609  -0.82703 
 C                    -3.63531  -0.49323  -0.77766 
 C                    -3.65983   0.74775  -0.13777 
 N                    -4.86667   1.44197   0.00972 
 C                    -2.51585   1.17207   0.54291 
 C                    -1.33435   0.42324   0.49792 
 H                     1.45511   0.58064  -2.85185 
 H                     3.34418   0.90269  -1.71289 
 H                     5.44494   0.10299   1.11555 
 H                     5.37588   0.82869  -0.40365 
 H                     3.54699  -0.98344   2.14229 
 H                     1.29273  -1.93607   1.80379 
 H                    -2.44814  -2.20061  -1.34577 
 H                    -4.5326   -0.88718  -1.24631 
 H                    -5.53157   1.2639   -0.73632 
 H                    -4.74595   2.43364   0.18939 
 H                    -2.5322    2.09298   1.11926 
 H                    -0.46348   0.78919   1.03251 
 

 GradGradGradGradGradGradGradGradGradGradGradGradGradGradGradGradGradGrad
 Berny optimization.
 Initialization pass.
                           ----------------------------
                           !    Initial Parameters    !
                           ! (Angstroms and Degrees)  !
 --------------------------                            --------------------------
 ! Name  Definition              Value          Derivative Info.                !
 --------------------------------------------------------------------------------
 ! R1    R(1,2)                  1.3671         calculate D2E/DX2 analytically  !
 ! R2    R(1,17)                 0.9698         calculate D2E/DX2 analytically  !
 ! R3    R(2,3)                  1.3963         calculate D2E/DX2 analytically  !
 ! R4    R(2,8)                  1.3958         calculate D2E/DX2 analytically  !
 ! R5    R(3,4)                  1.3998         calculate D2E/DX2 analytically  !
 ! R6    R(3,18)                 1.0851         calculate D2E/DX2 analytically  !
 ! R7    R(4,5)                  1.4006         calculate D2E/DX2 analytically  !
 ! R8    R(4,6)                  1.399          calculate D2E/DX2 analytically  !
 ! R9    R(5,19)                 1.0157         calculate D2E/DX2 analytically  !
 ! R10   R(5,20)                 1.0151         calculate D2E/DX2 analytically  !
 ! R11   R(6,7)                  1.3969         calculate D2E/DX2 analytically  !
 ! R12   R(6,21)                 1.0868         calculate D2E/DX2 analytically  !
 ! R13   R(7,8)                  1.3939         calculate D2E/DX2 analytically  !
 ! R14   R(7,22)                 1.0862         calculate D2E/DX2 analytically  !
 ! R15   R(8,9)                  1.3732         calculate D2E/DX2 analytically  !
 ! R16   R(9,10)                 1.3787         calculate D2E/DX2 analytically  !
 ! R17   R(10,11)                1.3951         calculate D2E/DX2 analytically  !
 ! R18   R(10,16)                1.3958         calculate D2E/DX2 analytically  !
 ! R19   R(11,12)                1.398          calculate D2E/DX2 analytically  !
 ! R20   R(11,23)                1.0864         calculate D2E/DX2 analytically  !
 ! R21   R(12,13)                1.3965         calculate D2E/DX2 analytically  !
 ! R22   R(12,24)                1.0863         calculate D2E/DX2 analytically  !
 ! R23   R(13,14)                1.4001         calculate D2E/DX2 analytically  !
 ! R24   R(13,15)                1.3972         calculate D2E/DX2 analytically  !
 ! R25   R(14,25)                1.0151         calculate D2E/DX2 analytically  !
 ! R26   R(14,26)                1.015          calculate D2E/DX2 analytically  !
 ! R27   R(15,16)                1.3995         calculate D2E/DX2 analytically  !
 ! R28   R(15,27)                1.0865         calculate D2E/DX2 analytically  !
 ! R29   R(16,28)                1.0854         calculate D2E/DX2 analytically  !
 ! A1    A(2,1,17)             109.0975         calculate D2E/DX2 analytically  !
 ! A2    A(1,2,3)              120.2677         calculate D2E/DX2 analytically  !
 ! A3    A(1,2,8)              119.6489         calculate D2E/DX2 analytically  !
 ! A4    A(3,2,8)              120.0834         calculate D2E/DX2 analytically  !
 ! A5    A(2,3,4)              120.3308         calculate D2E/DX2 analytically  !
 ! A6    A(2,3,18)             120.2861         calculate D2E/DX2 analytically  !
 ! A7    A(4,3,18)             119.3812         calculate D2E/DX2 analytically  !
 ! A8    A(3,4,5)              120.1885         calculate D2E/DX2 analytically  !
 ! A9    A(3,4,6)              118.9914         calculate D2E/DX2 analytically  !
 ! A10   A(5,4,6)              120.0303         calculate D2E/DX2 analytically  !
 ! A11   A(4,5,19)             113.8328         calculate D2E/DX2 analytically  !
 ! A12   A(4,5,20)             114.1427         calculate D2E/DX2 analytically  !
 ! A13   A(19,5,20)            112.1472         calculate D2E/DX2 analytically  !
 ! A14   A(4,6,7)              120.7023         calculate D2E/DX2 analytically  !
 ! A15   A(4,6,21)             120.3157         calculate D2E/DX2 analytically  !
 ! A16   A(7,6,21)             118.9808         calculate D2E/DX2 analytically  !
 ! A17   A(6,7,8)              119.7473         calculate D2E/DX2 analytically  !
 ! A18   A(6,7,22)             120.239          calculate D2E/DX2 analytically  !
 ! A19   A(8,7,22)             120.0016         calculate D2E/DX2 analytically  !
 ! A20   A(2,8,7)              119.9798         calculate D2E/DX2 analytically  !
 ! A21   A(2,8,9)              122.1617         calculate D2E/DX2 analytically  !
 ! A22   A(7,8,9)              117.8008         calculate D2E/DX2 analytically  !
 ! A23   A(8,9,10)             117.639          calculate D2E/DX2 analytically  !
 ! A24   A(9,10,11)            115.6455         calculate D2E/DX2 analytically  !
 ! A25   A(9,10,16)            124.8803         calculate D2E/DX2 analytically  !
 ! A26   A(11,10,16)           119.3859         calculate D2E/DX2 analytically  !
 ! A27   A(10,11,12)           120.3139         calculate D2E/DX2 analytically  !
 ! A28   A(10,11,23)           119.8228         calculate D2E/DX2 analytically  !
 ! A29   A(12,11,23)           119.8621         calculate D2E/DX2 analytically  !
 ! A30   A(11,12,13)           120.6323         calculate D2E/DX2 analytically  !
 ! A31   A(11,12,24)           119.0047         calculate D2E/DX2 analytically  !
 ! A32   A(13,12,24)           120.3629         calculate D2E/DX2 analytically  !
 ! A33   A(12,13,14)           120.2685         calculate D2E/DX2 analytically  !
 ! A34   A(12,13,15)           118.6037         calculate D2E/DX2 analytically  !
 ! A35   A(14,13,15)           120.257          calculate D2E/DX2 analytically  !
 ! A36   A(13,14,25)           113.5917         calculate D2E/DX2 analytically  !
 ! A37   A(13,14,26)           113.6139         calculate D2E/DX2 analytically  !
 ! A38   A(25,14,26)           112.2961         calculate D2E/DX2 analytically  !
 ! A39   A(13,15,16)           120.8687         calculate D2E/DX2 analytically  !
 ! A40   A(13,15,27)           120.2331         calculate D2E/DX2 analytically  !
 ! A41   A(16,15,27)           118.8981         calculate D2E/DX2 analytically  !
 ! A42   A(10,16,15)           119.9738         calculate D2E/DX2 analytically  !
 ! A43   A(10,16,28)           121.2587         calculate D2E/DX2 analytically  !
 ! A44   A(15,16,28)           118.7582         calculate D2E/DX2 analytically  !
 ! D1    D(17,1,2,3)            -3.3443         calculate D2E/DX2 analytically  !
 ! D2    D(17,1,2,8)           176.5982         calculate D2E/DX2 analytically  !
 ! D3    D(1,2,3,4)           -177.2277         calculate D2E/DX2 analytically  !
 ! D4    D(1,2,3,18)             2.2731         calculate D2E/DX2 analytically  !
 ! D5    D(8,2,3,4)              2.83           calculate D2E/DX2 analytically  !
 ! D6    D(8,2,3,18)          -177.6692         calculate D2E/DX2 analytically  !
 ! D7    D(1,2,8,7)            178.7871         calculate D2E/DX2 analytically  !
 ! D8    D(1,2,8,9)              1.6102         calculate D2E/DX2 analytically  !
 ! D9    D(3,2,8,7)             -1.2702         calculate D2E/DX2 analytically  !
 ! D10   D(3,2,8,9)           -178.4471         calculate D2E/DX2 analytically  !
 ! D11   D(2,3,4,5)           -174.2387         calculate D2E/DX2 analytically  !
 ! D12   D(2,3,4,6)             -4.4118         calculate D2E/DX2 analytically  !
 ! D13   D(18,3,4,5)             6.256          calculate D2E/DX2 analytically  !
 ! D14   D(18,3,4,6)           176.0829         calculate D2E/DX2 analytically  !
 ! D15   D(3,4,5,19)          -161.1451         calculate D2E/DX2 analytically  !
 ! D16   D(3,4,5,20)           -30.6314         calculate D2E/DX2 analytically  !
 ! D17   D(6,4,5,19)            29.1341         calculate D2E/DX2 analytically  !
 ! D18   D(6,4,5,20)           159.6478         calculate D2E/DX2 analytically  !
 ! D19   D(3,4,6,7)              4.5132         calculate D2E/DX2 analytically  !
 ! D20   D(3,4,6,21)          -175.8929         calculate D2E/DX2 analytically  !
 ! D21   D(5,4,6,7)            174.3565         calculate D2E/DX2 analytically  !
 ! D22   D(5,4,6,21)            -6.0495         calculate D2E/DX2 analytically  !
 ! D23   D(4,6,7,8)             -3.0071         calculate D2E/DX2 analytically  !
 ! D24   D(4,6,7,22)           178.2579         calculate D2E/DX2 analytically  !
 ! D25   D(21,6,7,8)           177.3936         calculate D2E/DX2 analytically  !
 ! D26   D(21,6,7,22)           -1.3414         calculate D2E/DX2 analytically  !
 ! D27   D(6,7,8,2)              1.3494         calculate D2E/DX2 analytically  !
 ! D28   D(6,7,8,9)            178.6478         calculate D2E/DX2 analytically  !
 ! D29   D(22,7,8,2)          -179.9126         calculate D2E/DX2 analytically  !
 ! D30   D(22,7,8,9)            -2.6142         calculate D2E/DX2 analytically  !
 ! D31   D(2,8,9,10)           -73.7073         calculate D2E/DX2 analytically  !
 ! D32   D(7,8,9,10)           109.0571         calculate D2E/DX2 analytically  !
 ! D33   D(8,9,10,11)          157.2467         calculate D2E/DX2 analytically  !
 ! D34   D(8,9,10,16)          -26.2053         calculate D2E/DX2 analytically  !
 ! D35   D(9,10,11,12)         178.6089         calculate D2E/DX2 analytically  !
 ! D36   D(9,10,11,23)          -0.9937         calculate D2E/DX2 analytically  !
 ! D37   D(16,10,11,12)          1.8586         calculate D2E/DX2 analytically  !
 ! D38   D(16,10,11,23)       -177.7439         calculate D2E/DX2 analytically  !
 ! D39   D(9,10,16,15)        -178.3035         calculate D2E/DX2 analytically  !
 ! D40   D(9,10,16,28)           0.5727         calculate D2E/DX2 analytically  !
 ! D41   D(11,10,16,15)         -1.8751         calculate D2E/DX2 analytically  !
 ! D42   D(11,10,16,28)        177.0011         calculate D2E/DX2 analytically  !
 ! D43   D(10,11,12,13)          1.6522         calculate D2E/DX2 analytically  !
 ! D44   D(10,11,12,24)       -178.4318         calculate D2E/DX2 analytically  !
 ! D45   D(23,11,12,13)       -178.7454         calculate D2E/DX2 analytically  !
 ! D46   D(23,11,12,24)          1.1706         calculate D2E/DX2 analytically  !
 ! D47   D(11,12,13,14)       -174.4016         calculate D2E/DX2 analytically  !
 ! D48   D(11,12,13,15)         -5.0547         calculate D2E/DX2 analytically  !
 ! D49   D(24,12,13,14)          5.6835         calculate D2E/DX2 analytically  !
 ! D50   D(24,12,13,15)        175.0305         calculate D2E/DX2 analytically  !
 ! D51   D(12,13,14,25)        -30.3668         calculate D2E/DX2 analytically  !
 ! D52   D(12,13,14,26)       -160.3641         calculate D2E/DX2 analytically  !
 ! D53   D(15,13,14,25)        160.4632         calculate D2E/DX2 analytically  !
 ! D54   D(15,13,14,26)         30.4659         calculate D2E/DX2 analytically  !
 ! D55   D(12,13,15,16)          5.0439         calculate D2E/DX2 analytically  !
 ! D56   D(12,13,15,27)       -174.8594         calculate D2E/DX2 analytically  !
 ! D57   D(14,13,15,16)        174.3921         calculate D2E/DX2 analytically  !
 ! D58   D(14,13,15,27)         -5.5112         calculate D2E/DX2 analytically  !
 ! D59   D(13,15,16,10)         -1.6145         calculate D2E/DX2 analytically  !
 ! D60   D(13,15,16,28)        179.4813         calculate D2E/DX2 analytically  !
 ! D61   D(27,15,16,10)        178.2901         calculate D2E/DX2 analytically  !
 ! D62   D(27,15,16,28)         -0.6141         calculate D2E/DX2 analytically  !
 --------------------------------------------------------------------------------
 Trust Radius=3.00D-01 FncErr=1.00D-07 GrdErr=1.00D-06 EigMax=2.50D+02 EigMin=1.00D-04
 Number of steps in this run=    145 maximum allowed number of steps=    168.
 GradGradGradGradGradGradGradGradGradGradGradGradGradGradGradGradGradGrad

                          Input orientation:                          
 ---------------------------------------------------------------------
 Center     Atomic      Atomic             Coordinates (Angstroms)
 Number     Number       Type             X           Y           Z
 ---------------------------------------------------------------------
      1          8           0        0.934318   -0.017632   -2.293781
      2          6           0        1.623000   -0.265067   -1.139064
      3          6           0        2.902738    0.262682   -0.955978
      4          6           0        3.632241   -0.037146    0.200498
      5          7           0        4.863069    0.587376    0.438474
      6          6           0        3.024993   -0.794397    1.207961
      7          6           0        1.745701   -1.325672    1.027924
      8          6           0        1.039763   -1.048013   -0.141534
      9          8           0       -0.202725   -1.613865   -0.289283
     10          6           0       -1.298633   -0.781402   -0.206150
     11          6           0       -2.458352   -1.246087   -0.827027
     12          6           0       -3.635306   -0.493229   -0.777659
     13          6           0       -3.659828    0.747750   -0.137767
     14          7           0       -4.866673    1.441972    0.009722
     15          6           0       -2.515849    1.172066    0.542914
     16          6           0       -1.334347    0.423242    0.497924
     17          1           0        1.455109    0.580638   -2.851848
     18          1           0        3.344178    0.902686   -1.712888
     19          1           0        5.444945    0.102994    1.115550
     20          1           0        5.375881    0.828692   -0.403648
     21          1           0        3.546994   -0.983437    2.142292
     22          1           0        1.292733   -1.936074    1.803788
     23          1           0       -2.448139   -2.200614   -1.345766
     24          1           0       -4.532603   -0.887179   -1.246313
     25          1           0       -5.531572    1.263901   -0.736322
     26          1           0       -4.745953    2.433638    0.189394
     27          1           0       -2.532198    2.092983    1.119262
     28          1           0       -0.463485    0.789192    1.032507
 ---------------------------------------------------------------------
                    Distance matrix (angstroms):
                    1          2          3          4          5
     1  O    0.000000
     2  C    1.367069   0.000000
     3  C    2.396449   1.396341   0.000000
     4  C    3.674316   2.425577   1.399824   0.000000
     5  N    4.823519   3.703152   2.427514   1.400571   0.000000
     6  C    4.151685   2.784655   2.411430   1.398986   2.424857
     7  C    3.661015   2.415735   2.792395   2.429808   3.704752
     8  C    2.388508   1.395792   2.419073   2.803530   4.198640
     9  O    2.803362   2.423769   3.689147   4.175272   5.571119
    10  C    3.150812   3.110123   4.393617   5.003279   6.344735
    11  C    3.894955   4.209180   5.570843   6.293860   7.652861
    12  C    4.838004   5.275647   6.584012   7.347247   8.652691
    13  C    5.132288   5.471441   6.631141   7.341986   8.543861
    14  N    6.409997   6.808050   7.917516   8.628774   9.776608
    15  C    4.622323   4.693024   5.695151   6.275226   7.402784
    16  C    3.624200   3.449551   4.482466   4.996741   6.199875
    17  H    0.969839   1.917559   2.406460   3.799787   4.737136
    18  H    2.644210   2.157632   1.085075   2.151118   2.652322
    19  H    5.655426   4.452642   3.283222   2.035400   1.015695
    20  H    4.900648   3.977595   2.596512   2.038369   1.015076
    21  H    5.238091   3.871060   3.401052   2.161781   2.665052
    22  H    4.538607   3.400253   3.878524   3.413175   4.580304
    23  H    4.135839   4.512565   5.903528   6.636456   8.025595
    24  H    5.633873   6.187889   7.529327   8.335496   9.658752
    25  H    6.773163   7.327199   8.496368   9.303001  10.482671
    26  H    6.666361   7.043534   8.032895   8.734932   9.787954
    27  H    5.302856   5.284516   6.098783   6.586493   7.577618
    28  H    3.697162   3.190705   3.944964   4.260287   5.363374
                    6          7          8          9         10
     6  C    0.000000
     7  C    1.396873   0.000000
     8  C    2.413835   1.393942   0.000000
     9  O    3.651224   2.369484   1.373243   0.000000
    10  C    4.549024   3.329735   2.354432   1.378738   0.000000
    11  C    5.866198   4.595785   3.570146   2.347825   1.395123
    12  C    6.956506   5.736578   4.750653   3.643754   2.422748
    13  C    6.991140   5.905731   5.030998   4.189480   2.813934
    14  N    8.289483   7.240172   6.411622   5.583901   4.209621
    15  C    5.916942   4.963340   4.247304   3.715441   2.420485
    16  C    4.581555   3.581382   2.865292   2.459688   1.395766
    17  H    4.564790   4.332562   3.189172   3.759121   4.054376
    18  H    3.393130   3.877210   3.403631   4.576046   5.163536
    19  H    2.582637   3.966505   4.723421   6.067729   6.928556
    20  H    3.279996   4.457453   4.732087   6.090978   6.868810
    21  H    1.086827   2.145599   3.392084   4.513357   5.388515
    22  H    2.158509   1.086157   2.153352   2.592520   3.476822
    23  H    6.201141   4.897778   3.865763   2.549964   2.152731
    24  H    7.946656   6.691901   5.683104   4.493531   3.398778
    25  H    9.012859   7.923204   6.991506   6.072725   4.730975
    26  H    8.476161   7.548320   6.760616   6.103469   4.730429
    27  H    6.263163   5.476857   4.920809   4.599039   3.397130
    28  H    3.835103   3.058296   2.648291   2.754960   2.167604
                   11         12         13         14         15
    11  C    0.000000
    12  C    1.398018   0.000000
    13  C    2.427758   1.396457   0.000000
    14  N    3.704838   2.425126   1.400062   0.000000
    15  C    2.779839   2.402145   1.397161   2.425596   0.000000
    16  C    2.409468   2.785936   2.432544   3.708568   1.399538
    17  H    4.769905   5.600694   5.792818   6.992525   5.257632
    18  H    6.250706   7.178887   7.180607   8.406919   6.284992
    19  H    8.249589   9.294658   9.213219  10.456825   8.052643
    20  H    8.115366   9.115308   9.039983  10.269221   7.955708
    21  H    6.704477   7.768645   7.754609   9.012228   6.630405
    22  H    4.633347   5.747281   5.958222   7.250390   5.075001
    23  H    1.086423   2.155753   3.408856   4.577672   3.866091
    24  H    2.146424   1.086267   2.159538   2.667241   3.392509
    25  H    3.968998   2.585544   2.031774   1.015077   3.277112
    26  H    4.450462   3.276474   2.031975   1.015016   2.586486
    27  H    3.865602   3.391702   2.159010   2.665459   1.086523
    28  H    3.402898   3.870626   3.404096   4.567306   2.144410
                   16         17         18         19         20
    16  C    0.000000
    17  H    4.361973   0.000000
    18  H    5.196745   2.229244   0.000000
    19  H    6.814897   5.646874   3.612865   0.000000
    20  H    6.782654   4.629003   2.418140   1.685044   0.000000
    21  H    5.339493   5.635933   4.296627   2.415936   3.620836
    22  H    3.764732   5.294823   4.963264   4.676786   5.402666
    23  H    3.394752   5.023842   6.581504   8.582859   8.442723
    24  H    3.871486   6.370629   8.091044  10.300986  10.091202
    25  H    4.454971   7.331848   8.936615  11.192008  10.921200
    26  H    3.971894   7.150939   8.450605  10.494955  10.265432
    27  H    2.146845   5.827136   6.630963   8.221610   8.152018
    28  H    1.085403   4.337362   4.695569   5.948723   6.013510
                   21         22         23         24         25
    21  H    0.000000
    22  H    2.470585   0.000000
    23  H    7.041994   4.897325   0.000000
    24  H    8.761952   6.658667   2.465763   0.000000
    25  H    9.785566   7.953813   4.677803   2.425938   0.000000
    26  H    9.179498   7.626689   5.395642   3.624169   1.685951
    27  H    6.889668   5.597497   4.951606   4.298713   3.623094
    28  H    4.523027   3.332604   4.305110   4.955902   5.388841
                   26         27         28
    26  H    0.000000
    27  H    2.425163   0.000000
    28  H    4.664181   2.446829   0.000000
 Stoichiometry    C12H12N2O2
 Framework group  C1[X(C12H12N2O2)]
 Deg. of freedom    78
 Full point group                 C1      NOp   1
 Largest Abelian subgroup         C1      NOp   1
 Largest concise Abelian subgroup C1      NOp   1
                         Standard orientation:                         
 ---------------------------------------------------------------------
 Center     Atomic      Atomic             Coordinates (Angstroms)
 Number     Number       Type             X           Y           Z
 ---------------------------------------------------------------------
      1          8           0        0.821000    1.489314    1.542071
      2          6           0        1.579543    0.761126    0.668439
      3          6           0        2.817936    0.253003    1.065885
      4          6           0        3.621554   -0.443196    0.155383
      5          7           0        4.805698   -1.055024    0.585580
      6          6           0        3.125720   -0.701797   -1.126972
      7          6           0        1.888203   -0.193697   -1.529018
      8          6           0        1.109299    0.526322   -0.624608
      9          8           0       -0.087240    1.031730   -1.070314
     10          6           0       -1.243685    0.448105   -0.598157
     11          6           0       -2.387703    1.244764   -0.652262
     12          6           0       -3.619741    0.740220   -0.225683
     13          6           0       -3.718343   -0.553089    0.291736
     14          7           0       -4.970810   -1.093248    0.607529
     15          6           0       -2.583925   -1.368487    0.275056
     16          6           0       -1.347496   -0.869982   -0.150907
     17          1           0        1.264374    1.512402    2.404321
     18          1           0        3.169826    0.401275    2.081551
     19          1           0        5.455956   -1.264483   -0.166037
     20          1           0        5.257933   -0.583796    1.362630
     21          1           0        3.703477   -1.297581   -1.828706
     22          1           0        1.523235   -0.375400   -2.535755
     23          1           0       -2.321676    2.259849   -1.033783
     24          1           0       -4.501495    1.370137   -0.301124
     25          1           0       -5.651749   -0.398235    0.896771
     26          1           0       -4.924963   -1.877994    1.249658
     27          1           0       -2.650652   -2.405243    0.593204
     28          1           0       -0.486739   -1.531129   -0.141898
 ---------------------------------------------------------------------
 Rotational constants (GHZ):           1.3878647           0.2530748           0.2504541
 Standard basis: 6-31G(d,p) (6D, 7F)
 There are   300 symmetry adapted cartesian basis functions of A   symmetry.
 There are   300 symmetry adapted basis functions of A   symmetry.
   300 basis functions,   532 primitive gaussians,   300 cartesian basis functions
    57 alpha electrons       57 beta electrons
       nuclear repulsion energy      1027.8369834104 Hartrees.
 NAtoms=   28 NActive=   28 NUniq=   28 SFac= 1.00D+00 NAtFMM=   60 NAOKFM=F Big=F
 Integral buffers will be    131072 words long.
 Raffenetti 2 integral format.
 Two-electron integral symmetry is turned on.
 Force inversion solution in PCM.
 ------------------------------------------------------------------------------
 Polarizable Continuum Model (PCM)
 =================================
 Model                : PCM.
 Atomic radii         : UFF (Universal Force Field).
 Polarization charges : Total charges.
 Charge compensation  : None.
 Solution method      : Matrix inversion.
 Cavity type          : Scaled VdW (van der Waals Surface) (Alpha=1.100).
 Cavity algorithm     : GePol (No added spheres)
                        Default sphere list used, NSphG=   28.
                        Lebedev-Laikov grids with approx.  5.0 points / Ang**2.
                        Smoothing algorithm: York/Karplus (Gamma=1.0000).
                        Polarization charges: spherical gaussians, with
                                              point-specific exponents (IZeta= 3).
                        Self-potential: point-specific (ISelfS= 7).
                        Self-field    : sphere-specific E.n sum rule (ISelfD= 2).
 1st derivatives      : Analytical E(r).r(x)/FMM algorithm (CHGder, D1EAlg=3).
                        Cavity 1st derivative terms included.
 2nd derivatives      : Analytical E(r).r(xy)/FMM algorithm (CHGder, D2EAlg=3).
                        Cavity 2nd derivative terms included.
 Solvent              : Water, Eps=  78.355300 Eps(inf)=   1.777849
 ------------------------------------------------------------------------------
 One-electron integrals computed using PRISM.
 NBasis=   300 RedAO= T EigKep=  3.80D-04  NBF=   300
 NBsUse=   300 1.00D-06 EigRej= -1.00D+00 NBFU=   300
 ExpMin= 1.61D-01 ExpMax= 5.48D+03 ExpMxC= 8.25D+02 IAcc=3 IRadAn=         5 AccDes= 0.00D+00
 Harris functional with IExCor=  402 and IRadAn=       5 diagonalized for initial guess.
 HarFok:  IExCor=  402 AccDes= 0.00D+00 IRadAn=         5 IDoV= 1 UseB2=F ITyADJ=14
 ICtDFT=  3500011 ScaDFX=  1.000000  1.000000  1.000000  1.000000
 FoFCou: FMM=F IPFlag=           0 FMFlag=      100000 FMFlg1=           0
         NFxFlg=           0 DoJE=T BraDBF=F KetDBF=T FulRan=T
         wScrn=  0.000000 ICntrl=       500 IOpCl=  0 I1Cent=   200000004 NGrid=           0
         NMat0=    1 NMatS0=      1 NMatT0=    0 NMatD0=    1 NMtDS0=    0 NMtDT0=    0
 Petite list used in FoFCou.
 Keep R1 ints in memory in canonical form, NReq=1032920980.
 Requested convergence on RMS density matrix=1.00D-08 within  32 cycles.
 Requested convergence on MAX density matrix=1.00D-06.
 Requested convergence on             energy=1.00D-06.
 No special actions if energy rises.
 Inv3:  Mode=1 IEnd=    14506803.
 Iteration    1 A*A^-1 deviation from unit magnitude is 3.55D-15 for   1487.
 Iteration    1 A*A^-1 deviation from orthogonality  is 2.53D-15 for   1272    185.
 Iteration    1 A^-1*A deviation from unit magnitude is 3.33D-15 for   1487.
 Iteration    1 A^-1*A deviation from orthogonality  is 2.31D-15 for   1341   1266.
 Error on total polarization charges =  0.00852
 SCF Done:  E(RB3LYP) =  -724.471315991     A.U. after   13 cycles
            NFock= 13  Conv=0.29D-08     -V/T= 2.0093
 QCSCF skips out because SCF is already converged.
 DoSCS=F DFT=T ScalE2(SS,OS)=  1.000000  1.000000
 Range of M.O.s used for correlation:     1   300
 NBasis=   300 NAE=    57 NBE=    57 NFC=     0 NFV=     0
 NROrb=    300 NOA=    57 NOB=    57 NVA=   243 NVB=   243
 Symmetrizing basis deriv contribution to polar:
 IMax=3 JMax=2 DiffMx= 0.00D+00
 G2DrvN: will do    29 centers at a time, making    1 passes.
 Calling FoFCou, ICntrl=  3107 FMM=F I1Cent=   0 AccDes= 0.00D+00.
 NEqPCM:  Using equilibrium solvation (IEInf=0, Eps=  78.3553, EpsInf=   1.7778)
 G2PCM: DoFxE=T DoFxN=T DoGrad=T DoDP/DQ/DG/TGxP=FFFF NFrqRd=   0 IEInf=0 SqF1=F DoCFld=F IF1Alg=4.
 End of G2Drv F.D. properties file   721 does not exist.
 End of G2Drv F.D. properties file   722 does not exist.
 End of G2Drv F.D. properties file   788 does not exist.
          IDoAtm=1111111111111111111111111111
 NEqPCM:  Using equilibrium solvation (IEInf=0, Eps=  78.3553, EpsInf=   1.7778)
          Differentiating once with respect to nuclear coordinates.
 Keep R1 ints in memory in canonical form, NReq=1032932655.
          There are    87 degrees of freedom in the 1st order CPHF.  IDoFFX=6 NUNeed=     0.
     81 vectors produced by pass  0 Test12= 1.59D-14 1.15D-09 XBig12= 1.31D-01 1.24D-01.
 AX will form    81 AO Fock derivatives at one time.
     81 vectors produced by pass  1 Test12= 1.59D-14 1.15D-09 XBig12= 1.84D-02 3.11D-02.
     81 vectors produced by pass  2 Test12= 1.59D-14 1.15D-09 XBig12= 2.57D-04 2.41D-03.
     81 vectors produced by pass  3 Test12= 1.59D-14 1.15D-09 XBig12= 1.83D-06 1.63D-04.
     81 vectors produced by pass  4 Test12= 1.59D-14 1.15D-09 XBig12= 4.08D-09 4.88D-06.
     63 vectors produced by pass  5 Test12= 1.59D-14 1.15D-09 XBig12= 4.28D-12 1.81D-07.
     16 vectors produced by pass  6 Test12= 1.59D-14 1.15D-09 XBig12= 3.08D-15 4.27D-09.
 InvSVY:  IOpt=1 It=  1 EMax= 3.89D-16
 Solved reduced A of dimension   484 with    87 vectors.
 End of Minotr F.D. properties file   721 does not exist.
 End of Minotr F.D. properties file   722 does not exist.
 End of Minotr F.D. properties file   788 does not exist.

 **********************************************************************

            Population analysis using the SCF density.

 **********************************************************************

 Orbital symmetries:
       Occupied  (A) (A) (A) (A) (A) (A) (A) (A) (A) (A) (A) (A)
                 (A) (A) (A) (A) (A) (A) (A) (A) (A) (A) (A) (A)
                 (A) (A) (A) (A) (A) (A) (A) (A) (A) (A) (A) (A)
                 (A) (A) (A) (A) (A) (A) (A) (A) (A) (A) (A) (A)
                 (A) (A) (A) (A) (A) (A) (A) (A) (A)
       Virtual   (A) (A) (A) (A) (A) (A) (A) (A) (A) (A) (A) (A)
                 (A) (A) (A) (A) (A) (A) (A) (A) (A) (A) (A) (A)
                 (A) (A) (A) (A) (A) (A) (A) (A) (A) (A) (A) (A)
                 (A) (A) (A) (A) (A) (A) (A) (A) (A) (A) (A) (A)
                 (A) (A) (A) (A) (A) (A) (A) (A) (A) (A) (A) (A)
                 (A) (A) (A) (A) (A) (A) (A) (A) (A) (A) (A) (A)
                 (A) (A) (A) (A) (A) (A) (A) (A) (A) (A) (A) (A)
                 (A) (A) (A) (A) (A) (A) (A) (A) (A) (A) (A) (A)
                 (A) (A) (A) (A) (A) (A) (A) (A) (A) (A) (A) (A)
                 (A) (A) (A) (A) (A) (A) (A) (A) (A) (A) (A) (A)
                 (A) (A) (A) (A) (A) (A) (A) (A) (A) (A) (A) (A)
                 (A) (A) (A) (A) (A) (A) (A) (A) (A) (A) (A) (A)
                 (A) (A) (A) (A) (A) (A) (A) (A) (A) (A) (A) (A)
                 (A) (A) (A) (A) (A) (A) (A) (A) (A) (A) (A) (A)
                 (A) (A) (A) (A) (A) (A) (A) (A) (A) (A) (A) (A)
                 (A) (A) (A) (A) (A) (A) (A) (A) (A) (A) (A) (A)
                 (A) (A) (A) (A) (A) (A) (A) (A) (A) (A) (A) (A)
                 (A) (A) (A) (A) (A) (A) (A) (A) (A) (A) (A) (A)
                 (A) (A) (A) (A) (A) (A) (A) (A) (A) (A) (A) (A)
                 (A) (A) (A) (A) (A) (A) (A) (A) (A) (A) (A) (A)
                 (A) (A) (A)
 The electronic state is 1-A.
 Alpha  occ. eigenvalues --  -19.18069 -19.17870 -14.33713 -14.33225 -10.25286
 Alpha  occ. eigenvalues --  -10.23842 -10.23371 -10.22936 -10.22064 -10.19158
 Alpha  occ. eigenvalues --  -10.18712 -10.18520 -10.18424 -10.18390 -10.18358
 Alpha  occ. eigenvalues --  -10.17996  -1.07696  -1.05540  -0.91439  -0.91087
 Alpha  occ. eigenvalues --   -0.84247  -0.82582  -0.74807  -0.74271  -0.73764
 Alpha  occ. eigenvalues --   -0.70386  -0.63458  -0.62530  -0.60974  -0.57796
 Alpha  occ. eigenvalues --   -0.55029  -0.54109  -0.51354  -0.50924  -0.49949
 Alpha  occ. eigenvalues --   -0.47882  -0.45946  -0.45166  -0.43957  -0.43538
 Alpha  occ. eigenvalues --   -0.42045  -0.41365  -0.40786  -0.40359  -0.38169
 Alpha  occ. eigenvalues --   -0.37954  -0.36953  -0.36487  -0.35674  -0.34686
 Alpha  occ. eigenvalues --   -0.33360  -0.29218  -0.28023  -0.24987  -0.23257
 Alpha  occ. eigenvalues --   -0.20156  -0.18865
 Alpha virt. eigenvalues --   -0.00691   0.00454   0.02016   0.02869   0.07905
 Alpha virt. eigenvalues --    0.09062   0.09370   0.10724   0.11218   0.13183
 Alpha virt. eigenvalues --    0.13335   0.16443   0.16885   0.17403   0.17734
 Alpha virt. eigenvalues --    0.17946   0.18856   0.19982   0.20356   0.25118
 Alpha virt. eigenvalues --    0.25847   0.26325   0.28755   0.33284   0.33792
 Alpha virt. eigenvalues --    0.34159   0.34706   0.35375   0.36037   0.37538
 Alpha virt. eigenvalues --    0.38783   0.46899   0.49368   0.49790   0.51827
 Alpha virt. eigenvalues --    0.52113   0.53072   0.53987   0.54068   0.56662
 Alpha virt. eigenvalues --    0.56687   0.57301   0.58069   0.58981   0.59310
 Alpha virt. eigenvalues --    0.59782   0.60036   0.60247   0.61330   0.62008
 Alpha virt. eigenvalues --    0.62403   0.63203   0.63524   0.64627   0.65315
 Alpha virt. eigenvalues --    0.68142   0.68517   0.70049   0.70376   0.73218
 Alpha virt. eigenvalues --    0.74192   0.76193   0.76719   0.78496   0.79523
 Alpha virt. eigenvalues --    0.81020   0.82274   0.82323   0.83273   0.84070
 Alpha virt. eigenvalues --    0.85513   0.85749   0.86199   0.86883   0.87113
 Alpha virt. eigenvalues --    0.88510   0.88736   0.90020   0.90402   0.91982
 Alpha virt. eigenvalues --    0.93356   0.95317   0.98055   0.98625   0.99789
 Alpha virt. eigenvalues --    1.00653   1.01905   1.02973   1.05484   1.05649
 Alpha virt. eigenvalues --    1.07775   1.08929   1.12264   1.15232   1.15804
 Alpha virt. eigenvalues --    1.17506   1.18950   1.21556   1.23164   1.24601
 Alpha virt. eigenvalues --    1.25834   1.27201   1.30221   1.31237   1.32011
 Alpha virt. eigenvalues --    1.34633   1.36148   1.37116   1.39093   1.39468
 Alpha virt. eigenvalues --    1.40771   1.41207   1.41829   1.43638   1.45006
 Alpha virt. eigenvalues --    1.48805   1.49709   1.52538   1.59200   1.65676
 Alpha virt. eigenvalues --    1.69554   1.73028   1.73620   1.75378   1.77043
 Alpha virt. eigenvalues --    1.78877   1.79140   1.80061   1.80457   1.82156
 Alpha virt. eigenvalues --    1.83990   1.85022   1.85966   1.86819   1.89112
 Alpha virt. eigenvalues --    1.90037   1.90797   1.92138   1.92942   1.93740
 Alpha virt. eigenvalues --    1.95149   1.96333   1.97200   1.97939   1.99698
 Alpha virt. eigenvalues --    2.01069   2.02536   2.03000   2.05796   2.07239
 Alpha virt. eigenvalues --    2.10877   2.13569   2.15944   2.16911   2.17668
 Alpha virt. eigenvalues --    2.22257   2.24749   2.25543   2.26182   2.27722
 Alpha virt. eigenvalues --    2.28368   2.30867   2.30918   2.32966   2.33234
 Alpha virt. eigenvalues --    2.34302   2.36012   2.36489   2.38997   2.39783
 Alpha virt. eigenvalues --    2.41633   2.42065   2.44386   2.44928   2.45777
 Alpha virt. eigenvalues --    2.46495   2.47382   2.47948   2.48932   2.49928
 Alpha virt. eigenvalues --    2.50909   2.52297   2.56157   2.56869   2.57299
 Alpha virt. eigenvalues --    2.57365   2.58399   2.60045   2.61324   2.66265
 Alpha virt. eigenvalues --    2.67873   2.69030   2.70434   2.72251   2.72722
 Alpha virt. eigenvalues --    2.74337   2.75316   2.78044   2.79543   2.82592
 Alpha virt. eigenvalues --    2.85966   2.87148   2.91638   2.95111   2.97787
 Alpha virt. eigenvalues --    3.00292   3.03521   3.06205   3.09604   3.12323
 Alpha virt. eigenvalues --    3.14624   3.18982   3.20485   3.25554   3.27819
 Alpha virt. eigenvalues --    3.28707   3.30906   3.33100   3.36459   3.38093
 Alpha virt. eigenvalues --    3.43623   3.48189   3.48872   3.53247   3.54760
 Alpha virt. eigenvalues --    3.79095   3.83863   4.02318   4.04241   4.08636
 Alpha virt. eigenvalues --    4.13174   4.14039   4.16030   4.16638   4.21280
 Alpha virt. eigenvalues --    4.30247   4.42616   4.44131   4.46255   4.49134
 Alpha virt. eigenvalues --    4.71687   4.84090   4.99926
          Condensed to atoms (all electrons):
               1          2          3          4          5          6
     1  O    8.127004   0.273611  -0.063940   0.004766  -0.000029   0.000137
     2  C    0.273611   4.683017   0.467141   0.003709   0.003216  -0.038005
     3  C   -0.063940   0.467141   5.180343   0.471697  -0.060855  -0.055823
     4  C    0.004766   0.003709   0.471697   4.599391   0.294334   0.535146
     5  N   -0.000029   0.003216  -0.060855   0.294334   6.827715  -0.068914
     6  C    0.000137  -0.038005  -0.055823   0.535146  -0.068914   4.991289
     7  C    0.003367  -0.055406  -0.044578  -0.018169   0.004227   0.489775
     8  C   -0.059855   0.457568  -0.053827  -0.031297   0.000700  -0.033884
     9  O   -0.001490  -0.057635   0.004923  -0.000022   0.000000   0.004970
    10  C    0.005084  -0.002808  -0.000101   0.000055   0.000000   0.000015
    11  C   -0.000410   0.000582  -0.000001  -0.000001  -0.000000   0.000009
    12  C   -0.000020  -0.000034   0.000000   0.000000  -0.000000  -0.000000
    13  C    0.000007   0.000004   0.000000   0.000000  -0.000000   0.000000
    14  N   -0.000000   0.000000  -0.000000  -0.000000   0.000000   0.000000
    15  C   -0.000023  -0.000118   0.000003  -0.000000  -0.000000   0.000002
    16  C    0.000083   0.001043  -0.000359   0.000021   0.000000  -0.000255
    17  H    0.303510  -0.032975  -0.007489   0.000664  -0.000010  -0.000022
    18  H   -0.006912  -0.032178   0.354859  -0.033600  -0.007149   0.005218
    19  H    0.000001  -0.000118   0.005175  -0.025117   0.344659  -0.009284
    20  H   -0.000001  -0.000103  -0.010224  -0.023784   0.343282   0.005483
    21  H    0.000002   0.000528   0.005693  -0.041537  -0.007399   0.362060
    22  H   -0.000049   0.006159   0.000393   0.003971  -0.000111  -0.034838
    23  H    0.000040  -0.000032  -0.000000  -0.000000  -0.000000  -0.000000
    24  H   -0.000000   0.000000   0.000000  -0.000000  -0.000000   0.000000
    25  H   -0.000000  -0.000000  -0.000000   0.000000  -0.000000   0.000000
    26  H   -0.000000   0.000000  -0.000000  -0.000000  -0.000000   0.000000
    27  H   -0.000000   0.000001  -0.000000  -0.000000   0.000000  -0.000000
    28  H   -0.000195   0.000714   0.000071  -0.000155  -0.000001   0.000506
               7          8          9         10         11         12
     1  O    0.003367  -0.059855  -0.001490   0.005084  -0.000410  -0.000020
     2  C   -0.055406   0.457568  -0.057635  -0.002808   0.000582  -0.000034
     3  C   -0.044578  -0.053827   0.004923  -0.000101  -0.000001   0.000000
     4  C   -0.018169  -0.031297  -0.000022   0.000055  -0.000001   0.000000
     5  N    0.004227   0.000700   0.000000   0.000000  -0.000000  -0.000000
     6  C    0.489775  -0.033884   0.004970   0.000015   0.000009  -0.000000
     7  C    4.930493   0.548902  -0.055039  -0.004990  -0.000201   0.000007
     8  C    0.548902   4.749366   0.206500  -0.039586   0.000381   0.000006
     9  O   -0.055039   0.206500   8.361175   0.244417  -0.052988   0.003694
    10  C   -0.004990  -0.039586   0.244417   4.620239   0.537004  -0.026386
    11  C   -0.000201   0.000381  -0.052988   0.537004   4.936080   0.515711
    12  C    0.000007   0.000006   0.003694  -0.026386   0.515711   4.936907
    13  C   -0.000000  -0.000017   0.000147  -0.034673  -0.024907   0.537233
    14  N    0.000000  -0.000000   0.000000   0.000534   0.004547  -0.070471
    15  C    0.000030   0.000123   0.003905  -0.020168  -0.039236  -0.049467
    16  C    0.000741   0.007085  -0.059733   0.482034  -0.064612  -0.039575
    17  H   -0.000108   0.006338  -0.000153  -0.000060   0.000018   0.000000
    18  H    0.000454   0.003790  -0.000052  -0.000001   0.000000  -0.000000
    19  H   -0.000030   0.000000  -0.000000  -0.000000  -0.000000   0.000000
    20  H   -0.000179  -0.000010  -0.000000   0.000000  -0.000000  -0.000000
    21  H   -0.030498   0.003732  -0.000068  -0.000006  -0.000000   0.000000
    22  H    0.360991  -0.036151  -0.001957   0.000581  -0.000059  -0.000001
    23  H    0.000001   0.000233  -0.000369  -0.040289   0.357539  -0.036047
    24  H   -0.000000   0.000000  -0.000060   0.004085  -0.033490   0.365314
    25  H   -0.000000  -0.000000  -0.000000  -0.000004  -0.000020  -0.009497
    26  H   -0.000000   0.000000  -0.000000  -0.000005  -0.000176   0.005496
    27  H    0.000000   0.000008  -0.000050   0.003326   0.000586   0.005249
    28  H    0.002541   0.009031  -0.007413  -0.042970   0.005168   0.000552
              13         14         15         16         17         18
     1  O    0.000007  -0.000000  -0.000023   0.000083   0.303510  -0.006912
     2  C    0.000004   0.000000  -0.000118   0.001043  -0.032975  -0.032178
     3  C    0.000000  -0.000000   0.000003  -0.000359  -0.007489   0.354859
     4  C    0.000000  -0.000000  -0.000000   0.000021   0.000664  -0.033600
     5  N   -0.000000   0.000000  -0.000000   0.000000  -0.000010  -0.007149
     6  C    0.000000   0.000000   0.000002  -0.000255  -0.000022   0.005218
     7  C   -0.000000   0.000000   0.000030   0.000741  -0.000108   0.000454
     8  C   -0.000017  -0.000000   0.000123   0.007085   0.006338   0.003790
     9  O    0.000147   0.000000   0.003905  -0.059733  -0.000153  -0.000052
    10  C   -0.034673   0.000534  -0.020168   0.482034  -0.000060  -0.000001
    11  C   -0.024907   0.004547  -0.039236  -0.064612   0.000018   0.000000
    12  C    0.537233  -0.070471  -0.049467  -0.039575   0.000000  -0.000000
    13  C    4.589436   0.294137   0.540733  -0.025382  -0.000001   0.000000
    14  N    0.294137   6.838924  -0.070545   0.004698   0.000000   0.000000
    15  C    0.540733  -0.070545   4.948894   0.499515  -0.000002  -0.000000
    16  C   -0.025382   0.004698   0.499515   4.988422   0.000040   0.000005
    17  H   -0.000001   0.000000  -0.000002   0.000040   0.378458   0.005788
    18  H    0.000000   0.000000  -0.000000   0.000005   0.005788   0.600346
    19  H    0.000000   0.000000   0.000000   0.000000   0.000000  -0.000056
    20  H    0.000000   0.000000   0.000000  -0.000000   0.000003   0.004265
    21  H   -0.000000  -0.000000  -0.000000   0.000000  -0.000001  -0.000185
    22  H    0.000001   0.000000  -0.000010   0.000087   0.000005   0.000012
    23  H    0.004320  -0.000104   0.000281   0.007073  -0.000000   0.000000
    24  H   -0.043123  -0.007266   0.005440   0.000421  -0.000000  -0.000000
    25  H   -0.025721   0.343787   0.005493  -0.000185   0.000000   0.000000
    26  H   -0.025638   0.343976  -0.009541  -0.000025   0.000000   0.000000
    27  H   -0.042057  -0.007218   0.364850  -0.032369   0.000000  -0.000000
    28  H    0.003877  -0.000107  -0.035774   0.363596  -0.000004   0.000003
              19         20         21         22         23         24
     1  O    0.000001  -0.000001   0.000002  -0.000049   0.000040  -0.000000
     2  C   -0.000118  -0.000103   0.000528   0.006159  -0.000032   0.000000
     3  C    0.005175  -0.010224   0.005693   0.000393  -0.000000   0.000000
     4  C   -0.025117  -0.023784  -0.041537   0.003971  -0.000000  -0.000000
     5  N    0.344659   0.343282  -0.007399  -0.000111  -0.000000  -0.000000
     6  C   -0.009284   0.005483   0.362060  -0.034838  -0.000000   0.000000
     7  C   -0.000030  -0.000179  -0.030498   0.360991   0.000001  -0.000000
     8  C    0.000000  -0.000010   0.003732  -0.036151   0.000233   0.000000
     9  O   -0.000000  -0.000000  -0.000068  -0.001957  -0.000369  -0.000060
    10  C   -0.000000   0.000000  -0.000006   0.000581  -0.040289   0.004085
    11  C   -0.000000  -0.000000  -0.000000  -0.000059   0.357539  -0.033490
    12  C    0.000000  -0.000000   0.000000  -0.000001  -0.036047   0.365314
    13  C    0.000000   0.000000  -0.000000   0.000001   0.004320  -0.043123
    14  N    0.000000   0.000000  -0.000000   0.000000  -0.000104  -0.007266
    15  C    0.000000   0.000000  -0.000000  -0.000010   0.000281   0.005440
    16  C    0.000000  -0.000000   0.000000   0.000087   0.007073   0.000421
    17  H    0.000000   0.000003  -0.000001   0.000005  -0.000000  -0.000000
    18  H   -0.000056   0.004265  -0.000185   0.000012   0.000000  -0.000000
    19  H    0.430160  -0.028423   0.004536  -0.000005  -0.000000  -0.000000
    20  H   -0.028423   0.431715  -0.000056   0.000003  -0.000000  -0.000000
    21  H    0.004536  -0.000056   0.616055  -0.006188  -0.000000  -0.000000
    22  H   -0.000005   0.000003  -0.006188   0.600282   0.000005  -0.000000
    23  H   -0.000000  -0.000000  -0.000000   0.000005   0.616129  -0.006780
    24  H   -0.000000  -0.000000  -0.000000  -0.000000  -0.006780   0.614724
    25  H    0.000000   0.000000  -0.000000   0.000000  -0.000007   0.004523
    26  H    0.000000   0.000000  -0.000000   0.000000   0.000003  -0.000060
    27  H   -0.000000  -0.000000  -0.000000   0.000000   0.000014  -0.000191
    28  H   -0.000000  -0.000000   0.000001   0.000046  -0.000153   0.000013
              25         26         27         28
     1  O   -0.000000  -0.000000  -0.000000  -0.000195
     2  C   -0.000000   0.000000   0.000001   0.000714
     3  C   -0.000000  -0.000000  -0.000000   0.000071
     4  C    0.000000  -0.000000  -0.000000  -0.000155
     5  N   -0.000000  -0.000000   0.000000  -0.000001
     6  C    0.000000   0.000000  -0.000000   0.000506
     7  C   -0.000000  -0.000000   0.000000   0.002541
     8  C   -0.000000   0.000000   0.000008   0.009031
     9  O   -0.000000  -0.000000  -0.000050  -0.007413
    10  C   -0.000004  -0.000005   0.003326  -0.042970
    11  C   -0.000020  -0.000176   0.000586   0.005168
    12  C   -0.009497   0.005496   0.005249   0.000552
    13  C   -0.025721  -0.025638  -0.042057   0.003877
    14  N    0.343787   0.343976  -0.007218  -0.000107
    15  C    0.005493  -0.009541   0.364850  -0.035774
    16  C   -0.000185  -0.000025  -0.032369   0.363596
    17  H    0.000000   0.000000   0.000000  -0.000004
    18  H    0.000000   0.000000  -0.000000   0.000003
    19  H    0.000000   0.000000  -0.000000  -0.000000
    20  H    0.000000   0.000000  -0.000000  -0.000000
    21  H   -0.000000  -0.000000  -0.000000   0.000001
    22  H    0.000000   0.000000   0.000000   0.000046
    23  H   -0.000007   0.000003   0.000014  -0.000153
    24  H    0.004523  -0.000060  -0.000191   0.000013
    25  H    0.435688  -0.028419  -0.000067   0.000003
    26  H   -0.028419   0.435412   0.004442  -0.000006
    27  H   -0.000067   0.004442   0.612396  -0.006217
    28  H    0.000003  -0.000006  -0.006217   0.603117
 Mulliken charges:
               1
     1  O   -0.584686
     2  C    0.322119
     3  C   -0.193101
     4  C    0.259927
     5  N   -0.673664
     6  C   -0.153584
     7  C   -0.132333
     8  C    0.260866
     9  O   -0.592702
    10  C    0.314672
    11  C   -0.141524
    12  C   -0.138671
    13  C    0.251623
    14  N   -0.674891
    15  C   -0.144383
    16  C   -0.132369
    17  H    0.346000
    18  H    0.105393
    19  H    0.278502
    20  H    0.278029
    21  H    0.093331
    22  H    0.106834
    23  H    0.098144
    24  H    0.096448
    25  H    0.274423
    26  H    0.274543
    27  H    0.097298
    28  H    0.103756
 Sum of Mulliken charges =  -0.00000
 Mulliken charges with hydrogens summed into heavy atoms:
               1
     1  O   -0.238686
     2  C    0.322119
     3  C   -0.087708
     4  C    0.259927
     5  N   -0.117133
     6  C   -0.060253
     7  C   -0.025499
     8  C    0.260866
     9  O   -0.592702
    10  C    0.314672
    11  C   -0.043380
    12  C   -0.042223
    13  C    0.251623
    14  N   -0.125925
    15  C   -0.047085
    16  C   -0.028613
 APT charges:
               1
     1  O   -0.973232
     2  C   -0.185598
     3  C   -0.414034
     4  C    0.206529
     5  N   -1.573025
     6  C   -0.430515
     7  C   -0.524216
     8  C   -0.287710
     9  O   -0.361880
    10  C   -0.347993
    11  C   -0.525944
    12  C   -0.388894
    13  C    0.223107
    14  N   -1.345910
    15  C   -0.453249
    16  C   -0.580404
    17  H    0.866771
    18  H    0.587928
    19  H    0.971093
    20  H    0.831087
    21  H    0.692392
    22  H    0.438021
    23  H    0.490684
    24  H    0.794506
    25  H    0.942602
    26  H    0.625978
    27  H    0.507995
    28  H    0.213911
 Sum of APT charges =  -0.00000
 APT charges with hydrogens summed into heavy atoms:
               1
     1  O   -0.106461
     2  C   -0.185598
     3  C    0.173893
     4  C    0.206529
     5  N    0.229155
     6  C    0.261877
     7  C   -0.086195
     8  C   -0.287710
     9  O   -0.361880
    10  C   -0.347993
    11  C   -0.035260
    12  C    0.405613
    13  C    0.223107
    14  N    0.222670
    15  C    0.054747
    16  C   -0.366494
 Electronic spatial extent (au):  <R**2>=           4478.9397
 Charge=             -0.0000 electrons
 Dipole moment (field-independent basis, Debye):
    X=              2.6197    Y=             -0.9543    Z=              3.7896  Tot=              4.7047
 Quadrupole moment (field-independent basis, Debye-Ang):
   XX=            -55.5353   YY=            -92.1394   ZZ=            -82.5555
   XY=             -0.0245   XZ=             -4.4234   YZ=              2.3299
 Traceless Quadrupole moment (field-independent basis, Debye-Ang):
   XX=             21.2081   YY=            -15.3960   ZZ=             -5.8121
   XY=             -0.0245   XZ=             -4.4234   YZ=              2.3299
 Octapole moment (field-independent basis, Debye-Ang**2):
  XXX=             66.3770  YYY=              1.1609  ZZZ=             31.7757  XYY=            -19.1770
  XXY=              1.6795  XXZ=             67.5894  XZZ=             23.3797  YZZ=              5.4104
  YYZ=              7.6804  XYZ=             34.2121
 Hexadecapole moment (field-independent basis, Debye-Ang**3):
 XXXX=          -3442.5658 YYYY=           -568.6467 ZZZZ=           -444.7853 XXXY=           -129.7839
 XXXZ=           -203.8996 YYYX=             43.5207 YYYZ=             -6.1926 ZZZX=             31.5766
 ZZZY=             43.2871 XXYY=           -879.2051 XXZZ=           -772.8827 YYZZ=           -168.5692
 XXYZ=            -16.1052 YYXZ=            -34.2689 ZZXY=             28.1387
 N-N= 1.027836983410D+03 E-N=-3.743557762797D+03  KE= 7.178248210858D+02
  Exact polarizability:   0.000   0.000   0.000   0.000   0.000   0.000
 Approx polarizability: 297.732 -40.864 200.556 -10.320  -5.432 184.096
 D2PCM: PCM CHGder 2nd derivatives, FixD1E=F FixD2E=F DoIter=F DoCFld=F I1PDM=0
 Calling FoFJK, ICntrl=    100147 FMM=F ISym2X=0 I1Cent= 0 IOpClX= 0 NMat=1 NMatS=1 NMatT=0.
 ***** Axes restored to original set *****
 -------------------------------------------------------------------
 Center     Atomic                   Forces (Hartrees/Bohr)
 Number     Number              X              Y              Z
 -------------------------------------------------------------------
      1        8          -0.005266526   -0.001442012    0.001572588
      2        6           0.007887381    0.008853560   -0.011295746
      3        6           0.000867143   -0.005954729    0.001935373
      4        6           0.001211292    0.014767650    0.007287188
      5        7           0.000775148   -0.003443789   -0.001865263
      6        6          -0.003124290   -0.011627912    0.006061070
      7        6           0.009862798    0.008742637   -0.002791480
      8        6           0.003263103   -0.005743713    0.011966827
      9        8          -0.004189902   -0.004469325   -0.006069750
     10        6          -0.008714748   -0.000042318   -0.001599396
     11        6          -0.007923172    0.003045403   -0.001201664
     12        6           0.007996455   -0.008846171   -0.006407963
     13        6          -0.009978464   -0.000935615    0.012679238
     14        7          -0.001669569    0.002712476   -0.002211189
     15        6           0.010829527   -0.000972142   -0.002190104
     16        6          -0.000902043    0.003622107    0.002126621
     17        1          -0.001214432   -0.001988419    0.001812898
     18        1          -0.000288721   -0.000134753   -0.002509866
     19        1           0.000074415    0.001717152   -0.003695696
     20        1           0.000872034   -0.001443815    0.003201808
     21        1           0.001719847   -0.000082297   -0.001325949
     22        1          -0.001513785    0.000836348   -0.001894352
     23        1           0.001538677    0.000552867    0.000520651
     24        1          -0.000624966    0.001297971   -0.000662816
     25        1           0.001002899    0.003797759    0.001702160
     26        1          -0.002742918   -0.001781159   -0.002742301
     27        1          -0.000581567    0.000665626   -0.000947620
     28        1           0.000834381   -0.001703386   -0.001455267
 -------------------------------------------------------------------
 Cartesian Forces:  Max     0.014767650 RMS     0.005014212
 FormGI is forming the generalized inverse of G from B-inverse, IUseBI=4.

 GradGradGradGradGradGradGradGradGradGradGradGradGradGradGradGradGradGrad
 Berny optimization.
 Internal  Forces:  Max     0.015864780 RMS     0.003195791
 Search for a local minimum.
 Step number   1 out of a maximum of  145
 All quantities printed in internal units (Hartrees-Bohrs-Radians)
 Mixed Optimization -- RFO/linear search
 Second derivative matrix not updated -- analytic derivatives used.
 ITU=  0
     Eigenvalues ---    0.00195   0.00458   0.00502   0.00544   0.00798
     Eigenvalues ---    0.01555   0.01616   0.01623   0.01729   0.01780
     Eigenvalues ---    0.01799   0.01860   0.01880   0.02008   0.02104
     Eigenvalues ---    0.02189   0.02245   0.02300   0.02587   0.02749
     Eigenvalues ---    0.02776   0.02817   0.02873   0.02891   0.03043
     Eigenvalues ---    0.10761   0.10833   0.11258   0.11740   0.11774
     Eigenvalues ---    0.12294   0.12541   0.13494   0.13606   0.15456
     Eigenvalues ---    0.15585   0.16990   0.17637   0.17822   0.18073
     Eigenvalues ---    0.19024   0.19275   0.19784   0.20110   0.20453
     Eigenvalues ---    0.22290   0.22607   0.24438   0.26189   0.32864
     Eigenvalues ---    0.33586   0.34103   0.35667   0.35725   0.35933
     Eigenvalues ---    0.36044   0.36182   0.36217   0.36554   0.37501
     Eigenvalues ---    0.39247   0.41268   0.41586   0.43724   0.45382
     Eigenvalues ---    0.45411   0.45575   0.45941   0.45999   0.46309
     Eigenvalues ---    0.47103   0.47760   0.47834   0.48016   0.49326
     Eigenvalues ---    0.51468   0.52326   0.52997
 RFO step:  Lambda=-6.92164789D-03 EMin= 1.94661012D-03
 Linear search not attempted -- first point.
 Iteration  1 RMS(Cart)=  0.07362730 RMS(Int)=  0.00161296
 Iteration  2 RMS(Cart)=  0.00268244 RMS(Int)=  0.00036255
 Iteration  3 RMS(Cart)=  0.00000341 RMS(Int)=  0.00036255
 Iteration  4 RMS(Cart)=  0.00000000 RMS(Int)=  0.00036255
 Variable       Old X    -DE/DX   Delta X   Delta X   Delta X     New X
                                 (Linear)    (Quad)   (Total)
    R1        2.58339  -0.00021   0.00000  -0.00568  -0.00568   2.57771
    R2        1.83273  -0.00292   0.00000  -0.00406  -0.00406   1.82867
    R3        2.63870   0.00234   0.00000  -0.00205  -0.00205   2.63665
    R4        2.63766   0.00508   0.00000   0.01886   0.01880   2.65646
    R5        2.64528   0.00542   0.00000   0.01220   0.01226   2.65754
    R6        2.05049   0.00155   0.00000   0.00470   0.00470   2.05520
    R7        2.64669  -0.00030   0.00000  -0.00833  -0.00833   2.63837
    R8        2.64370   0.00553   0.00000   0.01200   0.01206   2.65576
    R9        1.91939  -0.00324   0.00000  -0.00667  -0.00667   1.91272
   R10        1.91822  -0.00256   0.00000  -0.00539  -0.00539   1.91283
   R11        2.63971  -0.00157   0.00000  -0.00528  -0.00528   2.63443
   R12        2.05381  -0.00030   0.00000  -0.00199  -0.00199   2.05182
   R13        2.63417   0.00176   0.00000  -0.00467  -0.00473   2.62944
   R14        2.05254  -0.00119   0.00000  -0.00114  -0.00114   2.05140
   R15        2.59505   0.01586   0.00000   0.02775   0.02775   2.62281
   R16        2.60544   0.00939   0.00000   0.01765   0.01765   2.62309
   R17        2.63640   0.00262   0.00000   0.00314   0.00305   2.63945
   R18        2.63762  -0.00023   0.00000  -0.00099  -0.00108   2.63653
   R19        2.64187  -0.00356   0.00000  -0.01051  -0.01051   2.63136
   R20        2.05304  -0.00072   0.00000  -0.00158  -0.00158   2.05146
   R21        2.63892   0.00824   0.00000   0.01773   0.01782   2.65674
   R22        2.05275   0.00033   0.00000   0.00123   0.00123   2.05398
   R23        2.64573   0.00494   0.00000   0.00642   0.00642   2.65216
   R24        2.64025   0.00675   0.00000   0.01259   0.01267   2.65292
   R25        1.91822  -0.00257   0.00000  -0.00422  -0.00422   1.91400
   R26        1.91810  -0.00255   0.00000  -0.00403  -0.00403   1.91408
   R27        2.64474  -0.00221   0.00000  -0.00703  -0.00703   2.63771
   R28        2.05323   0.00007   0.00000   0.00082   0.00082   2.05405
   R29        2.05111  -0.00062   0.00000  -0.00182  -0.00182   2.04929
    A1        1.90411  -0.00062   0.00000   0.00194   0.00194   1.90605
    A2        2.09907   0.01038   0.00000   0.04154   0.04158   2.14065
    A3        2.08827  -0.00965   0.00000  -0.03745  -0.03741   2.05085
    A4        2.09585  -0.00074   0.00000  -0.00409  -0.00417   2.09168
    A5        2.10017   0.00237   0.00000   0.00961   0.00967   2.10984
    A6        2.09939  -0.00288   0.00000  -0.01662  -0.01665   2.08274
    A7        2.08360   0.00051   0.00000   0.00699   0.00696   2.09055
    A8        2.09769   0.00064   0.00000   0.00267   0.00117   2.09885
    A9        2.07679  -0.00201   0.00000  -0.00176  -0.00309   2.07371
   A10        2.09492   0.00190   0.00000   0.01434   0.01294   2.10786
   A11        1.98676   0.00131   0.00000   0.00924   0.00925   1.99600
   A12        1.99217   0.00173   0.00000   0.01043   0.01043   2.00259
   A13        1.95734  -0.00283   0.00000  -0.02118  -0.02118   1.93616
   A14        2.10665  -0.00231   0.00000  -0.01196  -0.01192   2.09473
   A15        2.09990  -0.00063   0.00000  -0.00707  -0.00710   2.09281
   A16        2.07661   0.00294   0.00000   0.01907   0.01904   2.09565
   A17        2.08998   0.00636   0.00000   0.02446   0.02429   2.11428
   A18        2.09857  -0.00090   0.00000   0.00413   0.00406   2.10263
   A19        2.09442  -0.00544   0.00000  -0.02808  -0.02815   2.06627
   A20        2.09404  -0.00355   0.00000  -0.01186  -0.01211   2.08193
   A21        2.13212  -0.00611   0.00000  -0.02423  -0.02425   2.10787
   A22        2.05601   0.00962   0.00000   0.03482   0.03469   2.09070
   A23        2.05319   0.00666   0.00000   0.02283   0.02283   2.07601
   A24        2.01839   0.00474   0.00000   0.01262   0.01271   2.03111
   A25        2.17957  -0.00526   0.00000  -0.01548  -0.01539   2.16418
   A26        2.08368   0.00055   0.00000   0.00376   0.00346   2.08713
   A27        2.09987   0.00095   0.00000   0.00018   0.00001   2.09988
   A28        2.09130  -0.00205   0.00000  -0.01219  -0.01211   2.07919
   A29        2.09199   0.00111   0.00000   0.01204   0.01212   2.10411
   A30        2.10543   0.00068   0.00000   0.00503   0.00504   2.11047
   A31        2.07702   0.00088   0.00000   0.00822   0.00821   2.08524
   A32        2.10073  -0.00156   0.00000  -0.01326  -0.01327   2.08746
   A33        2.09908   0.00216   0.00000   0.01164   0.01017   2.10925
   A34        2.07003  -0.00400   0.00000  -0.00918  -0.01056   2.05947
   A35        2.09888   0.00241   0.00000   0.01372   0.01224   2.11112
   A36        1.98255   0.00214   0.00000   0.00399   0.00393   1.98648
   A37        1.98294   0.00212   0.00000   0.00378   0.00371   1.98665
   A38        1.95994  -0.00386   0.00000  -0.03705  -0.03715   1.92278
   A39        2.10956   0.00170   0.00000   0.00658   0.00658   2.11614
   A40        2.09846  -0.00177   0.00000  -0.01271  -0.01271   2.08576
   A41        2.07516   0.00007   0.00000   0.00612   0.00612   2.08129
   A42        2.09394   0.00030   0.00000  -0.00073  -0.00096   2.09298
   A43        2.11636  -0.00242   0.00000  -0.01806  -0.01802   2.09835
   A44        2.07272   0.00213   0.00000   0.01909   0.01913   2.09185
    D1       -0.05837   0.00020   0.00000   0.01787   0.01800  -0.04037
    D2        3.08222   0.00023   0.00000   0.02270   0.02257   3.10480
    D3       -3.09321  -0.00066   0.00000  -0.02390  -0.02414  -3.11734
    D4        0.03967  -0.00085   0.00000  -0.02601  -0.02591   0.01376
    D5        0.04939  -0.00068   0.00000  -0.02873  -0.02880   0.02060
    D6       -3.10091  -0.00087   0.00000  -0.03085  -0.03057  -3.13148
    D7        3.12042   0.00010   0.00000   0.00389   0.00405   3.12447
    D8        0.02810   0.00087   0.00000   0.03403   0.03360   0.06170
    D9       -0.02217   0.00013   0.00000   0.00874   0.00852  -0.01365
   D10       -3.11449   0.00090   0.00000   0.03888   0.03806  -3.07642
   D11       -3.04104  -0.00186   0.00000  -0.04244  -0.04170  -3.08274
   D12       -0.07700   0.00173   0.00000   0.05633   0.05658  -0.02041
   D13        0.10919  -0.00166   0.00000  -0.04023  -0.03980   0.06939
   D14        3.07323   0.00194   0.00000   0.05854   0.05849   3.13171
   D15       -2.81251   0.00226   0.00000   0.05548   0.05570  -2.75681
   D16       -0.53462   0.00107   0.00000   0.04356   0.04377  -0.49085
   D17        0.50849  -0.00097   0.00000  -0.04265  -0.04287   0.46562
   D18        2.78638  -0.00217   0.00000  -0.05458  -0.05480   2.73158
   D19        0.07877  -0.00230   0.00000  -0.06566  -0.06523   0.01354
   D20       -3.06991  -0.00209   0.00000  -0.05859  -0.05856  -3.12847
   D21        3.04310   0.00116   0.00000   0.03173   0.03235   3.07544
   D22       -0.10558   0.00137   0.00000   0.03880   0.03902  -0.06657
   D23       -0.05248   0.00142   0.00000   0.04525   0.04536  -0.00713
   D24        3.11119   0.00051   0.00000   0.01900   0.01854   3.12973
   D25        3.09610   0.00123   0.00000   0.03838   0.03878   3.13489
   D26       -0.02341   0.00031   0.00000   0.01213   0.01197  -0.01144
   D27        0.02355  -0.00038   0.00000  -0.01635  -0.01651   0.00705
   D28        3.11799  -0.00154   0.00000  -0.04678  -0.04738   3.07061
   D29       -3.14007   0.00059   0.00000   0.01025   0.01016  -3.12990
   D30       -0.04563  -0.00057   0.00000  -0.02018  -0.02072  -0.06634
   D31       -1.28644   0.00015   0.00000  -0.01577  -0.01589  -1.30232
   D32        1.90341   0.00125   0.00000   0.01496   0.01508   1.91848
   D33        2.74447   0.00100   0.00000   0.08849   0.08849   2.83296
   D34       -0.45737   0.00150   0.00000   0.10640   0.10639  -0.35098
   D35        3.11731  -0.00051   0.00000  -0.00893  -0.00883   3.10848
   D36       -0.01734  -0.00053   0.00000  -0.01427  -0.01418  -0.03152
   D37        0.03244  -0.00076   0.00000  -0.02506  -0.02518   0.00726
   D38       -3.10222  -0.00078   0.00000  -0.03039  -0.03053  -3.13274
   D39       -3.11198  -0.00007   0.00000   0.00126   0.00144  -3.11055
   D40        0.01000   0.00047   0.00000   0.01935   0.01936   0.02935
   D41       -0.03273   0.00058   0.00000   0.02004   0.02014  -0.01258
   D42        3.08925   0.00111   0.00000   0.03813   0.03807   3.12732
   D43        0.02884  -0.00039   0.00000  -0.01634  -0.01644   0.01239
   D44       -3.11422  -0.00056   0.00000  -0.01986  -0.01997  -3.13419
   D45       -3.11970  -0.00038   0.00000  -0.01110  -0.01112  -3.13081
   D46        0.02043  -0.00055   0.00000  -0.01462  -0.01464   0.00579
   D47       -3.04388  -0.00171   0.00000  -0.03689  -0.03667  -3.08055
   D48       -0.08822   0.00201   0.00000   0.06254   0.06227  -0.02595
   D49        0.09920  -0.00154   0.00000  -0.03334  -0.03316   0.06604
   D50        3.05486   0.00219   0.00000   0.06609   0.06578   3.12064
   D51       -0.53000   0.00078   0.00000   0.02571   0.02615  -0.50385
   D52       -2.79888   0.00234   0.00000   0.07172   0.07209  -2.72679
   D53        2.80061  -0.00232   0.00000  -0.07292  -0.07329   2.72732
   D54        0.53173  -0.00076   0.00000  -0.02691  -0.02735   0.50438
   D55        0.08803  -0.00216   0.00000  -0.06762  -0.06743   0.02060
   D56       -3.05187  -0.00217   0.00000  -0.06614  -0.06591  -3.11778
   D57        3.04372   0.00154   0.00000   0.03157   0.03139   3.07510
   D58       -0.09619   0.00152   0.00000   0.03305   0.03291  -0.06328
   D59       -0.02818   0.00074   0.00000   0.02637   0.02658  -0.00160
   D60        3.13254   0.00027   0.00000   0.00914   0.00914  -3.14151
   D61        3.11175   0.00075   0.00000   0.02489   0.02504   3.13679
   D62       -0.01072   0.00028   0.00000   0.00766   0.00760  -0.00312
         Item               Value     Threshold  Converged?
 Maximum Force            0.015865     0.000450     NO 
 RMS     Force            0.003196     0.000300     NO 
 Maximum Displacement     0.295839     0.001800     NO 
 RMS     Displacement     0.073136     0.001200     NO 
 Predicted change in Energy=-3.871530D-03
 GradGradGradGradGradGradGradGradGradGradGradGradGradGradGradGradGradGrad

                          Input orientation:                          
 ---------------------------------------------------------------------
 Center     Atomic      Atomic             Coordinates (Angstroms)
 Number     Number       Type             X           Y           Z
 ---------------------------------------------------------------------
      1          8           0        0.915353    0.063205   -2.225338
      2          6           0        1.646363   -0.200036   -1.104177
      3          6           0        2.937405    0.293772   -0.914175
      4          6           0        3.668981   -0.024787    0.243853
      5          7           0        4.931737    0.532594    0.453733
      6          6           0        3.067597   -0.832488    1.224165
      7          6           0        1.774319   -1.316213    1.032085
      8          6           0        1.053871   -1.007236   -0.117522
      9          8           0       -0.197884   -1.571789   -0.319361
     10          6           0       -1.321742   -0.761392   -0.235949
     11          6           0       -2.492713   -1.263634   -0.808188
     12          6           0       -3.677922   -0.536226   -0.736825
     13          6           0       -3.718430    0.718631   -0.104200
     14          7           0       -4.927855    1.417681    0.031155
     15          6           0       -2.536457    1.200513    0.480241
     16          6           0       -1.347810    0.471567    0.416503
     17          1           0        1.420740    0.651470   -2.804088
     18          1           0        3.384148    0.925268   -1.678653
     19          1           0        5.518543    0.009078    1.090971
     20          1           0        5.436343    0.768736   -0.391377
     21          1           0        3.611751   -1.079334    2.130735
     22          1           0        1.306854   -1.949699    1.779478
     23          1           0       -2.465917   -2.227546   -1.306842
     24          1           0       -4.582738   -0.943156   -1.180789
     25          1           0       -5.598828    1.219792   -0.701301
     26          1           0       -4.812379    2.418283    0.137923
     27          1           0       -2.545489    2.157721    0.995166
     28          1           0       -0.447841    0.865224    0.875956
 ---------------------------------------------------------------------
                    Distance matrix (angstroms):
                    1          2          3          4          5
     1  O    0.000000
     2  C    1.364066   0.000000
     3  C    2.420952   1.395255   0.000000
     4  C    3.699610   2.436981   1.406311   0.000000
     5  N    4.850679   3.709111   2.430137   1.396165   0.000000
     6  C    4.163352   2.800192   2.420312   1.405366   2.435576
     7  C    3.640250   2.413677   2.780782   2.424631   3.704304
     8  C    2.368105   1.405740   2.423836   2.816842   4.211324
     9  O    2.746862   2.428763   3.696506   4.202745   5.598134
    10  C    3.105193   3.143023   4.440011   5.067555   6.423088
    11  C    3.922209   4.283783   5.650038   6.372440   7.742178
    12  C    4.865507   5.347521   6.669550   7.429689   8.757055
    13  C    5.138166   5.533977   6.718386   7.432876   8.670137
    14  N    6.408545   6.864862   8.001197   8.719607   9.908255
    15  C    4.530852   4.686993   5.720991   6.329668   7.498049
    16  C    3.502569   3.424703   4.490588   5.044241   6.279954
    17  H    0.967689   1.914594   2.449489   3.847318   4.791099
    18  H    2.671510   2.148540   1.087562   2.163276   2.663887
    19  H    5.673640   4.456027   3.280843   2.034609   1.012167
    20  H    4.929558   3.976248   2.596843   2.038814   1.012225
    21  H    5.248937   3.885945   3.407585   2.162329   2.674511
    22  H    4.499290   3.389993   3.866216   3.412195   4.589025
    23  H    4.186187   4.589413   5.975544   6.700281   8.089702
    24  H    5.686198   6.273739   7.625853   8.424005   9.765999
    25  H    6.789325   7.393986   8.588953   9.398648  10.615986
    26  H    6.628597   7.079107   8.104296   8.826850   9.929922
    27  H    5.170693   5.247655   6.097706   6.629287   7.670926
    28  H    3.481315   3.072685   3.871823   4.259096   5.406364
                    6          7          8          9         10
     6  C    0.000000
     7  C    1.394079   0.000000
     8  C    2.426058   1.391441   0.000000
     9  O    3.686788   2.404434   1.387929   0.000000
    10  C    4.626369   3.391361   2.391235   1.388078   0.000000
    11  C    5.935772   4.647249   3.622294   2.366464   1.396737
    12  C    7.031023   5.784838   4.795336   3.654768   2.419330
    13  C    7.086656   5.966743   5.074805   4.205539   2.819917
    14  N    8.391293   7.307200   6.456267   5.606463   4.221819
    15  C    6.007657   5.022074   4.256986   3.714020   2.416098
    16  C    4.674259   3.650039   2.870560   2.457464   1.395192
    17  H    4.597945   4.325855   3.178606   3.706304   4.014066
    18  H    3.408264   3.868318   3.406154   4.573173   5.203039
    19  H    2.594823   3.972289   4.735678   6.096368   7.010267
    20  H    3.284029   4.447884   4.736574   6.101454   6.930885
    21  H    1.085774   2.153904   3.406261   4.556183   5.481026
    22  H    2.157951   1.085553   2.133272   2.610014   3.519025
    23  H    6.242753   4.927545   3.910568   2.559123   2.146055
    24  H    8.020205   6.741524   5.736375   4.512669   3.399978
    25  H    9.111872   7.987443   7.039805   6.091716   4.736571
    26  H    8.593105   7.624341   6.797964   6.117462   4.736523
    27  H    6.364003   5.543494   4.920409   4.598747   3.396236
    28  H    3.919411   3.117858   2.597738   2.725856   2.155439
                   11         12         13         14         15
    11  C    0.000000
    12  C    1.392456   0.000000
    13  C    2.434616   1.405888   0.000000
    14  N    3.718046   2.443334   1.403461   0.000000
    15  C    2.781003   2.408413   1.403867   2.442873   0.000000
    16  C    2.412797   2.788410   2.439674   3.722949   1.395817
    17  H    4.792322   5.628547   5.805598   6.995023   5.171815
    18  H    6.331389   7.272951   7.277926   8.500312   6.307942
    19  H    8.331075   9.392186   9.340961  10.594084   8.165508
    20  H    8.195985   9.213689   9.159413  10.393087   8.031916
    21  H    6.777589   7.852210   7.871414   9.141565   6.761826
    22  H    4.647946   5.760006   5.993471   7.298457   5.136427
    23  H    1.085588   2.157415   3.419809   4.597723   3.866552
    24  H    2.147031   1.086917   2.160465   2.676092   3.397294
    25  H    3.978289   2.602834   2.035582   1.012846   3.282459
    26  H    4.453368   3.283489   2.035722   1.012886   2.603837
    27  H    3.867886   3.396991   2.157632   2.674443   1.086958
    28  H    3.398511   3.872795   3.417447   4.592322   2.152051
                   16         17         18         19         20
    16  C    0.000000
    17  H    4.250816   0.000000
    18  H    5.194896   2.279592   0.000000
    19  H    6.914883   5.690004   3.614673   0.000000
    20  H    6.838546   4.686149   2.427568   1.667690   0.000000
    21  H    5.471849   5.669982   4.310646   2.429322   3.620158
    22  H    3.842846   5.271445   4.953711   4.695655   5.399553
    23  H    3.391945   5.063257   6.655954   8.631546   8.500675
    24  H    3.875247   6.420255   8.198179  10.397284  10.194887
    25  H    4.458754   7.349764   9.040786  11.325812  11.048733
    26  H    3.983786   7.115393   8.527138  10.650846  10.394107
    27  H    2.147651   5.695094   6.620335   8.345925   8.219575
    28  H    1.084438   4.132796   4.605840   6.031331   6.019889
                   21         22         23         24         25
    21  H    0.000000
    22  H    2.488668   0.000000
    23  H    7.076255   4.882250   0.000000
    24  H    8.839366   6.668103   2.479209   0.000000
    25  H    9.906624   7.993021   4.697441   2.437354   0.000000
    26  H    9.336519   7.695387   5.401569   3.618150   1.661078
    27  H    7.048380   5.685648   4.953397   4.301233   3.616710
    28  H    4.672908   3.437891   4.289809   4.959618   5.398716
                   26         27         28
    26  H    0.000000
    27  H    2.437529   0.000000
    28  H    4.691042   2.466757   0.000000
 Stoichiometry    C12H12N2O2
 Framework group  C1[X(C12H12N2O2)]
 Deg. of freedom    78
 Full point group                 C1      NOp   1
 Largest Abelian subgroup         C1      NOp   1
 Largest concise Abelian subgroup C1      NOp   1
                         Standard orientation:                         
 ---------------------------------------------------------------------
 Center     Atomic      Atomic             Coordinates (Angstroms)
 Number     Number       Type             X           Y           Z
 ---------------------------------------------------------------------
      1          8           0        0.793522    0.703869    1.971084
      2          6           0        1.597216    0.391939    0.913988
[...]
    24    C    2  pz     Val( 2p)     0.90640
    25    C    2  pz     Ryd( 3p)     0.00421
    26    C    2  dxy    Ryd( 3d)     0.00105
    27    C    2  dxz    Ryd( 3d)     0.00162
    28    C    2  dyz    Ryd( 3d)     0.00150
    29    C    2  dx2y2  Ryd( 3d)     0.00126
    30    C    2  dz2    Ryd( 3d)     0.00116

    31    C    3  S      Cor( 1S)     1.99897
    32    C    3  S      Val( 2S)     0.95174
    33    C    3  S      Ryd( 3S)     0.00072
    34    C    3  S      Ryd( 4S)     0.00006
    35    C    3  px     Val( 2p)     1.09840
    36    C    3  px     Ryd( 3p)     0.00358
    37    C    3  py     Val( 2p)     1.15090
    38    C    3  py     Ryd( 3p)     0.00301
    39    C    3  pz     Val( 2p)     1.18493
    40    C    3  pz     Ryd( 3p)     0.00380
    41    C    3  dxy    Ryd( 3d)     0.00042
    42    C    3  dxz    Ryd( 3d)     0.00049
    43    C    3  dyz    Ryd( 3d)     0.00040
    44    C    3  dx2y2  Ryd( 3d)     0.00046
    45    C    3  dz2    Ryd( 3d)     0.00056

    46    C    4  S      Cor( 1S)     1.99900
    47    C    4  S      Val( 2S)     0.84269
    48    C    4  S      Ryd( 3S)     0.00112
    49    C    4  S      Ryd( 4S)     0.00010
    50    C    4  px     Val( 2p)     0.92283
    51    C    4  px     Ryd( 3p)     0.00448
    52    C    4  py     Val( 2p)     0.95486
    53    C    4  py     Ryd( 3p)     0.00245
    54    C    4  pz     Val( 2p)     1.08041
    55    C    4  pz     Ryd( 3p)     0.00455
    56    C    4  dxy    Ryd( 3d)     0.00119
    57    C    4  dxz    Ryd( 3d)     0.00094
    58    C    4  dyz    Ryd( 3d)     0.00084
    59    C    4  dx2y2  Ryd( 3d)     0.00121
    60    C    4  dz2    Ryd( 3d)     0.00077

    61    N    5  S      Cor( 1S)     1.99951
    62    N    5  S      Val( 2S)     1.36365
    63    N    5  S      Ryd( 3S)     0.00013
    64    N    5  S      Ryd( 4S)     0.00001
    65    N    5  px     Val( 2p)     1.32841
    66    N    5  px     Ryd( 3p)     0.00229
    67    N    5  py     Val( 2p)     1.71228
    68    N    5  py     Ryd( 3p)     0.00381
    69    N    5  pz     Val( 2p)     1.43303
    70    N    5  pz     Ryd( 3p)     0.00209
    71    N    5  dxy    Ryd( 3d)     0.00075
    72    N    5  dxz    Ryd( 3d)     0.00068
    73    N    5  dyz    Ryd( 3d)     0.00071
    74    N    5  dx2y2  Ryd( 3d)     0.00089
    75    N    5  dz2    Ryd( 3d)     0.00037

    76    C    6  S      Cor( 1S)     1.99904
    77    C    6  S      Val( 2S)     0.94965
    78    C    6  S      Ryd( 3S)     0.00057
    79    C    6  S      Ryd( 4S)     0.00004
    80    C    6  px     Val( 2p)     1.10427
    81    C    6  px     Ryd( 3p)     0.00385
    82    C    6  py     Val( 2p)     1.12996
    83    C    6  py     Ryd( 3p)     0.00244
    84    C    6  pz     Val( 2p)     1.12861
    85    C    6  pz     Ryd( 3p)     0.00421
    86    C    6  dxy    Ryd( 3d)     0.00046
    87    C    6  dxz    Ryd( 3d)     0.00058
    88    C    6  dyz    Ryd( 3d)     0.00046
    89    C    6  dx2y2  Ryd( 3d)     0.00043
    90    C    6  dz2    Ryd( 3d)     0.00054

    91    C    7  S      Cor( 1S)     1.99903
    92    C    7  S      Val( 2S)     0.95817
    93    C    7  S      Ryd( 3S)     0.00080
    94    C    7  S      Ryd( 4S)     0.00006
    95    C    7  px     Val( 2p)     1.08522
    96    C    7  px     Ryd( 3p)     0.00487
    97    C    7  py     Val( 2p)     1.05012
    98    C    7  py     Ryd( 3p)     0.00336
    99    C    7  pz     Val( 2p)     1.18050
   100    C    7  pz     Ryd( 3p)     0.00434
   101    C    7  dxy    Ryd( 3d)     0.00047
   102    C    7  dxz    Ryd( 3d)     0.00068
   103    C    7  dyz    Ryd( 3d)     0.00042
   104    C    7  dx2y2  Ryd( 3d)     0.00059
   105    C    7  dz2    Ryd( 3d)     0.00051

   106    C    8  S      Cor( 1S)     1.99863
   107    C    8  S      Val( 2S)     0.83217
   108    C    8  S      Ryd( 3S)     0.00148
   109    C    8  S      Ryd( 4S)     0.00015
   110    C    8  px     Val( 2p)     0.82868
   111    C    8  px     Ryd( 3p)     0.00650
   112    C    8  py     Val( 2p)     1.05144
   113    C    8  py     Ryd( 3p)     0.00428
   114    C    8  pz     Val( 2p)     1.07053
   115    C    8  pz     Ryd( 3p)     0.00557
   116    C    8  dxy    Ryd( 3d)     0.00121
   117    C    8  dxz    Ryd( 3d)     0.00131
   118    C    8  dyz    Ryd( 3d)     0.00082
   119    C    8  dx2y2  Ryd( 3d)     0.00117
   120    C    8  dz2    Ryd( 3d)     0.00103

   121    O    9  S      Cor( 1S)     1.99972
   122    O    9  S      Val( 2S)     1.57800
   123    O    9  S      Ryd( 3S)     0.00058
   124    O    9  S      Ryd( 4S)     0.00012
   125    O    9  px     Val( 2p)     1.37824
   126    O    9  px     Ryd( 3p)     0.00055
   127    O    9  py     Val( 2p)     1.72927
   128    O    9  py     Ryd( 3p)     0.00244
   129    O    9  pz     Val( 2p)     1.76374
   130    O    9  pz     Ryd( 3p)     0.00274
   131    O    9  dxy    Ryd( 3d)     0.00115
   132    O    9  dxz    Ryd( 3d)     0.00051
   133    O    9  dyz    Ryd( 3d)     0.00141
   134    O    9  dx2y2  Ryd( 3d)     0.00125
   135    O    9  dz2    Ryd( 3d)     0.00103

   136    C   10  S      Cor( 1S)     1.99870
   137    C   10  S      Val( 2S)     0.84727
   138    C   10  S      Ryd( 3S)     0.00136
   139    C   10  S      Ryd( 4S)     0.00014
   140    C   10  px     Val( 2p)     0.82127
   141    C   10  px     Ryd( 3p)     0.00472
   142    C   10  py     Val( 2p)     1.00509
   143    C   10  py     Ryd( 3p)     0.00713
   144    C   10  pz     Val( 2p)     0.93567
   145    C   10  pz     Ryd( 3p)     0.00243
   146    C   10  dxy    Ryd( 3d)     0.00173
   147    C   10  dxz    Ryd( 3d)     0.00170
   148    C   10  dyz    Ryd( 3d)     0.00111
   149    C   10  dx2y2  Ryd( 3d)     0.00133
   150    C   10  dz2    Ryd( 3d)     0.00075

   151    C   11  S      Cor( 1S)     1.99905
   152    C   11  S      Val( 2S)     0.95406
   153    C   11  S      Ryd( 3S)     0.00082
   154    C   11  S      Ryd( 4S)     0.00004
   155    C   11  px     Val( 2p)     1.05288
   156    C   11  px     Ryd( 3p)     0.00557
   157    C   11  py     Val( 2p)     1.19473
   158    C   11  py     Ryd( 3p)     0.00449
   159    C   11  pz     Val( 2p)     1.14476
   160    C   11  pz     Ryd( 3p)     0.00644
   161    C   11  dxy    Ryd( 3d)     0.00066
   162    C   11  dxz    Ryd( 3d)     0.00055
   163    C   11  dyz    Ryd( 3d)     0.00043
   164    C   11  dx2y2  Ryd( 3d)     0.00054
   165    C   11  dz2    Ryd( 3d)     0.00040

   166    C   12  S      Cor( 1S)     1.99906
   167    C   12  S      Val( 2S)     0.95075
   168    C   12  S      Ryd( 3S)     0.00061
   169    C   12  S      Ryd( 4S)     0.00004
   170    C   12  px     Val( 2p)     1.16164
   171    C   12  px     Ryd( 3p)     0.00429
   172    C   12  py     Val( 2p)     1.08796
   173    C   12  py     Ryd( 3p)     0.00478
   174    C   12  pz     Val( 2p)     1.11464
   175    C   12  pz     Ryd( 3p)     0.00567
   176    C   12  dxy    Ryd( 3d)     0.00058
   177    C   12  dxz    Ryd( 3d)     0.00051
   178    C   12  dyz    Ryd( 3d)     0.00043
   179    C   12  dx2y2  Ryd( 3d)     0.00064
   180    C   12  dz2    Ryd( 3d)     0.00043

   181    C   13  S      Cor( 1S)     1.99895
   182    C   13  S      Val( 2S)     0.85515
   183    C   13  S      Ryd( 3S)     0.00118
   184    C   13  S      Ryd( 4S)     0.00009
   185    C   13  px     Val( 2p)     0.93538
   186    C   13  px     Ryd( 3p)     0.00523
   187    C   13  py     Val( 2p)     1.04892
   188    C   13  py     Ryd( 3p)     0.00448
   189    C   13  pz     Val( 2p)     0.95554
   190    C   13  pz     Ryd( 3p)     0.00161
   191    C   13  dxy    Ryd( 3d)     0.00115
   192    C   13  dxz    Ryd( 3d)     0.00122
   193    C   13  dyz    Ryd( 3d)     0.00103
   194    C   13  dx2y2  Ryd( 3d)     0.00103
   195    C   13  dz2    Ryd( 3d)     0.00065

   196    N   14  S      Cor( 1S)     1.99948
   197    N   14  S      Val( 2S)     1.38119
   198    N   14  S      Ryd( 3S)     0.00010
   199    N   14  S      Ryd( 4S)     0.00001
   200    N   14  px     Val( 2p)     1.35365
   201    N   14  px     Ryd( 3p)     0.00208
   202    N   14  py     Val( 2p)     1.43625
   203    N   14  py     Ryd( 3p)     0.00219
   204    N   14  pz     Val( 2p)     1.53969
   205    N   14  pz     Ryd( 3p)     0.00253
   206    N   14  dxy    Ryd( 3d)     0.00069
   207    N   14  dxz    Ryd( 3d)     0.00074
   208    N   14  dyz    Ryd( 3d)     0.00105
   209    N   14  dx2y2  Ryd( 3d)     0.00032
   210    N   14  dz2    Ryd( 3d)     0.00058

   211    C   15  S      Cor( 1S)     1.99906
   212    C   15  S      Val( 2S)     0.94898
   213    C   15  S      Ryd( 3S)     0.00070
   214    C   15  S      Ryd( 4S)     0.00004
   215    C   15  px     Val( 2p)     1.04874
   216    C   15  px     Ryd( 3p)     0.00493
   217    C   15  py     Val( 2p)     1.18848
   218    C   15  py     Ryd( 3p)     0.00439
   219    C   15  pz     Val( 2p)     1.13657
   220    C   15  pz     Ryd( 3p)     0.00632
   221    C   15  dxy    Ryd( 3d)     0.00062
   222    C   15  dxz    Ryd( 3d)     0.00054
   223    C   15  dyz    Ryd( 3d)     0.00040
   224    C   15  dx2y2  Ryd( 3d)     0.00058
   225    C   15  dz2    Ryd( 3d)     0.00038

   226    C   16  S      Cor( 1S)     1.99903
   227    C   16  S      Val( 2S)     0.95713
   228    C   16  S      Ryd( 3S)     0.00075
   229    C   16  S      Ryd( 4S)     0.00005
   230    C   16  px     Val( 2p)     1.16980
   231    C   16  px     Ryd( 3p)     0.00353
   232    C   16  py     Val( 2p)     1.10899
   233    C   16  py     Ryd( 3p)     0.00479
   234    C   16  pz     Val( 2p)     1.11008
   235    C   16  pz     Ryd( 3p)     0.00566
   236    C   16  dxy    Ryd( 3d)     0.00053
   237    C   16  dxz    Ryd( 3d)     0.00052
   238    C   16  dyz    Ryd( 3d)     0.00047
   239    C   16  dx2y2  Ryd( 3d)     0.00068
   240    C   16  dz2    Ryd( 3d)     0.00044

   241    H   17  S      Val( 1S)     0.48350
   242    H   17  S      Ryd( 2S)     0.00109
   243    H   17  px     Ryd( 2p)     0.00082
   244    H   17  py     Ryd( 2p)     0.00083
   245    H   17  pz     Ryd( 2p)     0.00098

   246    H   18  S      Val( 1S)     0.75462
   247    H   18  S      Ryd( 2S)     0.00103
   248    H   18  px     Ryd( 2p)     0.00012
   249    H   18  py     Ryd( 2p)     0.00014
   250    H   18  pz     Ryd( 2p)     0.00035

   251    H   19  S      Val( 1S)     0.58161
   252    H   19  S      Ryd( 2S)     0.00109
   253    H   19  px     Ryd( 2p)     0.00037
   254    H   19  py     Ryd( 2p)     0.00045
   255    H   19  pz     Ryd( 2p)     0.00044

   256    H   20  S      Val( 1S)     0.58241
   257    H   20  S      Ryd( 2S)     0.00125
   258    H   20  px     Ryd( 2p)     0.00031
   259    H   20  py     Ryd( 2p)     0.00049
   260    H   20  pz     Ryd( 2p)     0.00045

   261    H   21  S      Val( 1S)     0.75466
   262    H   21  S      Ryd( 2S)     0.00085
   263    H   21  px     Ryd( 2p)     0.00016
   264    H   21  py     Ryd( 2p)     0.00019
   265    H   21  pz     Ryd( 2p)     0.00026

   266    H   22  S      Val( 1S)     0.74573
   267    H   22  S      Ryd( 2S)     0.00106
   268    H   22  px     Ryd( 2p)     0.00014
   269    H   22  py     Ryd( 2p)     0.00012
   270    H   22  pz     Ryd( 2p)     0.00036

   271    H   23  S      Val( 1S)     0.75289
   272    H   23  S      Ryd( 2S)     0.00130
   273    H   23  px     Ryd( 2p)     0.00006
   274    H   23  py     Ryd( 2p)     0.00037
   275    H   23  pz     Ryd( 2p)     0.00021

   276    H   24  S      Val( 1S)     0.75872
   277    H   24  S      Ryd( 2S)     0.00107
   278    H   24  px     Ryd( 2p)     0.00029
   279    H   24  py     Ryd( 2p)     0.00017
   280    H   24  pz     Ryd( 2p)     0.00019

   281    H   25  S      Val( 1S)     0.56902
   282    H   25  S      Ryd( 2S)     0.00157
   283    H   25  px     Ryd( 2p)     0.00043
   284    H   25  py     Ryd( 2p)     0.00041
   285    H   25  pz     Ryd( 2p)     0.00041

   286    H   26  S      Val( 1S)     0.56988
   287    H   26  S      Ryd( 2S)     0.00173
   288    H   26  px     Ryd( 2p)     0.00023
   289    H   26  py     Ryd( 2p)     0.00047
   290    H   26  pz     Ryd( 2p)     0.00055

   291    H   27  S      Val( 1S)     0.75836
   292    H   27  S      Ryd( 2S)     0.00106
   293    H   27  px     Ryd( 2p)     0.00006
   294    H   27  py     Ryd( 2p)     0.00038
   295    H   27  pz     Ryd( 2p)     0.00021

   296    H   28  S      Val( 1S)     0.74621
   297    H   28  S      Ryd( 2S)     0.00094
   298    H   28  px     Ryd( 2p)     0.00031
   299    H   28  py     Ryd( 2p)     0.00017
   300    H   28  pz     Ryd( 2p)     0.00019

 WARNING:  1 low occupancy (<1.9990e) core orbital  found on  C    2
           1 low occupancy (<1.9990e) core orbital  found on  C    3
           1 low occupancy (<1.9990e) core orbital  found on  C    8
           1 low occupancy (<1.9990e) core orbital  found on  C   10
           1 low occupancy (<1.9990e) core orbital  found on  C   13


 Summary of Natural Population Analysis:                  
                                                          
                                       Natural Population 
                Natural  -----------------------------------------------
    Atom  No    Charge         Core      Valence    Rydberg      Total
 -----------------------------------------------------------------------
      O    1   -0.70716      1.99978     6.69661    0.01077     8.70716
      C    2    0.29844      1.99870     3.68048    0.02237     5.70156
      C    3   -0.39844      1.99897     4.38597    0.01351     6.39844
      C    4    0.18256      1.99900     3.80080    0.01764     5.81744
      N    5   -0.84861      1.99951     5.83737    0.01173     7.84861
      C    6   -0.32510      1.99904     4.31249    0.01357     6.32510
      C    7   -0.28913      1.99903     4.27400    0.01610     6.28913
      C    8    0.19504      1.99863     3.78282    0.02351     5.80496
      O    9   -0.46073      1.99972     6.44924    0.01177     8.46073
      C   10    0.36962      1.99870     3.60930    0.02239     5.63038
      C   11   -0.36541      1.99905     4.34643    0.01993     6.36541
      C   12   -0.33203      1.99906     4.31498    0.01798     6.33203
      C   13    0.18839      1.99895     3.79499    0.01767     5.81161
      N   14   -0.72055      1.99948     5.71078    0.01030     7.72055
      C   15   -0.34073      1.99906     4.32276    0.01891     6.34073
      C   16   -0.36245      1.99903     4.34600    0.01741     6.36245
      H   17    0.51278      0.00000     0.48350    0.00372     0.48722
      H   18    0.24374      0.00000     0.75462    0.00164     0.75626
      H   19    0.41604      0.00000     0.58161    0.00235     0.58396
      H   20    0.41508      0.00000     0.58241    0.00251     0.58492
      H   21    0.24388      0.00000     0.75466    0.00145     0.75612
      H   22    0.25259      0.00000     0.74573    0.00168     0.74741
      H   23    0.24518      0.00000     0.75289    0.00194     0.75482
      H   24    0.23956      0.00000     0.75872    0.00172     0.76044
      H   25    0.42817      0.00000     0.56902    0.00282     0.57183
      H   26    0.42716      0.00000     0.56988    0.00297     0.57284
      H   27    0.23993      0.00000     0.75836    0.00171     0.76007
      H   28    0.25218      0.00000     0.74621    0.00161     0.74782
 =======================================================================
   * Total *   -0.00000     31.98572    81.72261    0.29167   114.00000

                                 Natural Population      
 --------------------------------------------------------
   Core                      31.98572 ( 99.9554% of  32)
   Valence                   81.72261 ( 99.6617% of  82)
   Natural Minimal Basis    113.70833 ( 99.7441% of 114)
   Natural Rydberg Basis      0.29167 (  0.2559% of 114)
 --------------------------------------------------------

    Atom  No          Natural Electron Configuration
 ----------------------------------------------------------------------------
      O    1      [core]2S( 1.66)2p( 5.04)3d( 0.01)
      C    2      [core]2S( 0.83)2p( 2.85)3p( 0.01)3d( 0.01)
      C    3      [core]2S( 0.95)2p( 3.43)3p( 0.01)
      C    4      [core]2S( 0.84)2p( 2.96)3p( 0.01)
      N    5      [core]2S( 1.36)2p( 4.47)3p( 0.01)
      C    6      [core]2S( 0.95)2p( 3.36)3p( 0.01)
      C    7      [core]2S( 0.96)2p( 3.32)3p( 0.01)
      C    8      [core]2S( 0.83)2p( 2.95)3p( 0.02)3d( 0.01)
      O    9      [core]2S( 1.58)2p( 4.87)3p( 0.01)3d( 0.01)
      C   10      [core]2S( 0.85)2p( 2.76)3p( 0.01)3d( 0.01)
      C   11      [core]2S( 0.95)2p( 3.39)3p( 0.02)
      C   12      [core]2S( 0.95)2p( 3.36)3p( 0.01)
      C   13      [core]2S( 0.86)2p( 2.94)3p( 0.01)3d( 0.01)
      N   14      [core]2S( 1.38)2p( 4.33)3p( 0.01)
      C   15      [core]2S( 0.95)2p( 3.37)3p( 0.02)
      C   16      [core]2S( 0.96)2p( 3.39)3p( 0.01)
      H   17            1S( 0.48)
      H   18            1S( 0.75)
      H   19            1S( 0.58)
      H   20            1S( 0.58)
      H   21            1S( 0.75)
      H   22            1S( 0.75)
      H   23            1S( 0.75)
      H   24            1S( 0.76)
      H   25            1S( 0.57)
      H   26            1S( 0.57)
      H   27            1S( 0.76)
      H   28            1S( 0.75)


 NBO analysis skipped by request.
 1\1\GINC-DRG2-W004\SP\RB3LYP TD-FC\6-31G(d,p)\C12H12N2O2\QDUEZ\18-Jul-
 2024\0\\# TD(NStates=10, Root=1) B3LYP/6-31G** SCRF=(Solvent=water) vo
 lume pop=NPA density=current Geom=AllCheck Guess=Read\\JTUXBPXZECVPKS-
 UHFFFAOYSA-N_conf_0\\0,1\O,0,1.0220337245,0.106955251,-2.303574791\C,0
 ,1.7035655598,-0.1714570289,-1.155042756\C,0,2.9947095393,0.2983403746
 ,-0.9106756026\C,0,3.6678066473,-0.0254284331,0.2812618086\N,0,4.93409
 55636,0.5015886739,0.5394086694\C,0,3.0169418003,-0.834672751,1.229251
 2949\C,0,1.7245193171,-1.2942944424,0.9823735328\C,0,1.0580735812,-0.9
 719926734,-0.1959422649\O,0,-0.1893676247,-1.521013413,-0.4649350024\C
 ,0,-1.322212251,-0.7339957665,-0.3105715024\C,0,-2.520934818,-1.283137
 5376,-0.7736471054\C,0,-3.7142301546,-0.5786795858,-0.6413974118\C,0,-
 3.739979858,0.6954342715,-0.0462605078\N,0,-4.9530925379,1.3768393176,
 0.14535992\C,0,-2.5267078901,1.2320860829,0.4122774764\C,0,-1.32791566
 62,0.52756694,0.2854292146\H,0,1.5702967208,0.6671853342,-2.8708722985
 \H,0,3.4861675222,0.9185407615,-1.6569825095\H,0,5.4862848313,-0.03526
 64061,1.1960366045\H,0,5.4744813767,0.7322112776,-0.2847151329\H,0,3.5
 219687146,-1.0991258703,2.1533298688\H,0,1.2173047945,-1.9251071916,1.
 7058765086\H,0,-2.5069766365,-2.2637508077,-1.2391720196\H,0,-4.638792
 368,-1.0190676993,-1.0055236051\H,0,-5.6650951992,1.1390830861,-0.5350
 031256\H,0,-4.8505567043,2.3832271133,0.1995961866\H,0,-2.5179915022,2
 .2144036021,0.8777218246\H,0,-0.4043964826,0.9635275206,0.6495713046\\
 Version=ES64L-G16RevA.03\State=1-A\HF=-724.475398\RMSD=5.459e-09\Dipol
 e=0.0278018,1.5597556,-0.571782\Quadrupole=23.5320778,-11.3596053,-12.
 1724725,-9.0087337,1.1131091,-4.4411411\PG=C01 [X(C12H12N2O2)]\\@


 THERE IS AN OLD, OLD RECIPE IN MAINE FOR STEWING COOT. PLACE THE
 BIRD IN A KETTLE OF WATER WITH A RED BUILDING BRICK FREE OF MORTAR AND
 BLEMISHES. PARBOIL THE COOT AND BRICK TOGETHER FOR THREE HOURS.
 POUR OFF THE WATER, REFILL THE KETTLE, AND AGAIN PARBOIL FOR THREE HOURS.
 ONCE AGAIN POUR OFF THE WATER, FOR THE LAST TIME ADD FRESH WATER,
 AND LET THE COOT AND BRICK SIMMER TOGETHER OVERNIGHT. IN THE MORNING,
 THROW AWAY THE COOT AND EAT THE BRICK.
 Job cpu time:       0 days  0 hours 51 minutes 48.4 seconds.
 Elapsed time:       0 days  0 hours 18 minutes 59.3 seconds.
 File lengths (MBytes):  RWF=    781 Int=      0 D2E=      0 Chk=     48 Scr=      1
 Normal termination of Gaussian 16 at Thu Jul 18 05:21:23 2024.
