 Entering Gaussian System, Link 0=g16
 Initial command:
 /opt/sw/arch/manual/gaussian/G16_A03/g16/l1.exe "/scratch/1380889/Gau-81241.inp" -scrdir="/scratch/1380889/"
 Entering Link 1 = /opt/sw/arch/manual/gaussian/G16_A03/g16/l1.exe PID=     81242.
  
 Copyright (c) 1988,1990,1992,1993,1995,1998,2003,2009,2016,
            Gaussian, Inc.  All Rights Reserved.
  
 This is part of the Gaussian(R) 16 program.  It is based on
 the Gaussian(R) 09 system (copyright 2009, Gaussian, Inc.),
 the Gaussian(R) 03 system (copyright 2003, Gaussian, Inc.),
 the Gaussian(R) 98 system (copyright 1998, Gaussian, Inc.),
 the Gaussian(R) 94 system (copyright 1995, Gaussian, Inc.),
 the Gaussian 92(TM) system (copyright 1992, Gaussian, Inc.),
 the Gaussian 90(TM) system (copyright 1990, Gaussian, Inc.),
 the Gaussian 88(TM) system (copyright 1988, Gaussian, Inc.),
 the Gaussian 86(TM) system (copyright 1986, Carnegie Mellon
 University), and the Gaussian 82(TM) system (copyright 1983,
 Carnegie Mellon University). Gaussian is a federally registered
 trademark of Gaussian, Inc.
  
 This software contains proprietary and confidential information,
 including trade secrets, belonging to Gaussian, Inc.
  
 This software is provided under written license and may be
 used, copied, transmitted, or stored only in accord with that
 written license.
  
 The following legend is applicable only to US Government
 contracts under FAR:
  
                    RESTRICTED RIGHTS LEGEND
  
 Use, reproduction and disclosure by the US Government is
 subject to restrictions as set forth in subparagraphs (a)
 and (c) of the Commercial Computer Software - Restricted
 Rights clause in FAR 52.227-19.
  
 Gaussian, Inc.
 340 Quinnipiac St., Bldg. 40, Wallingford CT 06492
  
  
 ---------------------------------------------------------------
 Warning -- This program may not be used in any manner that
 competes with the business of Gaussian, Inc. or will provide
 assistance to any competitor of Gaussian, Inc.  The licensee
 of this program is prohibited from giving any competitor of
 Gaussian, Inc. access to this program.  By using this program,
 the user acknowledges that Gaussian, Inc. is engaged in the
 business of creating and licensing software in the field of
 computational chemistry and represents and warrants to the
 licensee that it is not a competitor of Gaussian, Inc. and that
 it will not use this program in any manner prohibited above.
 ---------------------------------------------------------------
  

 Cite this work as:
 Gaussian 16, Revision A.03,
 M. J. Frisch, G. W. Trucks, H. B. Schlegel, G. E. Scuseria, 
 M. A. Robb, J. R. Cheeseman, G. Scalmani, V. Barone, 
 G. A. Petersson, H. Nakatsuji, X. Li, M. Caricato, A. V. Marenich, 
 J. Bloino, B. G. Janesko, R. Gomperts, B. Mennucci, H. P. Hratchian, 
 J. V. Ortiz, A. F. Izmaylov, J. L. Sonnenberg, D. Williams-Young, 
 F. Ding, F. Lipparini, F. Egidi, J. Goings, B. Peng, A. Petrone, 
 T. Henderson, D. Ranasinghe, V. G. Zakrzewski, J. Gao, N. Rega, 
 G. Zheng, W. Liang, M. Hada, M. Ehara, K. Toyota, R. Fukuda, 
 J. Hasegawa, M. Ishida, T. Nakajima, Y. Honda, O. Kitao, H. Nakai, 
 T. Vreven, K. Throssell, J. A. Montgomery, Jr., J. E. Peralta, 
 F. Ogliaro, M. J. Bearpark, J. J. Heyd, E. N. Brothers, K. N. Kudin, 
 V. N. Staroverov, T. A. Keith, R. Kobayashi, J. Normand, 
 K. Raghavachari, A. P. Rendell, J. C. Burant, S. S. Iyengar, 
 J. Tomasi, M. Cossi, J. M. Millam, M. Klene, C. Adamo, R. Cammi, 
 J. W. Ochterski, R. L. Martin, K. Morokuma, O. Farkas, 
 J. B. Foresman, and D. J. Fox, Gaussian, Inc., Wallingford CT, 2016.
 
 ******************************************
 Gaussian 16:  ES64L-G16RevA.03 25-Dec-2016
                18-Jul-2024 
 ******************************************
 %nprocshared=4
 Will use up to    4 processors via shared memory.
 %mem=8GB
 %Chk=JTUXBPXZECVPKS-UHFFFAOYSA-N_conf_3_0.chk
 -------------------------------------------------------
 # opt=CalcFc B3LYP/6-31G** SCRF=(Solvent=water) scf=xqc
 -------------------------------------------------------
 1/10=4,18=20,19=15,26=3,38=1/1,3;
 2/9=110,12=2,17=6,18=5,40=1/2;
 3/5=1,6=6,7=101,11=2,25=1,30=1,70=2201,71=2,72=1,74=-5,140=1/1,2,3;
 4//1;
 5/5=2,8=3,13=1,38=5,53=1/2,8;
 8/6=4,10=90,11=11/1;
 11/6=1,8=1,9=11,15=111,16=1/1,2,10;
 10/6=1,13=1/2;
 6/7=2,8=2,9=2,10=2,28=1/1;
 7/10=1,18=20,25=1/1,2,3,16;
 1/10=4,18=20,19=15,26=3/3(2);
 2/9=110/2;
 99//99;
 2/9=110/2;
 3/5=1,6=6,7=101,11=2,25=1,30=1,70=2205,71=1,72=1,74=-5/1,2,3;
 4/5=5,16=3,69=1/1;
 5/5=2,8=3,13=1,38=5,53=1/2,8;
 7//1,2,3,16;
 1/18=20,19=15,26=3/3(-5);
 2/9=110/2;
 6/7=2,8=2,9=2,10=2,19=2,28=1/1;
 99/9=1/99;
 ----------------------------------
 JTUXBPXZECVPKS-UHFFFAOYSA-N_conf_3
 ----------------------------------
 Symbolic Z-matrix:
 Charge =  0 Multiplicity = 1
 O                    -1.10488  -2.0034   -0.83134 
 C                    -1.72926  -0.86521  -0.40356 
 C                    -2.8852   -0.41311  -1.04283 
 C                    -3.55777   0.71938  -0.56888 
 N                    -4.64568   1.24139  -1.27994 
 C                    -3.00376   1.44226   0.49318 
 C                    -1.84808   0.99249   1.13619 
 C                    -1.20363  -0.15494   0.67693 
 O                    -0.08599  -0.57788   1.35341 
 C                     1.13547  -0.42346   0.73255 
 C                     2.14744  -1.27743   1.1723 
 C                     3.43272  -1.1872    0.62963 
 C                     3.73733  -0.20916  -0.31938 
 N                     4.99016  -0.19693  -0.94351 
 C                     2.70836   0.61097  -0.78914 
 C                     1.41924   0.52572  -0.25071 
 H                    -1.54324  -2.32437  -1.63475 
 H                    -3.27535  -0.94218  -1.90612 
 H                    -5.17717   0.54608  -1.7943 
 H                    -5.24357   1.84899  -0.72777 
 H                    -3.47249   2.36153   0.83437 
 H                    -1.44027   1.54458   1.97787 
 H                     1.92951  -2.03051   1.92449 
 H                     4.19365  -1.88926   0.95837 
 H                     5.23013   0.69674  -1.36043 
 H                     5.73774  -0.56726  -0.36546 
 H                     2.9004    1.33084  -1.57999 
 H                     0.65418   1.20136  -0.61983 
 

 GradGradGradGradGradGradGradGradGradGradGradGradGradGradGradGradGradGrad
 Berny optimization.
 Initialization pass.
                           ----------------------------
                           !    Initial Parameters    !
                           ! (Angstroms and Degrees)  !
 --------------------------                            --------------------------
 ! Name  Definition              Value          Derivative Info.                !
 --------------------------------------------------------------------------------
 ! R1    R(1,2)                  1.3669         calculate D2E/DX2 analytically  !
 ! R2    R(1,17)                 0.9699         calculate D2E/DX2 analytically  !
 ! R3    R(2,3)                  1.3962         calculate D2E/DX2 analytically  !
 ! R4    R(2,8)                  1.3958         calculate D2E/DX2 analytically  !
 ! R5    R(3,4)                  1.3998         calculate D2E/DX2 analytically  !
 ! R6    R(3,18)                 1.0851         calculate D2E/DX2 analytically  !
 ! R7    R(4,5)                  1.4006         calculate D2E/DX2 analytically  !
 ! R8    R(4,6)                  1.3991         calculate D2E/DX2 analytically  !
 ! R9    R(5,19)                 1.0151         calculate D2E/DX2 analytically  !
 ! R10   R(5,20)                 1.0156         calculate D2E/DX2 analytically  !
 ! R11   R(6,7)                  1.3969         calculate D2E/DX2 analytically  !
 ! R12   R(6,21)                 1.0868         calculate D2E/DX2 analytically  !
 ! R13   R(7,8)                  1.3939         calculate D2E/DX2 analytically  !
 ! R14   R(7,22)                 1.0861         calculate D2E/DX2 analytically  !
 ! R15   R(8,9)                  1.3732         calculate D2E/DX2 analytically  !
 ! R16   R(9,10)                 1.3789         calculate D2E/DX2 analytically  !
 ! R17   R(10,11)                1.3952         calculate D2E/DX2 analytically  !
 ! R18   R(10,16)                1.3958         calculate D2E/DX2 analytically  !
 ! R19   R(11,12)                1.3981         calculate D2E/DX2 analytically  !
 ! R20   R(11,23)                1.0865         calculate D2E/DX2 analytically  !
 ! R21   R(12,13)                1.3964         calculate D2E/DX2 analytically  !
 ! R22   R(12,24)                1.0863         calculate D2E/DX2 analytically  !
 ! R23   R(13,14)                1.3997         calculate D2E/DX2 analytically  !
 ! R24   R(13,15)                1.3972         calculate D2E/DX2 analytically  !
 ! R25   R(14,25)                1.0149         calculate D2E/DX2 analytically  !
 ! R26   R(14,26)                1.015          calculate D2E/DX2 analytically  !
 ! R27   R(15,16)                1.3996         calculate D2E/DX2 analytically  !
 ! R28   R(15,27)                1.0865         calculate D2E/DX2 analytically  !
 ! R29   R(16,28)                1.0854         calculate D2E/DX2 analytically  !
 ! A1    A(2,1,17)             109.1695         calculate D2E/DX2 analytically  !
 ! A2    A(1,2,3)              120.3012         calculate D2E/DX2 analytically  !
 ! A3    A(1,2,8)              119.6024         calculate D2E/DX2 analytically  !
 ! A4    A(3,2,8)              120.0964         calculate D2E/DX2 analytically  !
 ! A5    A(2,3,4)              120.3146         calculate D2E/DX2 analytically  !
 ! A6    A(2,3,18)             120.2709         calculate D2E/DX2 analytically  !
 ! A7    A(4,3,18)             119.4121         calculate D2E/DX2 analytically  !
 ! A8    A(3,4,5)              120.1879         calculate D2E/DX2 analytically  !
 ! A9    A(3,4,6)              118.9975         calculate D2E/DX2 analytically  !
 ! A10   A(5,4,6)              120.026          calculate D2E/DX2 analytically  !
 ! A11   A(4,5,19)             114.1192         calculate D2E/DX2 analytically  !
 ! A12   A(4,5,20)             113.8416         calculate D2E/DX2 analytically  !
 ! A13   A(19,5,20)            112.1493         calculate D2E/DX2 analytically  !
 ! A14   A(4,6,7)              120.7077         calculate D2E/DX2 analytically  !
 ! A15   A(4,6,21)             120.3021         calculate D2E/DX2 analytically  !
 ! A16   A(7,6,21)             118.989          calculate D2E/DX2 analytically  !
 ! A17   A(6,7,8)              119.7289         calculate D2E/DX2 analytically  !
 ! A18   A(6,7,22)             120.2452         calculate D2E/DX2 analytically  !
 ! A19   A(8,7,22)             120.0139         calculate D2E/DX2 analytically  !
 ! A20   A(2,8,7)              119.9898         calculate D2E/DX2 analytically  !
 ! A21   A(2,8,9)              122.0818         calculate D2E/DX2 analytically  !
 ! A22   A(7,8,9)              117.8746         calculate D2E/DX2 analytically  !
 ! A23   A(8,9,10)             117.6898         calculate D2E/DX2 analytically  !
 ! A24   A(9,10,11)            115.5975         calculate D2E/DX2 analytically  !
 ! A25   A(9,10,16)            124.9901         calculate D2E/DX2 analytically  !
 ! A26   A(11,10,16)           119.3915         calculate D2E/DX2 analytically  !
 ! A27   A(10,11,12)           120.3281         calculate D2E/DX2 analytically  !
 ! A28   A(10,11,23)           119.7991         calculate D2E/DX2 analytically  !
 ! A29   A(12,11,23)           119.8592         calculate D2E/DX2 analytically  !
 ! A30   A(11,12,13)           120.6333         calculate D2E/DX2 analytically  !
 ! A31   A(11,12,24)           119.0            calculate D2E/DX2 analytically  !
 ! A32   A(13,12,24)           120.3666         calculate D2E/DX2 analytically  !
 ! A33   A(12,13,14)           120.2915         calculate D2E/DX2 analytically  !
 ! A34   A(12,13,15)           118.6182         calculate D2E/DX2 analytically  !
 ! A35   A(14,13,15)           120.2732         calculate D2E/DX2 analytically  !
 ! A36   A(13,14,25)           113.734          calculate D2E/DX2 analytically  !
 ! A37   A(13,14,26)           113.71           calculate D2E/DX2 analytically  !
 ! A38   A(25,14,26)           112.4012         calculate D2E/DX2 analytically  !
 ! A39   A(13,15,16)           120.8788         calculate D2E/DX2 analytically  !
 ! A40   A(13,15,27)           120.2298         calculate D2E/DX2 analytically  !
 ! A41   A(16,15,27)           118.891          calculate D2E/DX2 analytically  !
 ! A42   A(10,16,15)           119.9773         calculate D2E/DX2 analytically  !
 ! A43   A(10,16,28)           121.3035         calculate D2E/DX2 analytically  !
 ! A44   A(15,16,28)           118.7165         calculate D2E/DX2 analytically  !
 ! D1    D(17,1,2,3)             5.31           calculate D2E/DX2 analytically  !
 ! D2    D(17,1,2,8)          -174.6253         calculate D2E/DX2 analytically  !
 ! D3    D(1,2,3,4)            177.2021         calculate D2E/DX2 analytically  !
 ! D4    D(1,2,3,18)            -2.2265         calculate D2E/DX2 analytically  !
 ! D5    D(8,2,3,4)             -2.8629         calculate D2E/DX2 analytically  !
 ! D6    D(8,2,3,18)           177.7085         calculate D2E/DX2 analytically  !
 ! D7    D(1,2,8,7)           -178.7676         calculate D2E/DX2 analytically  !
 ! D8    D(1,2,8,9)             -1.4922         calculate D2E/DX2 analytically  !
 ! D9    D(3,2,8,7)              1.297          calculate D2E/DX2 analytically  !
 ! D10   D(3,2,8,9)            178.5724         calculate D2E/DX2 analytically  !
 ! D11   D(2,3,4,5)            174.2584         calculate D2E/DX2 analytically  !
 ! D12   D(2,3,4,6)              4.4235         calculate D2E/DX2 analytically  !
 ! D13   D(18,3,4,5)            -6.308          calculate D2E/DX2 analytically  !
 ! D14   D(18,3,4,6)          -176.1429         calculate D2E/DX2 analytically  !
 ! D15   D(3,4,5,19)            30.5204         calculate D2E/DX2 analytically  !
 ! D16   D(3,4,5,20)           161.0229         calculate D2E/DX2 analytically  !
 ! D17   D(6,4,5,19)          -159.7496         calculate D2E/DX2 analytically  !
 ! D18   D(6,4,5,20)           -29.2472         calculate D2E/DX2 analytically  !
 ! D19   D(3,4,6,7)             -4.4981         calculate D2E/DX2 analytically  !
 ! D20   D(3,4,6,21)           175.9009         calculate D2E/DX2 analytically  !
 ! D21   D(5,4,6,7)           -174.3498         calculate D2E/DX2 analytically  !
 ! D22   D(5,4,6,21)             6.0492         calculate D2E/DX2 analytically  !
 ! D23   D(4,6,7,8)              2.9847         calculate D2E/DX2 analytically  !
 ! D24   D(4,6,7,22)          -178.2715         calculate D2E/DX2 analytically  !
 ! D25   D(21,6,7,8)          -177.4092         calculate D2E/DX2 analytically  !
 ! D26   D(21,6,7,22)            1.3346         calculate D2E/DX2 analytically  !
 ! D27   D(6,7,8,2)             -1.3482         calculate D2E/DX2 analytically  !
 ! D28   D(6,7,8,9)           -178.7367         calculate D2E/DX2 analytically  !
 ! D29   D(22,7,8,2)           179.9051         calculate D2E/DX2 analytically  !
 ! D30   D(22,7,8,9)             2.5165         calculate D2E/DX2 analytically  !
 ! D31   D(2,8,9,10)            74.1606         calculate D2E/DX2 analytically  !
 ! D32   D(7,8,9,10)          -108.5089         calculate D2E/DX2 analytically  !
 ! D33   D(8,9,10,11)         -156.681          calculate D2E/DX2 analytically  !
 ! D34   D(8,9,10,16)           24.9966         calculate D2E/DX2 analytically  !
 ! D35   D(9,10,11,12)        -178.6738         calculate D2E/DX2 analytically  !
 ! D36   D(9,10,11,23)           2.6719         calculate D2E/DX2 analytically  !
 ! D37   D(16,10,11,12)         -0.2513         calculate D2E/DX2 analytically  !
 ! D38   D(16,10,11,23)       -178.9055         calculate D2E/DX2 analytically  !
 ! D39   D(9,10,16,15)         178.4815         calculate D2E/DX2 analytically  !
 ! D40   D(9,10,16,28)          -2.1176         calculate D2E/DX2 analytically  !
 ! D41   D(11,10,16,15)          0.2181         calculate D2E/DX2 analytically  !
 ! D42   D(11,10,16,28)        179.619          calculate D2E/DX2 analytically  !
 ! D43   D(10,11,12,13)          2.5698         calculate D2E/DX2 analytically  !
 ! D44   D(10,11,12,24)       -177.5256         calculate D2E/DX2 analytically  !
 ! D45   D(23,11,12,13)       -178.7768         calculate D2E/DX2 analytically  !
 ! D46   D(23,11,12,24)          1.1279         calculate D2E/DX2 analytically  !
 ! D47   D(11,12,13,14)       -174.4362         calculate D2E/DX2 analytically  !
 ! D48   D(11,12,13,15)         -4.7571         calculate D2E/DX2 analytically  !
 ! D49   D(24,12,13,14)          5.6604         calculate D2E/DX2 analytically  !
 ! D50   D(24,12,13,15)        175.3396         calculate D2E/DX2 analytically  !
 ! D51   D(12,13,14,25)       -160.3612         calculate D2E/DX2 analytically  !
 ! D52   D(12,13,14,26)        -29.9873         calculate D2E/DX2 analytically  !
 ! D53   D(15,13,14,25)         30.1313         calculate D2E/DX2 analytically  !
 ! D54   D(15,13,14,26)        160.5052         calculate D2E/DX2 analytically  !
 ! D55   D(12,13,15,16)          4.7365         calculate D2E/DX2 analytically  !
 ! D56   D(12,13,15,27)       -175.4962         calculate D2E/DX2 analytically  !
 ! D57   D(14,13,15,16)        174.4176         calculate D2E/DX2 analytically  !
 ! D58   D(14,13,15,27)         -5.8151         calculate D2E/DX2 analytically  !
 ! D59   D(13,15,16,10)         -2.5086         calculate D2E/DX2 analytically  !
 ! D60   D(13,15,16,28)        178.0751         calculate D2E/DX2 analytically  !
 ! D61   D(27,15,16,10)        177.721          calculate D2E/DX2 analytically  !
 ! D62   D(27,15,16,28)         -1.6953         calculate D2E/DX2 analytically  !
 --------------------------------------------------------------------------------
 Trust Radius=3.00D-01 FncErr=1.00D-07 GrdErr=1.00D-06 EigMax=2.50D+02 EigMin=1.00D-04
 Number of steps in this run=    145 maximum allowed number of steps=    168.
 GradGradGradGradGradGradGradGradGradGradGradGradGradGradGradGradGradGrad

                          Input orientation:                          
 ---------------------------------------------------------------------
 Center     Atomic      Atomic             Coordinates (Angstroms)
 Number     Number       Type             X           Y           Z
 ---------------------------------------------------------------------
      1          8           0       -1.104881   -2.003400   -0.831342
      2          6           0       -1.729260   -0.865211   -0.403561
      3          6           0       -2.885202   -0.413108   -1.042829
      4          6           0       -3.557767    0.719376   -0.568879
      5          7           0       -4.645683    1.241388   -1.279944
      6          6           0       -3.003762    1.442259    0.493182
      7          6           0       -1.848080    0.992485    1.136188
      8          6           0       -1.203627   -0.154944    0.676926
      9          8           0       -0.085990   -0.577881    1.353406
     10          6           0        1.135467   -0.423461    0.732554
     11          6           0        2.147439   -1.277429    1.172298
     12          6           0        3.432718   -1.187203    0.629627
     13          6           0        3.737335   -0.209165   -0.319378
     14          7           0        4.990163   -0.196928   -0.943511
     15          6           0        2.708357    0.610966   -0.789140
     16          6           0        1.419240    0.525720   -0.250713
     17          1           0       -1.543235   -2.324367   -1.634751
     18          1           0       -3.275354   -0.942183   -1.906117
     19          1           0       -5.177166    0.546084   -1.794297
     20          1           0       -5.243567    1.848986   -0.727773
     21          1           0       -3.472485    2.361526    0.834366
     22          1           0       -1.440274    1.544579    1.977867
     23          1           0        1.929508   -2.030511    1.924488
     24          1           0        4.193652   -1.889262    0.958373
     25          1           0        5.230129    0.696738   -1.360430
     26          1           0        5.737742   -0.567260   -0.365456
     27          1           0        2.900397    1.330845   -1.579988
     28          1           0        0.654185    1.201362   -0.619827
 ---------------------------------------------------------------------
                    Distance matrix (angstroms):
                    1          2          3          4          5
     1  O    0.000000
     2  C    1.366865   0.000000
     3  C    2.396518   1.396160   0.000000
     4  C    3.674104   2.425218   1.399818   0.000000
     5  N    4.823605   3.702881   2.427524   1.400597   0.000000
     6  C    4.151225   2.784406   2.411591   1.399090   2.424918
     7  C    3.660444   2.415777   2.792746   2.429994   3.704892
     8  C    2.387763   1.395787   2.419070   2.803290   4.198432
     9  O    2.800601   2.422772   3.688452   4.175079   5.570912
    10  C    3.156127   3.113288   4.395211   5.002624   6.343782
    11  C    3.888340   4.205002   5.566086   6.290333   7.648818
    12  C    4.836364   5.274199   6.581220   7.344272   8.648993
    13  C    5.189262   5.506463   6.665056   7.358189   8.561645
    14  N    6.358104   6.774126   7.878958   8.605060   9.748408
    15  C    4.623578   4.692569   5.692187   6.270930   7.397311
    16  C    3.620050   3.445446   4.476279   4.990924   6.193124
    17  H    0.969866   1.918220   2.409182   3.802471   4.739797
    18  H    2.644291   2.157315   1.085083   2.151451   2.652900
    19  H    4.900067   3.976677   2.595737   2.038170   1.015126
    20  H    5.655115   4.452228   3.283019   2.035483   1.015645
    21  H    5.237624   3.870804   3.401081   2.161718   2.664847
    22  H    4.537873   3.400264   3.878784   3.413305   4.580383
    23  H    4.099128   4.490470   5.882380   6.624873   8.012917
    24  H    5.593796   6.163150   7.502934   8.319974   9.640791
    25  H    6.906737   7.196413   8.197025   8.823501   9.891146
    26  H    7.007213   7.473040   8.650882   9.386335  10.579367
    27  H    5.264970   5.257410   6.066554   6.565372   7.552572
    28  H    3.661905   3.162009   3.913146   4.239745   5.340969
                    6          7          8          9         10
     6  C    0.000000
     7  C    1.396909   0.000000
     8  C    2.413566   1.393856   0.000000
     9  O    3.651622   2.370273   1.373176   0.000000
    10  C    4.546584   3.327068   2.355114   1.378862   0.000000
    11  C    5.864534   4.595431   3.568614   2.347418   1.395249
    12  C    6.954204   5.735371   4.750105   3.643684   2.423068
    13  C    6.987835   5.895718   5.040701   4.189507   2.814640
    14  N    8.285762   7.245787   6.402392   5.584647   4.209417
    15  C    5.913010   4.961206   4.247303   3.716481   2.420655
    16  C    4.577812   3.580048   2.864132   2.461067   1.395811
    17  H    4.566038   4.332729   3.188350   3.755377   4.048829
    18  H    3.393517   3.877586   3.403514   4.574849   5.165946
    19  H    3.280149   4.457559   4.731532   6.090271   6.868358
    20  H    2.583193   3.967023   4.723349   6.068079   6.927384
    21  H    1.086812   2.145707   3.391920   4.514184   5.385141
    22  H    2.158531   1.086065   2.153329   2.594007   3.472525
    23  H    6.200477   4.902050   3.858847   2.549216   2.152630
    24  H    7.944696   6.696164   5.676063   4.493451   3.398831
    25  H    8.472817   7.511432   6.802161   6.103333   4.733041
    26  H    9.010511   7.888753   7.031299   6.072104   4.733628
    27  H    6.258557   5.480888   4.913680   4.600711   3.397119
    28  H    3.831108   3.064074   2.640568   2.758117   2.168091
                   11         12         13         14         15
    11  C    0.000000
    12  C    1.398062   0.000000
    13  C    2.427768   1.396409   0.000000
    14  N    3.704756   2.425086   1.399740   0.000000
    15  C    2.779910   2.402292   1.397171   2.425524   0.000000
    16  C    2.409685   2.786251   2.432763   3.708596   1.399640
    17  H    4.753596   5.583964   5.838553   6.905729   5.235195
    18  H    6.244654   7.175532   7.227230   8.354686   6.282093
    19  H    8.110223   9.110971   9.067200  10.229882   7.949593
    20  H    8.246921   9.291873   9.222764  10.438464   8.047953
    21  H    6.703710   7.766416   7.740871   9.017924   6.625937
    22  H    4.635121   5.746863   5.929636   7.274463   5.073371
    23  H    1.086470   2.155800   3.408881   4.577669   3.866236
    24  H    2.146414   1.086269   2.159536   2.667505   3.392792
    25  H    4.451407   3.277230   2.032949   1.014911   2.587095
    26  H    3.969799   2.586049   2.032728   1.014972   3.277941
    27  H    3.865892   3.392098   2.158989   2.665767   1.086529
    28  H    3.403810   3.871256   3.403773   4.567351   2.144028
                   16         17         18         19         20
    16  C    0.000000
    17  H    4.337604   0.000000
    18  H    5.189827   2.232555   0.000000
    19  H    6.774632   4.633616   2.417506   0.000000
    20  H    6.809671   5.650835   3.612892   1.685064   0.000000
    21  H    5.336343   5.637032   4.296929   3.621000   2.416548
    22  H    3.765828   5.294369   4.963551   5.402831   4.677413
    23  H    3.395025   4.981413   6.553516   8.424549   8.575430
    24  H    3.871871   6.310743   8.055327  10.065800  10.289736
    25  H    3.972857   7.421643   8.679116  10.417424  10.555862
    26  H    4.456145   7.596786   9.151507  11.064192  11.249829
    27  H    2.146864   5.754080   6.588848   8.118424   8.204809
    28  H    1.085379   4.276621   4.657317   5.984432   5.934184
                   21         22         23         24         25
    21  H    0.000000
    22  H    2.470805   0.000000
    23  H    7.046977   4.913202   0.000000
    24  H    8.766654   6.676207   2.465700   0.000000
    25  H    9.128205   7.507151   5.396542   3.624710   0.000000
    26  H    9.738872   7.840595   4.678417   2.425783   1.686812
    27  H    6.892390   5.616532   4.952039   4.299403   2.424448
    28  H    4.526595   3.354485   4.306390   4.956863   4.662875
                   26         27         28
    26  H    0.000000
    27  H    3.623315   0.000000
    28  H    5.388439   2.446251   0.000000
 Stoichiometry    C12H12N2O2
 Framework group  C1[X(C12H12N2O2)]
 Deg. of freedom    78
 Full point group                 C1      NOp   1
 Largest Abelian subgroup         C1      NOp   1
 Largest concise Abelian subgroup C1      NOp   1
                         Standard orientation:                         
 ---------------------------------------------------------------------
 Center     Atomic      Atomic             Coordinates (Angstroms)
 Number     Number       Type             X           Y           Z
 ---------------------------------------------------------------------
      1          8           0        0.830301    1.560715   -1.474388
      2          6           0        1.584338    0.791641   -0.632798
      3          6           0        2.821937    0.297433   -1.049177
      4          6           0        3.620562   -0.441041   -0.168073
      5          7           0        4.804105   -1.037102   -0.621513
      6          6           0        3.120145   -0.754508    1.100302
      7          6           0        1.882942   -0.260884    1.521037
      8          6           0        1.109327    0.501091    0.647110
      9          8           0       -0.088185    0.989306    1.108873
     10          6           0       -1.244277    0.423320    0.614534
     11          6           0       -2.385246    1.223233    0.685601
     12          6           0       -3.617222    0.737124    0.237817
     13          6           0       -3.736163   -0.570851   -0.236539
     14          7           0       -4.942810   -1.013972   -0.790540
     15          6           0       -2.581572   -1.349565   -0.348841
     16          6           0       -1.344902   -0.869093    0.097009
     17          1           0        1.259184    1.596107   -2.343552
     18          1           0        3.177286    0.490413   -2.056099
     19          1           0        5.258975   -0.534038   -1.376829
     20          1           0        5.452313   -1.280039    0.121685
     21          1           0        3.694188   -1.382589    1.776430
     22          1           0        1.514385   -0.485896    2.517567
     23          1           0       -2.311165    2.236464    1.070686
     24          1           0       -4.483357    1.392123    0.265486
     25          1           0       -5.035803   -2.024388   -0.811908
     26          1           0       -5.762133   -0.558275   -0.401673
     27          1           0       -2.632730   -2.344306   -0.782915
     28          1           0       -0.476351   -1.515621    0.021729
 ---------------------------------------------------------------------
 Rotational constants (GHZ):           1.3864070           0.2532735           0.2505008
 Standard basis: 6-31G(d,p) (6D, 7F)
 There are   300 symmetry adapted cartesian basis functions of A   symmetry.
 There are   300 symmetry adapted basis functions of A   symmetry.
   300 basis functions,   532 primitive gaussians,   300 cartesian basis functions
    57 alpha electrons       57 beta electrons
       nuclear repulsion energy      1027.8956975364 Hartrees.
 NAtoms=   28 NActive=   28 NUniq=   28 SFac= 1.00D+00 NAtFMM=   60 NAOKFM=F Big=F
 Integral buffers will be    131072 words long.
 Raffenetti 2 integral format.
 Two-electron integral symmetry is turned on.
 Force inversion solution in PCM.
 ------------------------------------------------------------------------------
 Polarizable Continuum Model (PCM)
 =================================
 Model                : PCM.
 Atomic radii         : UFF (Universal Force Field).
 Polarization charges : Total charges.
 Charge compensation  : None.
 Solution method      : Matrix inversion.
 Cavity type          : Scaled VdW (van der Waals Surface) (Alpha=1.100).
 Cavity algorithm     : GePol (No added spheres)
                        Default sphere list used, NSphG=   28.
                        Lebedev-Laikov grids with approx.  5.0 points / Ang**2.
                        Smoothing algorithm: York/Karplus (Gamma=1.0000).
                        Polarization charges: spherical gaussians, with
                                              point-specific exponents (IZeta= 3).
                        Self-potential: point-specific (ISelfS= 7).
                        Self-field    : sphere-specific E.n sum rule (ISelfD= 2).
 1st derivatives      : Analytical E(r).r(x)/FMM algorithm (CHGder, D1EAlg=3).
                        Cavity 1st derivative terms included.
 2nd derivatives      : Analytical E(r).r(xy)/FMM algorithm (CHGder, D2EAlg=3).
                        Cavity 2nd derivative terms included.
 Solvent              : Water, Eps=  78.355300 Eps(inf)=   1.777849
 ------------------------------------------------------------------------------
 One-electron integrals computed using PRISM.
 NBasis=   300 RedAO= T EigKep=  3.81D-04  NBF=   300
 NBsUse=   300 1.00D-06 EigRej= -1.00D+00 NBFU=   300
 ExpMin= 1.61D-01 ExpMax= 5.48D+03 ExpMxC= 8.25D+02 IAcc=3 IRadAn=         5 AccDes= 0.00D+00
 Harris functional with IExCor=  402 and IRadAn=       5 diagonalized for initial guess.
 HarFok:  IExCor=  402 AccDes= 0.00D+00 IRadAn=         5 IDoV= 1 UseB2=F ITyADJ=14
 ICtDFT=  3500011 ScaDFX=  1.000000  1.000000  1.000000  1.000000
 FoFCou: FMM=F IPFlag=           0 FMFlag=      100000 FMFlg1=           0
         NFxFlg=           0 DoJE=T BraDBF=F KetDBF=T FulRan=T
         wScrn=  0.000000 ICntrl=       500 IOpCl=  0 I1Cent=   200000004 NGrid=           0
         NMat0=    1 NMatS0=      1 NMatT0=    0 NMatD0=    1 NMtDS0=    0 NMtDT0=    0
 Petite list used in FoFCou.
 Keep R1 ints in memory in canonical form, NReq=1032920980.
 Requested convergence on RMS density matrix=1.00D-08 within  32 cycles.
 Requested convergence on MAX density matrix=1.00D-06.
 Requested convergence on             energy=1.00D-06.
 No special actions if energy rises.
 Inv3:  Mode=1 IEnd=    14639043.
 Iteration    1 A*A^-1 deviation from unit magnitude is 3.00D-15 for   1339.
 Iteration    1 A*A^-1 deviation from orthogonality  is 3.74D-15 for   1019    563.
 Iteration    1 A^-1*A deviation from unit magnitude is 3.00D-15 for   1339.
 Iteration    1 A^-1*A deviation from orthogonality  is 2.65D-15 for   1203    636.
 Error on total polarization charges =  0.00850
 SCF Done:  E(RB3LYP) =  -724.471370667     A.U. after   13 cycles
            NFock= 13  Conv=0.29D-08     -V/T= 2.0093
 QCSCF skips out because SCF is already converged.
 DoSCS=F DFT=T ScalE2(SS,OS)=  1.000000  1.000000
 Range of M.O.s used for correlation:     1   300
 NBasis=   300 NAE=    57 NBE=    57 NFC=     0 NFV=     0
 NROrb=    300 NOA=    57 NOB=    57 NVA=   243 NVB=   243
 Symmetrizing basis deriv contribution to polar:
 IMax=3 JMax=2 DiffMx= 0.00D+00
 G2DrvN: will do    29 centers at a time, making    1 passes.
 Calling FoFCou, ICntrl=  3107 FMM=F I1Cent=   0 AccDes= 0.00D+00.
 NEqPCM:  Using equilibrium solvation (IEInf=0, Eps=  78.3553, EpsInf=   1.7778)
 G2PCM: DoFxE=T DoFxN=T DoGrad=T DoDP/DQ/DG/TGxP=FFFF NFrqRd=   0 IEInf=0 SqF1=F DoCFld=F IF1Alg=4.
 End of G2Drv F.D. properties file   721 does not exist.
 End of G2Drv F.D. properties file   722 does not exist.
 End of G2Drv F.D. properties file   788 does not exist.
          IDoAtm=1111111111111111111111111111
 NEqPCM:  Using equilibrium solvation (IEInf=0, Eps=  78.3553, EpsInf=   1.7778)
          Differentiating once with respect to nuclear coordinates.
 Keep R1 ints in memory in canonical form, NReq=1032932662.
          There are    87 degrees of freedom in the 1st order CPHF.  IDoFFX=6 NUNeed=     0.
     81 vectors produced by pass  0 Test12= 1.59D-14 1.15D-09 XBig12= 1.29D-01 1.23D-01.
 AX will form    81 AO Fock derivatives at one time.
     81 vectors produced by pass  1 Test12= 1.59D-14 1.15D-09 XBig12= 1.83D-02 3.06D-02.
     81 vectors produced by pass  2 Test12= 1.59D-14 1.15D-09 XBig12= 2.49D-04 2.38D-03.
     81 vectors produced by pass  3 Test12= 1.59D-14 1.15D-09 XBig12= 1.81D-06 1.60D-04.
     81 vectors produced by pass  4 Test12= 1.59D-14 1.15D-09 XBig12= 4.09D-09 4.78D-06.
     64 vectors produced by pass  5 Test12= 1.59D-14 1.15D-09 XBig12= 4.27D-12 1.83D-07.
     16 vectors produced by pass  6 Test12= 1.59D-14 1.15D-09 XBig12= 2.98D-15 4.08D-09.
 InvSVY:  IOpt=1 It=  1 EMax= 5.00D-16
 Solved reduced A of dimension   485 with    87 vectors.
 End of Minotr F.D. properties file   721 does not exist.
 End of Minotr F.D. properties file   722 does not exist.
 End of Minotr F.D. properties file   788 does not exist.

 **********************************************************************

            Population analysis using the SCF density.

 **********************************************************************

 Orbital symmetries:
       Occupied  (A) (A) (A) (A) (A) (A) (A) (A) (A) (A) (A) (A)
                 (A) (A) (A) (A) (A) (A) (A) (A) (A) (A) (A) (A)
                 (A) (A) (A) (A) (A) (A) (A) (A) (A) (A) (A) (A)
                 (A) (A) (A) (A) (A) (A) (A) (A) (A) (A) (A) (A)
                 (A) (A) (A) (A) (A) (A) (A) (A) (A)
       Virtual   (A) (A) (A) (A) (A) (A) (A) (A) (A) (A) (A) (A)
                 (A) (A) (A) (A) (A) (A) (A) (A) (A) (A) (A) (A)
                 (A) (A) (A) (A) (A) (A) (A) (A) (A) (A) (A) (A)
                 (A) (A) (A) (A) (A) (A) (A) (A) (A) (A) (A) (A)
                 (A) (A) (A) (A) (A) (A) (A) (A) (A) (A) (A) (A)
                 (A) (A) (A) (A) (A) (A) (A) (A) (A) (A) (A) (A)
                 (A) (A) (A) (A) (A) (A) (A) (A) (A) (A) (A) (A)
                 (A) (A) (A) (A) (A) (A) (A) (A) (A) (A) (A) (A)
                 (A) (A) (A) (A) (A) (A) (A) (A) (A) (A) (A) (A)
                 (A) (A) (A) (A) (A) (A) (A) (A) (A) (A) (A) (A)
                 (A) (A) (A) (A) (A) (A) (A) (A) (A) (A) (A) (A)
                 (A) (A) (A) (A) (A) (A) (A) (A) (A) (A) (A) (A)
                 (A) (A) (A) (A) (A) (A) (A) (A) (A) (A) (A) (A)
                 (A) (A) (A) (A) (A) (A) (A) (A) (A) (A) (A) (A)
                 (A) (A) (A) (A) (A) (A) (A) (A) (A) (A) (A) (A)
                 (A) (A) (A) (A) (A) (A) (A) (A) (A) (A) (A) (A)
                 (A) (A) (A) (A) (A) (A) (A) (A) (A) (A) (A) (A)
                 (A) (A) (A) (A) (A) (A) (A) (A) (A) (A) (A) (A)
                 (A) (A) (A) (A) (A) (A) (A) (A) (A) (A) (A) (A)
                 (A) (A) (A) (A) (A) (A) (A) (A) (A) (A) (A) (A)
                 (A) (A) (A)
 The electronic state is 1-A.
 Alpha  occ. eigenvalues --  -19.18055 -19.17863 -14.33713 -14.33220 -10.25275
 Alpha  occ. eigenvalues --  -10.23842 -10.23359 -10.22938 -10.22066 -10.19162
 Alpha  occ. eigenvalues --  -10.18700 -10.18527 -10.18419 -10.18382 -10.18360
 Alpha  occ. eigenvalues --  -10.17998  -1.07686  -1.05528  -0.91438  -0.91082
 Alpha  occ. eigenvalues --   -0.84240  -0.82578  -0.74803  -0.74270  -0.73762
 Alpha  occ. eigenvalues --   -0.70384  -0.63450  -0.62535  -0.60974  -0.57796
 Alpha  occ. eigenvalues --   -0.55031  -0.54104  -0.51337  -0.50942  -0.49993
 Alpha  occ. eigenvalues --   -0.47871  -0.45924  -0.45169  -0.43955  -0.43553
 Alpha  occ. eigenvalues --   -0.42054  -0.41461  -0.40751  -0.39968  -0.38826
 Alpha  occ. eigenvalues --   -0.37602  -0.37009  -0.36506  -0.35616  -0.34613
 Alpha  occ. eigenvalues --   -0.33332  -0.29209  -0.28044  -0.24982  -0.23261
 Alpha  occ. eigenvalues --   -0.20121  -0.18885
 Alpha virt. eigenvalues --   -0.00694   0.00453   0.02005   0.02911   0.07917
 Alpha virt. eigenvalues --    0.09118   0.09350   0.10640   0.11265   0.13183
 Alpha virt. eigenvalues --    0.13317   0.16396   0.16933   0.17395   0.17728
 Alpha virt. eigenvalues --    0.17946   0.18972   0.19954   0.20360   0.25117
 Alpha virt. eigenvalues --    0.25869   0.26271   0.28726   0.33283   0.33788
 Alpha virt. eigenvalues --    0.34093   0.34794   0.35372   0.36104   0.37513
 Alpha virt. eigenvalues --    0.38807   0.47208   0.49203   0.49809   0.51473
 Alpha virt. eigenvalues --    0.51850   0.53421   0.53948   0.54071   0.56547
 Alpha virt. eigenvalues --    0.56703   0.57337   0.58119   0.58812   0.59325
 Alpha virt. eigenvalues --    0.59834   0.60117   0.60237   0.61499   0.62041
 Alpha virt. eigenvalues --    0.62296   0.63313   0.64022   0.64278   0.65282
 Alpha virt. eigenvalues --    0.67912   0.68399   0.70060   0.70336   0.73109
 Alpha virt. eigenvalues --    0.74048   0.76022   0.76723   0.78432   0.79976
 Alpha virt. eigenvalues --    0.81240   0.82275   0.82383   0.83312   0.84396
 Alpha virt. eigenvalues --    0.85127   0.85765   0.86379   0.86818   0.87102
 Alpha virt. eigenvalues --    0.88500   0.88728   0.90026   0.90348   0.91473
 Alpha virt. eigenvalues --    0.94171   0.95154   0.98230   0.98349   0.99836
 Alpha virt. eigenvalues --    1.00538   1.01456   1.02835   1.05666   1.06236
 Alpha virt. eigenvalues --    1.07770   1.09282   1.12221   1.15128   1.15621
 Alpha virt. eigenvalues --    1.18003   1.18649   1.21340   1.22782   1.25030
 Alpha virt. eigenvalues --    1.25996   1.27250   1.30617   1.30776   1.31963
 Alpha virt. eigenvalues --    1.34600   1.36143   1.37511   1.38622   1.40072
 Alpha virt. eigenvalues --    1.40718   1.40845   1.41433   1.43704   1.46421
 Alpha virt. eigenvalues --    1.47716   1.49633   1.52382   1.59328   1.65643
 Alpha virt. eigenvalues --    1.69303   1.73164   1.73680   1.75280   1.77332
 Alpha virt. eigenvalues --    1.78980   1.79380   1.79901   1.80447   1.82135
 Alpha virt. eigenvalues --    1.83805   1.85052   1.85232   1.87391   1.88972
 Alpha virt. eigenvalues --    1.90278   1.90858   1.91800   1.92945   1.94302
 Alpha virt. eigenvalues --    1.95006   1.96309   1.97344   1.98086   1.99886
 Alpha virt. eigenvalues --    2.00169   2.02496   2.03018   2.05902   2.07359
 Alpha virt. eigenvalues --    2.10655   2.13530   2.15938   2.16879   2.17778
 Alpha virt. eigenvalues --    2.21966   2.25296   2.25521   2.26369   2.27219
 Alpha virt. eigenvalues --    2.28536   2.30462   2.30826   2.32785   2.33349
 Alpha virt. eigenvalues --    2.34489   2.35981   2.36584   2.39070   2.39868
 Alpha virt. eigenvalues --    2.41455   2.42123   2.44278   2.44774   2.45921
 Alpha virt. eigenvalues --    2.46936   2.47089   2.47748   2.49543   2.49775
 Alpha virt. eigenvalues --    2.52205   2.52869   2.53833   2.56516   2.56874
 Alpha virt. eigenvalues --    2.57344   2.59549   2.59908   2.61281   2.65757
 Alpha virt. eigenvalues --    2.67957   2.69604   2.70729   2.72190   2.72530
 Alpha virt. eigenvalues --    2.74329   2.74910   2.78607   2.79107   2.82368
 Alpha virt. eigenvalues --    2.85990   2.87136   2.91703   2.95078   2.97823
 Alpha virt. eigenvalues --    3.00384   3.03565   3.06215   3.09646   3.12323
 Alpha virt. eigenvalues --    3.14523   3.19032   3.20232   3.25562   3.27825
 Alpha virt. eigenvalues --    3.28752   3.30907   3.33187   3.36352   3.38139
 Alpha virt. eigenvalues --    3.43636   3.48140   3.48931   3.53233   3.54804
 Alpha virt. eigenvalues --    3.79090   3.83864   4.02396   4.04333   4.08622
 Alpha virt. eigenvalues --    4.13160   4.14059   4.16041   4.16612   4.21206
 Alpha virt. eigenvalues --    4.30234   4.42548   4.44098   4.46188   4.49245
 Alpha virt. eigenvalues --    4.71671   4.83947   4.99982
          Condensed to atoms (all electrons):
               1          2          3          4          5          6
     1  O    8.126902   0.273900  -0.064026   0.004765  -0.000029   0.000137
     2  C    0.273900   4.682955   0.467124   0.003924   0.003214  -0.038099
     3  C   -0.064026   0.467124   5.180232   0.471727  -0.060818  -0.055684
     4  C    0.004765   0.003924   0.471727   4.599422   0.294315   0.535022
     5  N   -0.000029   0.003214  -0.060818   0.294315   6.827654  -0.068936
     6  C    0.000137  -0.038099  -0.055684   0.535022  -0.068936   4.991314
     7  C    0.003369  -0.055146  -0.044683  -0.018101   0.004226   0.489772
     8  C   -0.060137   0.456957  -0.053954  -0.031419   0.000698  -0.033857
     9  O   -0.001536  -0.057509   0.004916  -0.000022   0.000000   0.004983
    10  C    0.005091  -0.002759  -0.000079   0.000054   0.000000   0.000006
    11  C   -0.000376   0.000540   0.000000  -0.000001  -0.000000   0.000008
    12  C   -0.000027  -0.000029  -0.000000   0.000000  -0.000000  -0.000000
    13  C    0.000010  -0.000002   0.000000   0.000000  -0.000000  -0.000000
    14  N   -0.000000   0.000000   0.000000  -0.000000   0.000000  -0.000000
    15  C   -0.000036  -0.000095   0.000000  -0.000000  -0.000000   0.000002
    16  C    0.000152   0.000841  -0.000393   0.000024   0.000000  -0.000244
    17  H    0.303506  -0.032957  -0.007496   0.000672  -0.000010  -0.000023
    18  H   -0.006860  -0.032190   0.354846  -0.033613  -0.007157   0.005217
    19  H   -0.000001  -0.000100  -0.010202  -0.023842   0.343302   0.005481
    20  H    0.000001  -0.000118   0.005168  -0.025069   0.344639  -0.009281
    21  H    0.000002   0.000527   0.005688  -0.041547  -0.007392   0.362086
    22  H   -0.000049   0.006166   0.000391   0.003970  -0.000111  -0.034845
    23  H    0.000050  -0.000036  -0.000000  -0.000000  -0.000000  -0.000000
    24  H   -0.000000   0.000000   0.000000  -0.000000  -0.000000   0.000000
    25  H   -0.000000  -0.000000   0.000000  -0.000000   0.000000  -0.000000
    26  H    0.000000  -0.000000   0.000000  -0.000000   0.000000  -0.000000
    27  H   -0.000001   0.000001  -0.000000  -0.000000   0.000000  -0.000000
    28  H   -0.000226   0.000672   0.000142  -0.000164  -0.000001   0.000474
               7          8          9         10         11         12
     1  O    0.003369  -0.060137  -0.001536   0.005091  -0.000376  -0.000027
     2  C   -0.055146   0.456957  -0.057509  -0.002759   0.000540  -0.000029
     3  C   -0.044683  -0.053954   0.004916  -0.000079   0.000000  -0.000000
     4  C   -0.018101  -0.031419  -0.000022   0.000054  -0.000001   0.000000
     5  N    0.004226   0.000698   0.000000   0.000000  -0.000000  -0.000000
     6  C    0.489772  -0.033857   0.004983   0.000006   0.000008  -0.000000
     7  C    4.929512   0.549140  -0.054959  -0.004937  -0.000185   0.000006
     8  C    0.549140   4.751024   0.205851  -0.039770   0.000540  -0.000028
     9  O   -0.054959   0.205851   8.362281   0.243931  -0.052755   0.003634
    10  C   -0.004937  -0.039770   0.243931   4.621641   0.537844  -0.026924
    11  C   -0.000185   0.000540  -0.052755   0.537844   4.931983   0.518506
    12  C    0.000006  -0.000028   0.003634  -0.026924   0.518506   4.934809
    13  C    0.000002   0.000010   0.000166  -0.035223  -0.025969   0.538269
    14  N    0.000000  -0.000000   0.000000   0.000536   0.004477  -0.070415
    15  C    0.000019   0.000043   0.003935  -0.018505  -0.039101  -0.049350
    16  C    0.000883   0.007198  -0.059897   0.479475  -0.063810  -0.040464
    17  H   -0.000107   0.006319  -0.000153  -0.000058   0.000016   0.000001
    18  H    0.000451   0.003806  -0.000052  -0.000001   0.000000  -0.000000
    19  H   -0.000178  -0.000011  -0.000000   0.000000  -0.000000  -0.000000
    20  H   -0.000031   0.000000  -0.000000  -0.000000  -0.000000   0.000000
    21  H   -0.030507   0.003735  -0.000068  -0.000006  -0.000000   0.000000
    22  H    0.360991  -0.036198  -0.001931   0.000566  -0.000063  -0.000000
    23  H    0.000001   0.000236  -0.000339  -0.040219   0.357408  -0.036153
    24  H   -0.000000   0.000000  -0.000061   0.004090  -0.033515   0.364975
    25  H    0.000000   0.000000  -0.000000  -0.000009  -0.000181   0.005461
    26  H   -0.000000   0.000000  -0.000000   0.000002  -0.000068  -0.009478
    27  H   -0.000000   0.000006  -0.000049   0.003332   0.000605   0.005254
    28  H    0.002507   0.009321  -0.007532  -0.043082   0.005143   0.000572
              13         14         15         16         17         18
     1  O    0.000010  -0.000000  -0.000036   0.000152   0.303506  -0.006860
     2  C   -0.000002   0.000000  -0.000095   0.000841  -0.032957  -0.032190
     3  C    0.000000   0.000000   0.000000  -0.000393  -0.007496   0.354846
     4  C    0.000000  -0.000000  -0.000000   0.000024   0.000672  -0.033613
     5  N   -0.000000   0.000000  -0.000000   0.000000  -0.000010  -0.007157
     6  C   -0.000000  -0.000000   0.000002  -0.000244  -0.000023   0.005217
     7  C    0.000002   0.000000   0.000019   0.000883  -0.000107   0.000451
     8  C    0.000010  -0.000000   0.000043   0.007198   0.006319   0.003806
     9  O    0.000166   0.000000   0.003935  -0.059897  -0.000153  -0.000052
    10  C   -0.035223   0.000536  -0.018505   0.479475  -0.000058  -0.000001
    11  C   -0.025969   0.004477  -0.039101  -0.063810   0.000016   0.000000
    12  C    0.538269  -0.070415  -0.049350  -0.040464   0.000001  -0.000000
    13  C    4.587803   0.293841   0.539903  -0.023419  -0.000001  -0.000000
    14  N    0.293841   6.839759  -0.070752   0.004745   0.000000   0.000000
    15  C    0.539903  -0.070752   4.951662   0.495849  -0.000000  -0.000000
    16  C   -0.023419   0.004745   0.495849   4.993851   0.000041   0.000005
    17  H   -0.000001   0.000000  -0.000000   0.000041   0.378555   0.005722
    18  H   -0.000000   0.000000  -0.000000   0.000005   0.005722   0.600391
    19  H    0.000000  -0.000000   0.000000  -0.000000   0.000004   0.004262
    20  H   -0.000000  -0.000000   0.000000   0.000000   0.000000  -0.000055
    21  H    0.000000   0.000000  -0.000000   0.000000  -0.000001  -0.000185
    22  H    0.000000  -0.000000  -0.000007   0.000102   0.000005   0.000012
    23  H    0.004308  -0.000103   0.000261   0.007140  -0.000001   0.000000
    24  H   -0.042964  -0.007358   0.005515   0.000394   0.000000  -0.000000
    25  H   -0.025505   0.344034  -0.009549  -0.000035  -0.000000  -0.000000
    26  H   -0.025422   0.343827   0.005505  -0.000189  -0.000000  -0.000000
    27  H   -0.041900  -0.007266   0.364748  -0.032454   0.000000  -0.000000
    28  H    0.003883  -0.000108  -0.035808   0.363665  -0.000007   0.000003
              19         20         21         22         23         24
     1  O   -0.000001   0.000001   0.000002  -0.000049   0.000050  -0.000000
     2  C   -0.000100  -0.000118   0.000527   0.006166  -0.000036   0.000000
     3  C   -0.010202   0.005168   0.005688   0.000391  -0.000000   0.000000
     4  C   -0.023842  -0.025069  -0.041547   0.003970  -0.000000  -0.000000
     5  N    0.343302   0.344639  -0.007392  -0.000111  -0.000000  -0.000000
     6  C    0.005481  -0.009281   0.362086  -0.034845  -0.000000   0.000000
     7  C   -0.000178  -0.000031  -0.030507   0.360991   0.000001  -0.000000
     8  C   -0.000011   0.000000   0.003735  -0.036198   0.000236   0.000000
     9  O   -0.000000  -0.000000  -0.000068  -0.001931  -0.000339  -0.000061
    10  C    0.000000  -0.000000  -0.000006   0.000566  -0.040219   0.004090
    11  C   -0.000000  -0.000000  -0.000000  -0.000063   0.357408  -0.033515
    12  C   -0.000000   0.000000   0.000000  -0.000000  -0.036153   0.364975
    13  C    0.000000  -0.000000   0.000000   0.000000   0.004308  -0.042964
    14  N   -0.000000  -0.000000   0.000000  -0.000000  -0.000103  -0.007358
    15  C    0.000000   0.000000  -0.000000  -0.000007   0.000261   0.005515
    16  C   -0.000000   0.000000   0.000000   0.000102   0.007140   0.000394
    17  H    0.000004   0.000000  -0.000001   0.000005  -0.000001   0.000000
    18  H    0.004262  -0.000055  -0.000185   0.000012   0.000000  -0.000000
    19  H    0.431744  -0.028422  -0.000056   0.000003  -0.000000  -0.000000
    20  H   -0.028422   0.430095   0.004525  -0.000005  -0.000000  -0.000000
    21  H   -0.000056   0.004525   0.616044  -0.006184  -0.000000  -0.000000
    22  H    0.000003  -0.000005  -0.006184   0.600412   0.000004  -0.000000
    23  H   -0.000000  -0.000000  -0.000000   0.000004   0.616415  -0.006802
    24  H   -0.000000  -0.000000  -0.000000  -0.000000  -0.006802   0.615109
    25  H   -0.000000  -0.000000   0.000000  -0.000000   0.000003  -0.000071
    26  H   -0.000000  -0.000000  -0.000000  -0.000000  -0.000007   0.004493
    27  H   -0.000000  -0.000000  -0.000000   0.000000   0.000014  -0.000190
    28  H   -0.000000  -0.000000   0.000001   0.000026  -0.000153   0.000013
              25         26         27         28
     1  O   -0.000000   0.000000  -0.000001  -0.000226
     2  C   -0.000000  -0.000000   0.000001   0.000672
     3  C    0.000000   0.000000  -0.000000   0.000142
     4  C   -0.000000  -0.000000  -0.000000  -0.000164
     5  N    0.000000   0.000000   0.000000  -0.000001
     6  C   -0.000000  -0.000000  -0.000000   0.000474
     7  C    0.000000  -0.000000  -0.000000   0.002507
     8  C    0.000000   0.000000   0.000006   0.009321
     9  O   -0.000000  -0.000000  -0.000049  -0.007532
    10  C   -0.000009   0.000002   0.003332  -0.043082
    11  C   -0.000181  -0.000068   0.000605   0.005143
    12  C    0.005461  -0.009478   0.005254   0.000572
    13  C   -0.025505  -0.025422  -0.041900   0.003883
    14  N    0.344034   0.343827  -0.007266  -0.000108
    15  C   -0.009549   0.005505   0.364748  -0.035808
    16  C   -0.000035  -0.000189  -0.032454   0.363665
    17  H   -0.000000  -0.000000   0.000000  -0.000007
    18  H   -0.000000  -0.000000  -0.000000   0.000003
    19  H   -0.000000  -0.000000  -0.000000  -0.000000
    20  H   -0.000000  -0.000000  -0.000000  -0.000000
    21  H    0.000000  -0.000000  -0.000000   0.000001
    22  H   -0.000000  -0.000000   0.000000   0.000026
    23  H    0.000003  -0.000007   0.000014  -0.000153
    24  H   -0.000071   0.004493  -0.000190   0.000013
    25  H    0.435194  -0.028454   0.004536  -0.000006
    26  H   -0.028454   0.435416  -0.000062   0.000003
    27  H    0.004536  -0.000062   0.612489  -0.006197
    28  H   -0.000006   0.000003  -0.006197   0.603115
 Mulliken charges:
               1
     1  O   -0.584581
     2  C    0.322218
     3  C   -0.192901
     4  C    0.259882
     5  N   -0.673594
     6  C   -0.153533
     7  C   -0.132043
     8  C    0.260491
     9  O   -0.592834
    10  C    0.315004
    11  C   -0.141048
    12  C   -0.138617
    13  C    0.252209
    14  N   -0.675219
    15  C   -0.144237
    16  C   -0.133459
    17  H    0.345974
    18  H    0.105398
    19  H    0.278018
    20  H    0.278553
    21  H    0.093339
    22  H    0.106746
    23  H    0.097973
    24  H    0.096374
    25  H    0.274579
    26  H    0.274434
    27  H    0.097135
    28  H    0.103741
 Sum of Mulliken charges =  -0.00000
 Mulliken charges with hydrogens summed into heavy atoms:
               1
     1  O   -0.238607
     2  C    0.322218
     3  C   -0.087503
     4  C    0.259882
     5  N   -0.117023
     6  C   -0.060194
     7  C   -0.025297
     8  C    0.260491
     9  O   -0.592834
    10  C    0.315004
    11  C   -0.043075
    12  C   -0.042243
    13  C    0.252209
    14  N   -0.126205
    15  C   -0.047103
    16  C   -0.029718
 APT charges:
               1
     1  O   -0.965597
     2  C   -0.184761
     3  C   -0.415330
     4  C    0.206888
     5  N   -1.572954
     6  C   -0.430655
     7  C   -0.525442
     8  C   -0.285154
     9  O   -0.362420
    10  C   -0.323134
    11  C   -0.541853
    12  C   -0.373445
    13  C    0.258026
    14  N   -1.538605
    15  C   -0.440861
    16  C   -0.595115
    17  H    0.859660
    18  H    0.588538
    19  H    0.831163
    20  H    0.970935
    21  H    0.691619
    22  H    0.437241
    23  H    0.484597
    24  H    0.783823
    25  H    0.710471
    26  H    1.027037
    27  H    0.497434
    28  H    0.207894
 Sum of APT charges =  -0.00000
 APT charges with hydrogens summed into heavy atoms:
               1
     1  O   -0.105937
     2  C   -0.184761
     3  C    0.173208
     4  C    0.206888
     5  N    0.229144
     6  C    0.260965
     7  C   -0.088201
     8  C   -0.285154
     9  O   -0.362420
    10  C   -0.323134
    11  C   -0.057256
    12  C    0.410377
    13  C    0.258026
    14  N    0.198902
    15  C    0.056573
    16  C   -0.387222
 Electronic spatial extent (au):  <R**2>=           4477.0173
 Charge=             -0.0000 electrons
 Dipole moment (field-independent basis, Debye):
    X=              2.1192    Y=             -1.7157    Z=             -1.5967  Tot=              3.1598
 Quadrupole moment (field-independent basis, Debye-Ang):
   XX=            -50.2648   YY=            -89.8712   ZZ=            -86.8788
   XY=              5.0479   XZ=             -7.4542   YZ=             -4.6865
 Traceless Quadrupole moment (field-independent basis, Debye-Ang):
   XX=             25.4068   YY=            -14.1996   ZZ=            -11.2072
   XY=              5.0479   XZ=             -7.4542   YZ=             -4.6865
 Octapole moment (field-independent basis, Debye-Ang**2):
  XXX=             22.8529  YYY=             -2.8337  ZZZ=            -24.0481  XYY=            -29.0238
  XXY=            -28.5564  XXZ=             -4.2976  XZZ=             41.9128  YZZ=              9.8144
  YYZ=             -5.7049  XYZ=            -25.3102
 Hexadecapole moment (field-independent basis, Debye-Ang**3):
 XXXX=          -3126.8176 YYYY=           -561.1004 ZZZZ=           -459.7290 XXXY=             54.9770
 XXXZ=           -134.3901 YYYX=             66.5499 YYYZ=              1.7635 ZZZX=            -65.0634
 ZZZY=            -52.9397 XXYY=           -809.6376 XXZZ=           -883.6232 YYZZ=           -171.3545
 XXYZ=            -39.4023 YYXZ=             22.8334 ZZXY=             11.3191
 N-N= 1.027895697536D+03 E-N=-3.743711419627D+03  KE= 7.178241785399D+02
  Exact polarizability:   0.000   0.000   0.000   0.000   0.000   0.000
 Approx polarizability: 297.422 -41.049 200.778   8.044   5.889 183.970
 D2PCM: PCM CHGder 2nd derivatives, FixD1E=F FixD2E=F DoIter=F DoCFld=F I1PDM=0
 Calling FoFJK, ICntrl=    100147 FMM=F ISym2X=0 I1Cent= 0 IOpClX= 0 NMat=1 NMatS=1 NMatT=0.
 ***** Axes restored to original set *****
 -------------------------------------------------------------------
 Center     Atomic                   Forces (Hartrees/Bohr)
 Number     Number              X              Y              Z
 -------------------------------------------------------------------
      1        8           0.005272596    0.000454116    0.002231700
      2        6          -0.007012621   -0.007696445   -0.012421109
      3        6          -0.001785249    0.000525878    0.006040878
      4        6           0.001843585    0.010706966   -0.012506788
      5        7          -0.001451362   -0.002624263    0.002679555
      6        6           0.001636972    0.002719003    0.013046100
      7        6          -0.008572247    0.000448381   -0.010400207
      8        6          -0.003171560    0.010432274    0.007888751
      9        8           0.003116963   -0.007045752    0.003792545
     10        6           0.008313718   -0.002849302    0.000599606
     11        6           0.008014168   -0.001841479   -0.002701496
     12        6          -0.007816557   -0.001924265    0.011722836
     13        6           0.003815952   -0.006986174   -0.013985240
     14        7           0.003208940    0.001403906    0.000573802
     15        6          -0.008740494    0.004487371    0.004950208
     16        6           0.001392811    0.002326559   -0.003331862
     17        1           0.000737642    0.001075884    0.002700687
     18        1           0.000050737   -0.002460638   -0.000419427
     19        1          -0.000834047    0.002901929    0.002074227
     20        1          -0.000097148   -0.003128884   -0.002550940
     21        1          -0.001804762   -0.001066290   -0.000488963
     22        1           0.001497236   -0.001749473   -0.001030620
     23        1          -0.001374536    0.000842379   -0.000653594
     24        1           0.001267060    0.000987694    0.000193863
     25        1           0.002495314   -0.002444979    0.002401943
     26        1           0.000103279    0.003655205   -0.002306612
     27        1           0.001106866    0.000571586    0.000689040
     28        1          -0.001213255   -0.001721186    0.001211115
 -------------------------------------------------------------------
 Cartesian Forces:  Max     0.013985240 RMS     0.005018098
 FormGI is forming the generalized inverse of G from B-inverse, IUseBI=4.

 GradGradGradGradGradGradGradGradGradGradGradGradGradGradGradGradGradGrad
 Berny optimization.
 Internal  Forces:  Max     0.015943397 RMS     0.003173687
 Search for a local minimum.
 Step number   1 out of a maximum of  145
 All quantities printed in internal units (Hartrees-Bohrs-Radians)
 Mixed Optimization -- RFO/linear search
 Second derivative matrix not updated -- analytic derivatives used.
 ITU=  0
     Eigenvalues ---    0.00202   0.00469   0.00494   0.00542   0.00773
     Eigenvalues ---    0.01551   0.01617   0.01625   0.01730   0.01780
     Eigenvalues ---    0.01793   0.01851   0.01874   0.02004   0.02106
     Eigenvalues ---    0.02169   0.02243   0.02301   0.02580   0.02758
     Eigenvalues ---    0.02782   0.02814   0.02856   0.02887   0.03046
     Eigenvalues ---    0.10762   0.10821   0.11258   0.11689   0.11765
     Eigenvalues ---    0.12294   0.12533   0.13493   0.13558   0.15366
     Eigenvalues ---    0.15437   0.16929   0.17616   0.17795   0.18073
     Eigenvalues ---    0.19018   0.19277   0.19763   0.20074   0.20400
     Eigenvalues ---    0.22258   0.22565   0.24403   0.26246   0.32732
     Eigenvalues ---    0.33545   0.34083   0.35673   0.35721   0.35930
     Eigenvalues ---    0.36035   0.36168   0.36231   0.36562   0.37493
     Eigenvalues ---    0.39256   0.41100   0.41579   0.43724   0.45372
     Eigenvalues ---    0.45422   0.45597   0.45938   0.46012   0.46315
     Eigenvalues ---    0.47079   0.47743   0.47812   0.48019   0.49318
     Eigenvalues ---    0.51454   0.52334   0.52967
 RFO step:  Lambda=-6.79924034D-03 EMin= 2.02163194D-03
 Linear search not attempted -- first point.
 Iteration  1 RMS(Cart)=  0.07549173 RMS(Int)=  0.00163985
 Iteration  2 RMS(Cart)=  0.00318573 RMS(Int)=  0.00035195
 Iteration  3 RMS(Cart)=  0.00000370 RMS(Int)=  0.00035194
 Iteration  4 RMS(Cart)=  0.00000000 RMS(Int)=  0.00035194
 Variable       Old X    -DE/DX   Delta X   Delta X   Delta X     New X
                                 (Linear)    (Quad)   (Total)
    R1        2.58300  -0.00007   0.00000  -0.00519  -0.00519   2.57781
    R2        1.83278  -0.00293   0.00000  -0.00407  -0.00407   1.82871
    R3        2.63836   0.00244   0.00000  -0.00160  -0.00160   2.63676
    R4        2.63765   0.00521   0.00000   0.01902   0.01897   2.65662
    R5        2.64527   0.00539   0.00000   0.01207   0.01212   2.65739
    R6        2.05051   0.00152   0.00000   0.00466   0.00466   2.05517
    R7        2.64674  -0.00033   0.00000  -0.00845  -0.00845   2.63829
    R8        2.64390   0.00545   0.00000   0.01181   0.01187   2.65576
    R9        1.91831  -0.00260   0.00000  -0.00548  -0.00548   1.91283
   R10        1.91929  -0.00320   0.00000  -0.00657  -0.00657   1.91272
   R11        2.63977  -0.00159   0.00000  -0.00543  -0.00543   2.63435
   R12        2.05378  -0.00028   0.00000  -0.00193  -0.00193   2.05184
   R13        2.63401   0.00182   0.00000  -0.00433  -0.00439   2.62962
   R14        2.05236  -0.00113   0.00000  -0.00096  -0.00096   2.05140
   R15        2.59493   0.01594   0.00000   0.02791   0.02791   2.62283
   R16        2.60567   0.00926   0.00000   0.01733   0.01733   2.62300
   R17        2.63664   0.00251   0.00000   0.00285   0.00278   2.63942
   R18        2.63770  -0.00028   0.00000  -0.00106  -0.00112   2.63658
   R19        2.64195  -0.00369   0.00000  -0.01075  -0.01076   2.63119
   R20        2.05313  -0.00076   0.00000  -0.00168  -0.00168   2.05145
   R21        2.63883   0.00834   0.00000   0.01799   0.01804   2.65687
   R22        2.05275   0.00031   0.00000   0.00113   0.00113   2.05388
   R23        2.64512   0.00492   0.00000   0.00707   0.00707   2.65220
   R24        2.64027   0.00674   0.00000   0.01263   0.01270   2.65297
   R25        1.91790  -0.00255   0.00000  -0.00384  -0.00384   1.91406
   R26        1.91802  -0.00257   0.00000  -0.00391  -0.00391   1.91411
   R27        2.64494  -0.00216   0.00000  -0.00707  -0.00706   2.63788
   R28        2.05324   0.00007   0.00000   0.00085   0.00085   2.05409
   R29        2.05107  -0.00063   0.00000  -0.00176  -0.00176   2.04931
    A1        1.90537  -0.00086   0.00000   0.00070   0.00070   1.90607
    A2        2.09965   0.01011   0.00000   0.04043   0.04047   2.14012
    A3        2.08745  -0.00930   0.00000  -0.03593  -0.03590   2.05156
    A4        2.09608  -0.00080   0.00000  -0.00450  -0.00458   2.09150
    A5        2.09989   0.00244   0.00000   0.01018   0.01024   2.11013
    A6        2.09912  -0.00289   0.00000  -0.01666  -0.01668   2.08244
    A7        2.08413   0.00046   0.00000   0.00646   0.00643   2.09057
    A8        2.09768   0.00064   0.00000   0.00282   0.00129   2.09897
    A9        2.07690  -0.00201   0.00000  -0.00194  -0.00328   2.07362
   A10        2.09485   0.00191   0.00000   0.01449   0.01305   2.10790
   A11        1.99176   0.00178   0.00000   0.01069   0.01069   2.00245
   A12        1.98691   0.00127   0.00000   0.00891   0.00891   1.99582
   A13        1.95737  -0.00283   0.00000  -0.02127  -0.02127   1.93611
   A14        2.10675  -0.00230   0.00000  -0.01213  -0.01208   2.09467
   A15        2.09967  -0.00063   0.00000  -0.00692  -0.00695   2.09271
   A16        2.07675   0.00293   0.00000   0.01909   0.01905   2.09580
   A17        2.08966   0.00643   0.00000   0.02497   0.02481   2.11448
   A18        2.09867  -0.00096   0.00000   0.00392   0.00384   2.10252
   A19        2.09464  -0.00546   0.00000  -0.02839  -0.02846   2.06618
   A20        2.09422  -0.00361   0.00000  -0.01216  -0.01243   2.08179
   A21        2.13073  -0.00577   0.00000  -0.02265  -0.02269   2.10804
   A22        2.05730   0.00934   0.00000   0.03347   0.03331   2.09061
   A23        2.05407   0.00670   0.00000   0.02303   0.02303   2.07710
   A24        2.01756   0.00472   0.00000   0.01305   0.01312   2.03067
   A25        2.18149  -0.00528   0.00000  -0.01694  -0.01687   2.16462
   A26        2.08378   0.00054   0.00000   0.00358   0.00338   2.08715
   A27        2.10012   0.00098   0.00000  -0.00003  -0.00024   2.09988
   A28        2.09089  -0.00206   0.00000  -0.01182  -0.01182   2.07907
   A29        2.09194   0.00109   0.00000   0.01228   0.01229   2.10423
   A30        2.10545   0.00072   0.00000   0.00529   0.00527   2.11072
   A31        2.07694   0.00082   0.00000   0.00806   0.00806   2.08501
   A32        2.10079  -0.00154   0.00000  -0.01334  -0.01334   2.08746
   A33        2.09948   0.00207   0.00000   0.01088   0.00956   2.10904
   A34        2.07028  -0.00408   0.00000  -0.00973  -0.01099   2.05929
   A35        2.09916   0.00254   0.00000   0.01369   0.01239   2.11156
   A36        1.98503   0.00202   0.00000   0.00188   0.00177   1.98680
   A37        1.98461   0.00206   0.00000   0.00234   0.00222   1.98684
   A38        1.96177  -0.00384   0.00000  -0.03874  -0.03892   1.92285
   A39        2.10973   0.00168   0.00000   0.00643   0.00646   2.11619
   A40        2.09841  -0.00173   0.00000  -0.01236  -0.01237   2.08604
   A41        2.07504   0.00004   0.00000   0.00592   0.00591   2.08095
   A42        2.09400   0.00031   0.00000  -0.00095  -0.00106   2.09294
   A43        2.11715  -0.00248   0.00000  -0.01880  -0.01877   2.09838
   A44        2.07199   0.00217   0.00000   0.01983   0.01987   2.09186
    D1        0.09268  -0.00034   0.00000  -0.03204  -0.03217   0.06051
    D2       -3.04779  -0.00046   0.00000  -0.03860  -0.03847  -3.08626
    D3        3.09276   0.00061   0.00000   0.02339   0.02361   3.11637
    D4       -0.03886   0.00079   0.00000   0.02479   0.02467  -0.01419
    D5       -0.04997   0.00073   0.00000   0.02996   0.03003  -0.01993
    D6        3.10160   0.00090   0.00000   0.03136   0.03110   3.13269
    D7       -3.12008  -0.00003   0.00000  -0.00298  -0.00318  -3.12326
    D8       -0.02604  -0.00087   0.00000  -0.03586  -0.03543  -0.06148
    D9        0.02264  -0.00016   0.00000  -0.00956  -0.00933   0.01331
   D10        3.11668  -0.00100   0.00000  -0.04244  -0.04159   3.07509
   D11        3.04138   0.00184   0.00000   0.04258   0.04182   3.08321
   D12        0.07720  -0.00177   0.00000  -0.05706  -0.05733   0.01988
   D13       -0.11010   0.00165   0.00000   0.04106   0.04062  -0.06947
   D14       -3.07427  -0.00196   0.00000  -0.05858  -0.05853  -3.13280
   D15        0.53268  -0.00107   0.00000  -0.04316  -0.04338   0.48930
   D16        2.81038  -0.00226   0.00000  -0.05528  -0.05551   2.75487
   D17       -2.78816   0.00217   0.00000   0.05583   0.05605  -2.73211
   D18       -0.51046   0.00098   0.00000   0.04370   0.04392  -0.46654
   D19       -0.07851   0.00230   0.00000   0.06551   0.06506  -0.01345
   D20        3.07005   0.00210   0.00000   0.05870   0.05865   3.12871
   D21       -3.04298  -0.00118   0.00000  -0.03276  -0.03338  -3.07636
   D22        0.10558  -0.00138   0.00000  -0.03957  -0.03979   0.06579
   D23        0.05209  -0.00138   0.00000  -0.04463  -0.04474   0.00735
   D24       -3.11143  -0.00050   0.00000  -0.01842  -0.01796  -3.12939
   D25       -3.09637  -0.00120   0.00000  -0.03801  -0.03843  -3.13480
   D26        0.02329  -0.00032   0.00000  -0.01180  -0.01165   0.01164
   D27       -0.02353   0.00036   0.00000   0.01623   0.01638  -0.00715
   D28       -3.11954   0.00156   0.00000   0.04919   0.04980  -3.06974
   D29        3.13994  -0.00058   0.00000  -0.01033  -0.01025   3.12969
   D30        0.04392   0.00062   0.00000   0.02263   0.02317   0.06710
   D31        1.29435  -0.00005   0.00000   0.01413   0.01426   1.30860
   D32       -1.89384  -0.00120   0.00000  -0.01923  -0.01936  -1.91320
   D33       -2.73460  -0.00155   0.00000  -0.09809  -0.09809  -2.83269
   D34        0.43627  -0.00087   0.00000  -0.08583  -0.08582   0.35045
   D35       -3.11845   0.00085   0.00000   0.01522   0.01528  -3.10317
   D36        0.04663   0.00016   0.00000  -0.00632  -0.00614   0.04050
   D37       -0.00439   0.00011   0.00000   0.00331   0.00321  -0.00117
   D38       -3.12249  -0.00058   0.00000  -0.01822  -0.01820  -3.14069
   D39        3.11509  -0.00054   0.00000  -0.01041  -0.01025   3.10484
   D40       -0.03696  -0.00031   0.00000  -0.00093  -0.00086  -0.03782
   D41        0.00381   0.00010   0.00000   0.00215   0.00226   0.00606
   D42        3.13494   0.00033   0.00000   0.01163   0.01164  -3.13660
   D43        0.04485  -0.00116   0.00000  -0.03787  -0.03798   0.00687
   D44       -3.09841  -0.00101   0.00000  -0.03319  -0.03325  -3.13166
   D45       -3.12024  -0.00051   0.00000  -0.01665  -0.01658  -3.13682
   D46        0.01969  -0.00037   0.00000  -0.01197  -0.01185   0.00783
   D47       -3.04449  -0.00133   0.00000  -0.02795  -0.02771  -3.07219
   D48       -0.08303   0.00222   0.00000   0.06627   0.06604  -0.01699
   D49        0.09879  -0.00148   0.00000  -0.03272  -0.03246   0.06634
   D50        3.06025   0.00207   0.00000   0.06150   0.06129   3.12154
   D51       -2.79883   0.00226   0.00000   0.06893   0.06926  -2.72957
   D52       -0.52338   0.00057   0.00000   0.01684   0.01729  -0.50608
   D53        0.52589  -0.00066   0.00000  -0.02443  -0.02489   0.50100
   D54        2.80134  -0.00235   0.00000  -0.07652  -0.07685   2.72450
   D55        0.08267  -0.00196   0.00000  -0.06086  -0.06065   0.02202
   D56       -3.06299  -0.00206   0.00000  -0.06165  -0.06141  -3.12439
   D57        3.04416   0.00153   0.00000   0.03305   0.03293   3.07709
   D58       -0.10149   0.00143   0.00000   0.03225   0.03218  -0.06932
   D59       -0.04378   0.00069   0.00000   0.02676   0.02693  -0.01686
   D60        3.10800   0.00049   0.00000   0.01775   0.01781   3.12580
   D61        3.10182   0.00079   0.00000   0.02758   0.02772   3.12954
   D62       -0.02959   0.00059   0.00000   0.01858   0.01860  -0.01099
         Item               Value     Threshold  Converged?
 Maximum Force            0.015943     0.000450     NO 
 RMS     Force            0.003174     0.000300     NO 
 Maximum Displacement     0.216921     0.001800     NO 
 RMS     Displacement     0.074149     0.001200     NO 
 Predicted change in Energy=-3.794910D-03
 GradGradGradGradGradGradGradGradGradGradGradGradGradGradGradGradGradGrad

                          Input orientation:                          
 ---------------------------------------------------------------------
 Center     Atomic      Atomic             Coordinates (Angstroms)
 Number     Number       Type             X           Y           Z
 ---------------------------------------------------------------------
      1          8           0       -1.082562   -1.930887   -0.895043
      2          6           0       -1.746004   -0.818938   -0.465819
      3          6           0       -2.920685   -0.365125   -1.066710
      4          6           0       -3.591645    0.768923   -0.575552
      5          7           0       -4.726897    1.252538   -1.228605
      6          6           0       -3.045258    1.456921    0.521346
      7          6           0       -1.867321    1.003005    1.112753
      8          6           0       -1.207780   -0.123669    0.631111
      9          8           0       -0.085029   -0.600864    1.293003
     10          6           0        1.158833   -0.465659    0.692042
     11          6           0        2.180206   -1.276763    1.191773
     12          6           0        3.471401   -1.176022    0.680545
     13          6           0        3.775775   -0.255720   -0.337843
     14          7           0        5.056921   -0.212670   -0.909310
     15          6           0        2.734537    0.542706   -0.837090
     16          6           0        1.440007    0.449018   -0.323312
     17          1           0       -1.525769   -2.282949   -1.679955
     18          1           0       -3.325104   -0.904639   -1.920019
     19          1           0       -5.257235    0.551819   -1.730939
     20          1           0       -5.333462    1.817661   -0.647918
     21          1           0       -3.542185    2.341762    0.907426
     22          1           0       -1.444970    1.522231    1.967418
     23          1           0        1.952874   -1.986425    1.981198
     24          1           0        4.253591   -1.820467    1.073162
     25          1           0        5.287493    0.679180   -1.330454
     26          1           0        5.795718   -0.503308   -0.280279
     27          1           0        2.938618    1.251191   -1.635791
     28          1           0        0.655934    1.087150   -0.715798
 ---------------------------------------------------------------------
                    Distance matrix (angstroms):
                    1          2          3          4          5
     1  O    0.000000
     2  C    1.364118   0.000000
     3  C    2.420698   1.395311   0.000000
     4  C    3.699533   2.437157   1.406231   0.000000
     5  N    4.850427   3.709256   2.430112   1.396123   0.000000
     6  C    4.163601   2.800373   2.420184   1.405370   2.435572
     7  C    3.640716   2.413728   2.780542   2.424553   3.704240
     8  C    2.368726   1.405823   2.423828   2.817013   4.211493
     9  O    2.748014   2.428961   3.696589   4.202876   5.598263
    10  C    3.112810   3.146987   4.443624   5.069322   6.425178
    11  C    3.927893   4.286297   5.652515   6.373581   7.743622
    12  C    4.877590   5.353782   6.676019   7.432847   8.760985
    13  C    5.169148   5.551903   6.736898   7.442128   8.681229
    14  N    6.375400   6.844270   7.980615   8.710488   9.898075
    15  C    4.548875   4.697570   5.732226   6.335625   7.505341
    16  C    3.514851   3.432009   4.497900   5.048117   6.284577
    17  H    0.967712   1.914669   2.449471   3.847268   4.790679
    18  H    2.670722   2.148395   1.087550   2.163202   2.663924
    19  H    4.928534   3.975959   2.596430   2.038687   1.012227
    20  H    5.672992   4.455858   3.280462   2.034458   1.012167
    21  H    5.249207   3.886141   3.407449   2.162289   2.674431
    22  H    4.499894   3.390035   3.865978   3.412093   4.588937
    23  H    4.182072   4.586133   5.972432   6.698552   8.087834
    24  H    5.688634   6.274286   7.626750   8.424424   9.766815
    25  H    6.897799   7.243068   8.278546   8.911622  10.031307
    26  H    7.051713   7.550604   8.752900   9.477782  10.710171
    27  H    5.181141   5.253565   6.104733   6.633326   7.676322
    28  H    3.487556   3.076518   3.876138   4.261791   5.409732
                    6          7          8          9         10
     6  C    0.000000
     7  C    1.394036   0.000000
     8  C    2.426239   1.391535   0.000000
     9  O    3.686854   2.404465   1.387944   0.000000
    10  C    4.625996   3.389924   2.391972   1.388030   0.000000
    11  C    5.935316   4.646081   3.622489   2.366089   1.396719
    12  C    7.030262   5.782467   4.796314   3.654327   2.419239
    13  C    7.085043   5.960969   5.078595   4.205305   2.820128
    14  N    8.395213   7.315171   6.451922   5.607185   4.221779
    15  C    6.007259   5.019049   4.259288   3.714162   2.416172
    16  C    4.674069   3.647959   2.872224   2.457735   1.395219
    17  H    4.597956   4.325895   3.178778   3.707239   4.016964
    18  H    3.408158   3.868067   3.406059   4.573169   5.207808
    19  H    3.284028   4.447659   4.736417   6.101198   6.933400
    20  H    2.594840   3.972123   4.735603   6.096105   7.011344
    21  H    1.085789   2.153972   3.406486   4.556275   5.479742
    22  H    2.157849   1.085555   2.133299   2.609944   3.515407
    23  H    6.242525   4.927959   3.909262   2.558601   2.145961
    24  H    8.019911   6.740855   5.735949   4.512138   3.399747
    25  H    8.571393   7.567396   6.832341   6.114330   4.737824
    26  H    9.091093   7.932950   7.072747   6.088344   4.737883
    27  H    6.364144   5.541943   4.921555   4.598955   3.396177
    28  H    3.919958   3.117289   2.598783   2.726481   2.155490
                   11         12         13         14         15
    11  C    0.000000
    12  C    1.392368   0.000000
    13  C    2.434768   1.405956   0.000000
    14  N    3.717839   2.443268   1.403482   0.000000
    15  C    2.781014   2.408363   1.403890   2.443210   0.000000
    16  C    2.412819   2.788377   2.439811   3.723343   1.395906
    17  H    4.795152   5.636396   5.832434   6.943468   5.181211
    18  H    6.334838   7.282106   7.303893   8.471050   6.323511
    19  H    8.197652   9.218990   9.175407  10.375034   8.041608
    20  H    8.331575   9.394284   9.347366  10.590119   8.170306
    21  H    6.776455   7.849629   7.864486   9.152610   6.758489
    22  H    4.645202   5.753896   5.977585   7.318472   5.127671
    23  H    1.085583   2.157400   3.419979   4.597428   3.866555
    24  H    2.146767   1.086866   2.160481   2.675919   3.397231
    25  H    4.454500   3.283912   2.035831   1.012878   2.603770
    26  H    3.979585   2.603493   2.035875   1.012903   3.282532
    27  H    3.867927   3.397151   2.157842   2.675420   1.086979
    28  H    3.398576   3.872800   3.417537   4.593002   2.152143
                   16         17         18         19         20
    16  C    0.000000
    17  H    4.254403   0.000000
    18  H    5.204627   2.279249   0.000000
    19  H    6.844343   4.686400   2.426964   0.000000
    20  H    6.917980   5.690223   3.614231   1.667663   0.000000
    21  H    5.469866   5.669958   4.310532   3.620257   2.429496
    22  H    3.836968   5.271551   4.953460   5.399343   4.695491
    23  H    3.391928   5.058945   6.651827   8.497548   8.629833
    24  H    3.875171   6.418298   8.199664  10.195418  10.397581
    25  H    3.983774   7.437533   8.776839  10.553099  10.703583
    26  H    4.458811   7.663576   9.275733  11.197566  11.374565
    27  H    2.147537   5.694106   6.630430   8.226188   8.350095
    28  H    1.084449   4.128800   4.611511   6.023508   6.034163
                   21         22         23         24         25
    21  H    0.000000
    22  H    2.488679   0.000000
    23  H    7.076854   4.884281   0.000000
    24  H    8.838877   6.666853   2.478986   0.000000
    25  H    9.259346   7.544054   5.402977   3.618640   0.000000
    26  H    9.833693   7.847454   4.699081   2.438210   1.661155
    27  H    7.046850   5.680882   4.953428   4.301472   2.436728
    28  H    4.672591   3.435512   4.289837   4.959612   4.689945
                   26         27         28
    26  H    0.000000
    27  H    3.616449   0.000000
    28  H    5.397835   2.466565   0.000000
 Stoichiometry    C12H12N2O2
 Framework group  C1[X(C12H12N2O2)]
 Deg. of freedom    78
 Full point group                 C1      NOp   1
 Largest Abelian subgroup         C1      NOp   1
 Largest concise Abelian subgroup C1      NOp   1
                         Standard orientation:                         
 ---------------------------------------------------------------------
 Center     Atomic      Atomic             Coordinates (Angstroms)
 Number     Number       Type             X           Y           Z
 ---------------------------------------------------------------------
      1          8           0        0.811480    1.142725   -1.763293
      2          6           0        1.606105    0.592291   -0.800789
[...]

    16    C    2  S      Cor( 1S)     1.99870
    17    C    2  S      Val( 2S)     0.83382
    18    C    2  S      Ryd( 3S)     0.00180
    19    C    2  S      Ryd( 4S)     0.00015
    20    C    2  px     Val( 2p)     0.98610
    21    C    2  px     Ryd( 3p)     0.00702
    22    C    2  py     Val( 2p)     0.94523
    23    C    2  py     Ryd( 3p)     0.00275
    24    C    2  pz     Val( 2p)     0.91521
    25    C    2  pz     Ryd( 3p)     0.00410
    26    C    2  dxy    Ryd( 3d)     0.00109
    27    C    2  dxz    Ryd( 3d)     0.00158
    28    C    2  dyz    Ryd( 3d)     0.00141
    29    C    2  dx2y2  Ryd( 3d)     0.00131
    30    C    2  dz2    Ryd( 3d)     0.00119

    31    C    3  S      Cor( 1S)     1.99897
    32    C    3  S      Val( 2S)     0.95174
    33    C    3  S      Ryd( 3S)     0.00072
    34    C    3  S      Ryd( 4S)     0.00006
    35    C    3  px     Val( 2p)     1.09867
    36    C    3  px     Ryd( 3p)     0.00358
    37    C    3  py     Val( 2p)     1.14935
    38    C    3  py     Ryd( 3p)     0.00308
    39    C    3  pz     Val( 2p)     1.18639
    40    C    3  pz     Ryd( 3p)     0.00375
    41    C    3  dxy    Ryd( 3d)     0.00042
    42    C    3  dxz    Ryd( 3d)     0.00049
    43    C    3  dyz    Ryd( 3d)     0.00041
    44    C    3  dx2y2  Ryd( 3d)     0.00046
    45    C    3  dz2    Ryd( 3d)     0.00055

    46    C    4  S      Cor( 1S)     1.99900
    47    C    4  S      Val( 2S)     0.84274
    48    C    4  S      Ryd( 3S)     0.00112
    49    C    4  S      Ryd( 4S)     0.00010
    50    C    4  px     Val( 2p)     0.92278
    51    C    4  px     Ryd( 3p)     0.00448
    52    C    4  py     Val( 2p)     0.95906
    53    C    4  py     Ryd( 3p)     0.00250
    54    C    4  pz     Val( 2p)     1.07611
    55    C    4  pz     Ryd( 3p)     0.00450
    56    C    4  dxy    Ryd( 3d)     0.00117
    57    C    4  dxz    Ryd( 3d)     0.00095
    58    C    4  dyz    Ryd( 3d)     0.00084
    59    C    4  dx2y2  Ryd( 3d)     0.00121
    60    C    4  dz2    Ryd( 3d)     0.00078

    61    N    5  S      Cor( 1S)     1.99951
    62    N    5  S      Val( 2S)     1.36363
    63    N    5  S      Ryd( 3S)     0.00013
    64    N    5  S      Ryd( 4S)     0.00001
    65    N    5  px     Val( 2p)     1.32868
    66    N    5  px     Ryd( 3p)     0.00229
    67    N    5  py     Val( 2p)     1.70215
    68    N    5  py     Ryd( 3p)     0.00374
    69    N    5  pz     Val( 2p)     1.44236
    70    N    5  pz     Ryd( 3p)     0.00216
    71    N    5  dxy    Ryd( 3d)     0.00074
    72    N    5  dxz    Ryd( 3d)     0.00069
    73    N    5  dyz    Ryd( 3d)     0.00075
    74    N    5  dx2y2  Ryd( 3d)     0.00086
    75    N    5  dz2    Ryd( 3d)     0.00035

    76    C    6  S      Cor( 1S)     1.99904
    77    C    6  S      Val( 2S)     0.94971
    78    C    6  S      Ryd( 3S)     0.00057
    79    C    6  S      Ryd( 4S)     0.00004
    80    C    6  px     Val( 2p)     1.10381
    81    C    6  px     Ryd( 3p)     0.00385
    82    C    6  py     Val( 2p)     1.13352
    83    C    6  py     Ryd( 3p)     0.00251
    84    C    6  pz     Val( 2p)     1.12505
    85    C    6  pz     Ryd( 3p)     0.00415
    86    C    6  dxy    Ryd( 3d)     0.00047
    87    C    6  dxz    Ryd( 3d)     0.00057
    88    C    6  dyz    Ryd( 3d)     0.00046
    89    C    6  dx2y2  Ryd( 3d)     0.00042
    90    C    6  dz2    Ryd( 3d)     0.00053

    91    C    7  S      Cor( 1S)     1.99903
    92    C    7  S      Val( 2S)     0.95813
    93    C    7  S      Ryd( 3S)     0.00080
    94    C    7  S      Ryd( 4S)     0.00006
    95    C    7  px     Val( 2p)     1.08550
    96    C    7  px     Ryd( 3p)     0.00486
    97    C    7  py     Val( 2p)     1.05098
    98    C    7  py     Ryd( 3p)     0.00343
    99    C    7  pz     Val( 2p)     1.17981
   100    C    7  pz     Ryd( 3p)     0.00428
   101    C    7  dxy    Ryd( 3d)     0.00046
   102    C    7  dxz    Ryd( 3d)     0.00068
   103    C    7  dyz    Ryd( 3d)     0.00042
   104    C    7  dx2y2  Ryd( 3d)     0.00060
   105    C    7  dz2    Ryd( 3d)     0.00050

   106    C    8  S      Cor( 1S)     1.99863
   107    C    8  S      Val( 2S)     0.83226
   108    C    8  S      Ryd( 3S)     0.00149
   109    C    8  S      Ryd( 4S)     0.00015
   110    C    8  px     Val( 2p)     0.82867
   111    C    8  px     Ryd( 3p)     0.00650
   112    C    8  py     Val( 2p)     1.05272
   113    C    8  py     Ryd( 3p)     0.00423
   114    C    8  pz     Val( 2p)     1.06864
   115    C    8  pz     Ryd( 3p)     0.00563
   116    C    8  dxy    Ryd( 3d)     0.00121
   117    C    8  dxz    Ryd( 3d)     0.00131
   118    C    8  dyz    Ryd( 3d)     0.00079
   119    C    8  dx2y2  Ryd( 3d)     0.00118
   120    C    8  dz2    Ryd( 3d)     0.00104

   121    O    9  S      Cor( 1S)     1.99972
   122    O    9  S      Val( 2S)     1.57796
   123    O    9  S      Ryd( 3S)     0.00057
   124    O    9  S      Ryd( 4S)     0.00013
   125    O    9  px     Val( 2p)     1.37829
   126    O    9  px     Ryd( 3p)     0.00055
   127    O    9  py     Val( 2p)     1.73033
   128    O    9  py     Ryd( 3p)     0.00246
   129    O    9  pz     Val( 2p)     1.76274
   130    O    9  pz     Ryd( 3p)     0.00272
   131    O    9  dxy    Ryd( 3d)     0.00111
   132    O    9  dxz    Ryd( 3d)     0.00055
   133    O    9  dyz    Ryd( 3d)     0.00138
   134    O    9  dx2y2  Ryd( 3d)     0.00121
   135    O    9  dz2    Ryd( 3d)     0.00109

   136    C   10  S      Cor( 1S)     1.99869
   137    C   10  S      Val( 2S)     0.84715
   138    C   10  S      Ryd( 3S)     0.00136
   139    C   10  S      Ryd( 4S)     0.00014
   140    C   10  px     Val( 2p)     0.82133
   141    C   10  px     Ryd( 3p)     0.00471
   142    C   10  py     Val( 2p)     1.00336
   143    C   10  py     Ryd( 3p)     0.00687
   144    C   10  pz     Val( 2p)     0.93800
   145    C   10  pz     Ryd( 3p)     0.00270
   146    C   10  dxy    Ryd( 3d)     0.00172
   147    C   10  dxz    Ryd( 3d)     0.00171
   148    C   10  dyz    Ryd( 3d)     0.00101
   149    C   10  dx2y2  Ryd( 3d)     0.00134
   150    C   10  dz2    Ryd( 3d)     0.00083

   151    C   11  S      Cor( 1S)     1.99905
   152    C   11  S      Val( 2S)     0.95405
   153    C   11  S      Ryd( 3S)     0.00082
   154    C   11  S      Ryd( 4S)     0.00004
   155    C   11  px     Val( 2p)     1.05244
   156    C   11  px     Ryd( 3p)     0.00557
   157    C   11  py     Val( 2p)     1.19162
   158    C   11  py     Ryd( 3p)     0.00455
   159    C   11  pz     Val( 2p)     1.14836
   160    C   11  pz     Ryd( 3p)     0.00635
   161    C   11  dxy    Ryd( 3d)     0.00066
   162    C   11  dxz    Ryd( 3d)     0.00054
   163    C   11  dyz    Ryd( 3d)     0.00043
   164    C   11  dx2y2  Ryd( 3d)     0.00053
   165    C   11  dz2    Ryd( 3d)     0.00040

   166    C   12  S      Cor( 1S)     1.99906
   167    C   12  S      Val( 2S)     0.95073
   168    C   12  S      Ryd( 3S)     0.00061
   169    C   12  S      Ryd( 4S)     0.00004
   170    C   12  px     Val( 2p)     1.16145
   171    C   12  px     Ryd( 3p)     0.00433
   172    C   12  py     Val( 2p)     1.09132
   173    C   12  py     Ryd( 3p)     0.00477
   174    C   12  pz     Val( 2p)     1.11146
   175    C   12  pz     Ryd( 3p)     0.00561
   176    C   12  dxy    Ryd( 3d)     0.00059
   177    C   12  dxz    Ryd( 3d)     0.00050
   178    C   12  dyz    Ryd( 3d)     0.00043
   179    C   12  dx2y2  Ryd( 3d)     0.00063
   180    C   12  dz2    Ryd( 3d)     0.00044

   181    C   13  S      Cor( 1S)     1.99895
   182    C   13  S      Val( 2S)     0.85509
   183    C   13  S      Ryd( 3S)     0.00117
   184    C   13  S      Ryd( 4S)     0.00009
   185    C   13  px     Val( 2p)     0.93908
   186    C   13  px     Ryd( 3p)     0.00508
   187    C   13  py     Val( 2p)     1.05200
   188    C   13  py     Ryd( 3p)     0.00408
   189    C   13  pz     Val( 2p)     0.94912
   190    C   13  pz     Ryd( 3p)     0.00216
   191    C   13  dxy    Ryd( 3d)     0.00104
   192    C   13  dxz    Ryd( 3d)     0.00134
   193    C   13  dyz    Ryd( 3d)     0.00093
   194    C   13  dx2y2  Ryd( 3d)     0.00107
   195    C   13  dz2    Ryd( 3d)     0.00069

   196    N   14  S      Cor( 1S)     1.99948
   197    N   14  S      Val( 2S)     1.38102
   198    N   14  S      Ryd( 3S)     0.00010
   199    N   14  S      Ryd( 4S)     0.00001
   200    N   14  px     Val( 2p)     1.33758
   201    N   14  px     Ryd( 3p)     0.00195
   202    N   14  py     Val( 2p)     1.41594
   203    N   14  py     Ryd( 3p)     0.00198
   204    N   14  pz     Val( 2p)     1.57631
   205    N   14  pz     Ryd( 3p)     0.00287
   206    N   14  dxy    Ryd( 3d)     0.00024
   207    N   14  dxz    Ryd( 3d)     0.00109
   208    N   14  dyz    Ryd( 3d)     0.00049
   209    N   14  dx2y2  Ryd( 3d)     0.00068
   210    N   14  dz2    Ryd( 3d)     0.00087

   211    C   15  S      Cor( 1S)     1.99906
   212    C   15  S      Val( 2S)     0.94887
   213    C   15  S      Ryd( 3S)     0.00070
   214    C   15  S      Ryd( 4S)     0.00004
   215    C   15  px     Val( 2p)     1.04900
   216    C   15  px     Ryd( 3p)     0.00496
   217    C   15  py     Val( 2p)     1.18468
   218    C   15  py     Ryd( 3p)     0.00461
   219    C   15  pz     Val( 2p)     1.14046
   220    C   15  pz     Ryd( 3p)     0.00607
   221    C   15  dxy    Ryd( 3d)     0.00062
   222    C   15  dxz    Ryd( 3d)     0.00053
   223    C   15  dyz    Ryd( 3d)     0.00041
   224    C   15  dx2y2  Ryd( 3d)     0.00058
   225    C   15  dz2    Ryd( 3d)     0.00039

   226    C   16  S      Cor( 1S)     1.99903
   227    C   16  S      Val( 2S)     0.95705
   228    C   16  S      Ryd( 3S)     0.00075
   229    C   16  S      Ryd( 4S)     0.00005
   230    C   16  px     Val( 2p)     1.16910
   231    C   16  px     Ryd( 3p)     0.00353
   232    C   16  py     Val( 2p)     1.11010
   233    C   16  py     Ryd( 3p)     0.00486
   234    C   16  pz     Val( 2p)     1.10966
   235    C   16  pz     Ryd( 3p)     0.00557
   236    C   16  dxy    Ryd( 3d)     0.00053
   237    C   16  dxz    Ryd( 3d)     0.00052
   238    C   16  dyz    Ryd( 3d)     0.00047
   239    C   16  dx2y2  Ryd( 3d)     0.00067
   240    C   16  dz2    Ryd( 3d)     0.00045

   241    H   17  S      Val( 1S)     0.48338
   242    H   17  S      Ryd( 2S)     0.00109
   243    H   17  px     Ryd( 2p)     0.00082
   244    H   17  py     Ryd( 2p)     0.00082
   245    H   17  pz     Ryd( 2p)     0.00099

   246    H   18  S      Val( 1S)     0.75452
   247    H   18  S      Ryd( 2S)     0.00103
   248    H   18  px     Ryd( 2p)     0.00012
   249    H   18  py     Ryd( 2p)     0.00014
   250    H   18  pz     Ryd( 2p)     0.00035

   251    H   19  S      Val( 1S)     0.58229
   252    H   19  S      Ryd( 2S)     0.00126
   253    H   19  px     Ryd( 2p)     0.00032
   254    H   19  py     Ryd( 2p)     0.00050
   255    H   19  pz     Ryd( 2p)     0.00045

   256    H   20  S      Val( 1S)     0.58154
   257    H   20  S      Ryd( 2S)     0.00109
   258    H   20  px     Ryd( 2p)     0.00037
   259    H   20  py     Ryd( 2p)     0.00044
   260    H   20  pz     Ryd( 2p)     0.00045

   261    H   21  S      Val( 1S)     0.75461
   262    H   21  S      Ryd( 2S)     0.00085
   263    H   21  px     Ryd( 2p)     0.00016
   264    H   21  py     Ryd( 2p)     0.00020
   265    H   21  pz     Ryd( 2p)     0.00025

   266    H   22  S      Val( 1S)     0.74573
   267    H   22  S      Ryd( 2S)     0.00106
   268    H   22  px     Ryd( 2p)     0.00014
   269    H   22  py     Ryd( 2p)     0.00012
   270    H   22  pz     Ryd( 2p)     0.00036

   271    H   23  S      Val( 1S)     0.75297
   272    H   23  S      Ryd( 2S)     0.00129
   273    H   23  px     Ryd( 2p)     0.00006
   274    H   23  py     Ryd( 2p)     0.00036
   275    H   23  pz     Ryd( 2p)     0.00021

   276    H   24  S      Val( 1S)     0.75873
   277    H   24  S      Ryd( 2S)     0.00106
   278    H   24  px     Ryd( 2p)     0.00029
   279    H   24  py     Ryd( 2p)     0.00018
   280    H   24  pz     Ryd( 2p)     0.00018

   281    H   25  S      Val( 1S)     0.56985
   282    H   25  S      Ryd( 2S)     0.00177
   283    H   25  px     Ryd( 2p)     0.00021
   284    H   25  py     Ryd( 2p)     0.00063
   285    H   25  pz     Ryd( 2p)     0.00040

   286    H   26  S      Val( 1S)     0.56924
   287    H   26  S      Ryd( 2S)     0.00155
   288    H   26  px     Ryd( 2p)     0.00046
   289    H   26  py     Ryd( 2p)     0.00027
   290    H   26  pz     Ryd( 2p)     0.00051

   291    H   27  S      Val( 1S)     0.75859
   292    H   27  S      Ryd( 2S)     0.00108
   293    H   27  px     Ryd( 2p)     0.00006
   294    H   27  py     Ryd( 2p)     0.00037
   295    H   27  pz     Ryd( 2p)     0.00022

   296    H   28  S      Val( 1S)     0.74621
   297    H   28  S      Ryd( 2S)     0.00094
   298    H   28  px     Ryd( 2p)     0.00031
   299    H   28  py     Ryd( 2p)     0.00017
   300    H   28  pz     Ryd( 2p)     0.00018

 WARNING:  1 low occupancy (<1.9990e) core orbital  found on  C    2
           1 low occupancy (<1.9990e) core orbital  found on  C    3
           1 low occupancy (<1.9990e) core orbital  found on  C    8
           1 low occupancy (<1.9990e) core orbital  found on  C   10
           1 low occupancy (<1.9990e) core orbital  found on  C   13


 Summary of Natural Population Analysis:                  
                                                          
                                       Natural Population 
                Natural  -----------------------------------------------
    Atom  No    Charge         Core      Valence    Rydberg      Total
 -----------------------------------------------------------------------
      O    1   -0.70704      1.99978     6.69648    0.01077     8.70704
      C    2    0.29854      1.99870     3.68035    0.02240     5.70146
      C    3   -0.39864      1.99897     4.38615    0.01353     6.39864
      C    4    0.18266      1.99900     3.80069    0.01765     5.81734
      N    5   -0.84804      1.99951     5.83681    0.01172     7.84804
      C    6   -0.32471      1.99904     4.31209    0.01358     6.32471
      C    7   -0.28954      1.99903     4.27442    0.01610     6.28954
      C    8    0.19554      1.99863     3.78229    0.02354     5.80446
      O    9   -0.46080      1.99972     6.44932    0.01176     8.46080
      C   10    0.36907      1.99869     3.60984    0.02239     5.63093
      C   11   -0.36541      1.99905     4.34646    0.01990     6.36541
      C   12   -0.33198      1.99906     4.31496    0.01795     6.33198
      C   13    0.18810      1.99895     3.79529    0.01766     5.81190
      N   14   -0.72062      1.99948     5.71085    0.01029     7.72062
      C   15   -0.34098      1.99906     4.32301    0.01890     6.34098
      C   16   -0.36235      1.99903     4.34591    0.01740     6.36235
      H   17    0.51290      0.00000     0.48338    0.00372     0.48710
      H   18    0.24385      0.00000     0.75452    0.00164     0.75615
      H   19    0.41520      0.00000     0.58229    0.00252     0.58480
      H   20    0.41611      0.00000     0.58154    0.00235     0.58389
      H   21    0.24393      0.00000     0.75461    0.00145     0.75607
      H   22    0.25259      0.00000     0.74573    0.00168     0.74741
      H   23    0.24510      0.00000     0.75297    0.00193     0.75490
      H   24    0.23956      0.00000     0.75873    0.00171     0.76044
      H   25    0.42713      0.00000     0.56985    0.00302     0.57287
      H   26    0.42796      0.00000     0.56924    0.00279     0.57204
      H   27    0.23968      0.00000     0.75859    0.00172     0.76032
      H   28    0.25218      0.00000     0.74621    0.00160     0.74782
 =======================================================================
   * Total *    0.00000     31.98572    81.72260    0.29168   114.00000

                                 Natural Population      
 --------------------------------------------------------
   Core                      31.98572 ( 99.9554% of  32)
   Valence                   81.72260 ( 99.6617% of  82)
   Natural Minimal Basis    113.70832 ( 99.7441% of 114)
   Natural Rydberg Basis      0.29168 (  0.2559% of 114)
 --------------------------------------------------------

    Atom  No          Natural Electron Configuration
 ----------------------------------------------------------------------------
      O    1      [core]2S( 1.66)2p( 5.04)3d( 0.01)
      C    2      [core]2S( 0.83)2p( 2.85)3p( 0.01)3d( 0.01)
      C    3      [core]2S( 0.95)2p( 3.43)3p( 0.01)
      C    4      [core]2S( 0.84)2p( 2.96)3p( 0.01)
      N    5      [core]2S( 1.36)2p( 4.47)3p( 0.01)
      C    6      [core]2S( 0.95)2p( 3.36)3p( 0.01)
      C    7      [core]2S( 0.96)2p( 3.32)3p( 0.01)
      C    8      [core]2S( 0.83)2p( 2.95)3p( 0.02)3d( 0.01)
      O    9      [core]2S( 1.58)2p( 4.87)3p( 0.01)3d( 0.01)
      C   10      [core]2S( 0.85)2p( 2.76)3p( 0.01)3d( 0.01)
      C   11      [core]2S( 0.95)2p( 3.39)3p( 0.02)
      C   12      [core]2S( 0.95)2p( 3.36)3p( 0.01)
      C   13      [core]2S( 0.86)2p( 2.94)3p( 0.01)3d( 0.01)
      N   14      [core]2S( 1.38)2p( 4.33)3p( 0.01)
      C   15      [core]2S( 0.95)2p( 3.37)3p( 0.02)
      C   16      [core]2S( 0.96)2p( 3.39)3p( 0.01)
      H   17            1S( 0.48)
      H   18            1S( 0.75)
      H   19            1S( 0.58)
      H   20            1S( 0.58)
      H   21            1S( 0.75)
      H   22            1S( 0.75)
      H   23            1S( 0.75)
      H   24            1S( 0.76)
      H   25            1S( 0.57)
      H   26            1S( 0.57)
      H   27            1S( 0.76)
      H   28            1S( 0.75)


 NBO analysis skipped by request.
 1\1\GINC-DRG2-W001\SP\RB3LYP TD-FC\6-31G(d,p)\C12H12N2O2\QDUEZ\18-Jul-
 2024\0\\# TD(NStates=10, Root=1) B3LYP/6-31G** SCRF=(Solvent=water) vo
 lume pop=NPA density=current Geom=AllCheck Guess=Read\\JTUXBPXZECVPKS-
 UHFFFAOYSA-N_conf_3\\0,1\O,0,-1.1754688319,-1.9779319196,-0.9730829482
 \C,0,-1.7948525966,-0.8523007148,-0.5145371631\C,0,-2.9666495826,-0.35
 05573352,-1.0825170919\C,0,-3.5812844307,0.8054113036,-0.5681192302\N,
 0,-4.7177365381,1.3314897074,-1.1841895183\C,0,-2.9946654424,1.4521022
 212,0.5340610942\C,0,-1.8200832154,0.9501980732,1.0917621798\C,0,-1.21
 08834381,-0.1919294801,0.5810254352\O,0,-0.0967084625,-0.7304612435,1.
 21229233\C,0,1.1579080773,-0.5365421794,0.6510664768\C,0,2.2088185153,
 -1.2529022948,1.230133034\C,0,3.5081599706,-1.1034360203,0.7534872175\
 C,0,3.790788095,-0.2354126809,-0.3165290961\N,0,5.0890285271,-0.139873
 3078,-0.8437009888\C,0,2.7234946917,0.4775612723,-0.8848084205\C,0,1.4
 190905357,0.3329448418,-0.4083951565\H,0,-1.6692756482,-2.3276158147,-
 1.7281713137\H,0,-3.4105728732,-0.8660831469,-1.9312128176\H,0,-5.2809
 450324,0.6561685124,-1.6853146573\H,0,-5.2926107619,1.9075555849,-0.58
 25643753\H,0,-3.4572189637,2.3429405636,0.9479613587\H,0,-1.3639932463
 ,1.4395452129,1.9468498829\H,0,1.99755722,-1.9233561194,2.0574124815\H
 ,0,4.3149364256,-1.6682634813,1.2133150326\H,0,5.2777526007,0.74238817
 26,-1.3044293758\H,0,5.8180747095,-0.3401412085,-0.1694487209\H,0,2.91
 38631898,1.1571280372,-1.7115875438\H,0,0.6134765055,0.9013734443,-0.8
 594159623\\Version=ES64L-G16RevA.03\State=1-A\HF=-724.4754236\RMSD=7.1
 48e-09\Dipole=0.3183313,0.5714418,-0.992866\Quadrupole=27.8260623,-14.
 0815272,-13.7445351,3.8804687,3.0557997,3.1293757\PG=C01 [X(C12H12N2O2
 )]\\@


 WOE UNTO THEM THAT CALL EVIL GOOD, AND GOOD EVIL      
 Job cpu time:       0 days  0 hours 36 minutes 14.4 seconds.
 Elapsed time:       0 days  0 hours 12 minutes 31.4 seconds.
 File lengths (MBytes):  RWF=    779 Int=      0 D2E=      0 Chk=     48 Scr=      1
 Normal termination of Gaussian 16 at Thu Jul 18 05:26:13 2024.
