 Entering Gaussian System, Link 0=g16
 Initial command:
 /opt/sw/arch/manual/gaussian/G16_A03/g16/l1.exe "/scratch/1380888/Gau-102417.inp" -scrdir="/scratch/1380888/"
 Entering Link 1 = /opt/sw/arch/manual/gaussian/G16_A03/g16/l1.exe PID=    102418.
  
 Copyright (c) 1988,1990,1992,1993,1995,1998,2003,2009,2016,
            Gaussian, Inc.  All Rights Reserved.
  
 This is part of the Gaussian(R) 16 program.  It is based on
 the Gaussian(R) 09 system (copyright 2009, Gaussian, Inc.),
 the Gaussian(R) 03 system (copyright 2003, Gaussian, Inc.),
 the Gaussian(R) 98 system (copyright 1998, Gaussian, Inc.),
 the Gaussian(R) 94 system (copyright 1995, Gaussian, Inc.),
 the Gaussian 92(TM) system (copyright 1992, Gaussian, Inc.),
 the Gaussian 90(TM) system (copyright 1990, Gaussian, Inc.),
 the Gaussian 88(TM) system (copyright 1988, Gaussian, Inc.),
 the Gaussian 86(TM) system (copyright 1986, Carnegie Mellon
 University), and the Gaussian 82(TM) system (copyright 1983,
 Carnegie Mellon University). Gaussian is a federally registered
 trademark of Gaussian, Inc.
  
 This software contains proprietary and confidential information,
 including trade secrets, belonging to Gaussian, Inc.
  
 This software is provided under written license and may be
 used, copied, transmitted, or stored only in accord with that
 written license.
  
 The following legend is applicable only to US Government
 contracts under FAR:
  
                    RESTRICTED RIGHTS LEGEND
  
 Use, reproduction and disclosure by the US Government is
 subject to restrictions as set forth in subparagraphs (a)
 and (c) of the Commercial Computer Software - Restricted
 Rights clause in FAR 52.227-19.
  
 Gaussian, Inc.
 340 Quinnipiac St., Bldg. 40, Wallingford CT 06492
  
  
 ---------------------------------------------------------------
 Warning -- This program may not be used in any manner that
 competes with the business of Gaussian, Inc. or will provide
 assistance to any competitor of Gaussian, Inc.  The licensee
 of this program is prohibited from giving any competitor of
 Gaussian, Inc. access to this program.  By using this program,
 the user acknowledges that Gaussian, Inc. is engaged in the
 business of creating and licensing software in the field of
 computational chemistry and represents and warrants to the
 licensee that it is not a competitor of Gaussian, Inc. and that
 it will not use this program in any manner prohibited above.
 ---------------------------------------------------------------
  

 Cite this work as:
 Gaussian 16, Revision A.03,
 M. J. Frisch, G. W. Trucks, H. B. Schlegel, G. E. Scuseria, 
 M. A. Robb, J. R. Cheeseman, G. Scalmani, V. Barone, 
 G. A. Petersson, H. Nakatsuji, X. Li, M. Caricato, A. V. Marenich, 
 J. Bloino, B. G. Janesko, R. Gomperts, B. Mennucci, H. P. Hratchian, 
 J. V. Ortiz, A. F. Izmaylov, J. L. Sonnenberg, D. Williams-Young, 
 F. Ding, F. Lipparini, F. Egidi, J. Goings, B. Peng, A. Petrone, 
 T. Henderson, D. Ranasinghe, V. G. Zakrzewski, J. Gao, N. Rega, 
 G. Zheng, W. Liang, M. Hada, M. Ehara, K. Toyota, R. Fukuda, 
 J. Hasegawa, M. Ishida, T. Nakajima, Y. Honda, O. Kitao, H. Nakai, 
 T. Vreven, K. Throssell, J. A. Montgomery, Jr., J. E. Peralta, 
 F. Ogliaro, M. J. Bearpark, J. J. Heyd, E. N. Brothers, K. N. Kudin, 
 V. N. Staroverov, T. A. Keith, R. Kobayashi, J. Normand, 
 K. Raghavachari, A. P. Rendell, J. C. Burant, S. S. Iyengar, 
 J. Tomasi, M. Cossi, J. M. Millam, M. Klene, C. Adamo, R. Cammi, 
 J. W. Ochterski, R. L. Martin, K. Morokuma, O. Farkas, 
 J. B. Foresman, and D. J. Fox, Gaussian, Inc., Wallingford CT, 2016.
 
 ******************************************
 Gaussian 16:  ES64L-G16RevA.03 25-Dec-2016
                18-Jul-2024 
 ******************************************
 %nprocshared=4
 Will use up to    4 processors via shared memory.
 %mem=8GB
 %Chk=JTUXBPXZECVPKS-UHFFFAOYSA-N_conf_2_0.chk
 -------------------------------------------------------
 # opt=CalcFc B3LYP/6-31G** SCRF=(Solvent=water) scf=xqc
 -------------------------------------------------------
 1/10=4,18=20,19=15,26=3,38=1/1,3;
 2/9=110,12=2,17=6,18=5,40=1/2;
 3/5=1,6=6,7=101,11=2,25=1,30=1,70=2201,71=2,72=1,74=-5,140=1/1,2,3;
 4//1;
 5/5=2,8=3,13=1,38=5,53=1/2,8;
 8/6=4,10=90,11=11/1;
 11/6=1,8=1,9=11,15=111,16=1/1,2,10;
 10/6=1,13=1/2;
 6/7=2,8=2,9=2,10=2,28=1/1;
 7/10=1,18=20,25=1/1,2,3,16;
 1/10=4,18=20,19=15,26=3/3(2);
 2/9=110/2;
 99//99;
 2/9=110/2;
 3/5=1,6=6,7=101,11=2,25=1,30=1,70=2205,71=1,72=1,74=-5/1,2,3;
 4/5=5,16=3,69=1/1;
 5/5=2,8=3,13=1,38=5,53=1/2,8;
 7//1,2,3,16;
 1/18=20,19=15,26=3/3(-5);
 2/9=110/2;
 6/7=2,8=2,9=2,10=2,19=2,28=1/1;
 99/9=1/99;
 ----------------------------------
 JTUXBPXZECVPKS-UHFFFAOYSA-N_conf_2
 ----------------------------------
 Symbolic Z-matrix:
 Charge =  0 Multiplicity = 1
 O                    -2.17317   2.29034   1.15503 
 C                    -2.23472   0.98819   0.74193 
 C                    -3.22957   0.17502   1.27631 
 C                    -3.3525   -1.15209   0.85442 
 N                    -4.27162  -2.0074    1.47474 
 C                    -2.40477  -1.66902  -0.03752 
 C                    -1.4039   -0.85285  -0.57454 
 C                    -1.31434   0.47934  -0.17335 
 O                    -0.37402   1.34261  -0.68744 
 C                     0.94185   0.9437   -0.62643 
 C                     1.5153    0.3869    0.5172 
 C                     2.87102   0.04541   0.5172 
 C                     3.65536   0.22915  -0.62512 
 N                     5.03418  -0.0036   -0.57732 
 C                     3.08668   0.8608   -1.73465 
 C                     1.73225   1.20533  -1.7434 
 H                    -1.42259   2.69401   0.68067 
 H                    -3.90805   0.58583   2.01765 
 H                    -5.08486  -1.52888   1.85068 
 H                    -4.524    -2.81672   0.91663 
 H                    -2.44202  -2.7162   -0.32657 
 H                    -0.69991  -1.26533  -1.29121 
 H                     0.92776   0.23229   1.41805 
 H                     3.31102  -0.36246   1.42345 
 H                     5.45959  -0.14718  -1.48771 
 H                     5.30795  -0.71567   0.09255 
 H                     3.69616   1.09386  -2.60362 
 H                     1.30091   1.68462  -2.61764 
 

 GradGradGradGradGradGradGradGradGradGradGradGradGradGradGradGradGradGrad
 Berny optimization.
 Initialization pass.
                           ----------------------------
                           !    Initial Parameters    !
                           ! (Angstroms and Degrees)  !
 --------------------------                            --------------------------
 ! Name  Definition              Value          Derivative Info.                !
 --------------------------------------------------------------------------------
 ! R1    R(1,2)                  1.3675         calculate D2E/DX2 analytically  !
 ! R2    R(1,17)                 0.9754         calculate D2E/DX2 analytically  !
 ! R3    R(2,3)                  1.3916         calculate D2E/DX2 analytically  !
 ! R4    R(2,8)                  1.3942         calculate D2E/DX2 analytically  !
 ! R5    R(3,4)                  1.398          calculate D2E/DX2 analytically  !
 ! R6    R(3,18)                 1.0857         calculate D2E/DX2 analytically  !
 ! R7    R(4,5)                  1.4004         calculate D2E/DX2 analytically  !
 ! R8    R(4,6)                  1.4003         calculate D2E/DX2 analytically  !
 ! R9    R(5,19)                 1.0157         calculate D2E/DX2 analytically  !
 ! R10   R(5,20)                 1.015          calculate D2E/DX2 analytically  !
 ! R11   R(6,7)                  1.3987         calculate D2E/DX2 analytically  !
 ! R12   R(6,21)                 1.087          calculate D2E/DX2 analytically  !
 ! R13   R(7,8)                  1.3942         calculate D2E/DX2 analytically  !
 ! R14   R(7,22)                 1.086          calculate D2E/DX2 analytically  !
 ! R15   R(8,9)                  1.3761         calculate D2E/DX2 analytically  !
 ! R16   R(9,10)                 1.3764         calculate D2E/DX2 analytically  !
 ! R17   R(10,11)                1.3953         calculate D2E/DX2 analytically  !
 ! R18   R(10,16)                1.3931         calculate D2E/DX2 analytically  !
 ! R19   R(11,12)                1.3981         calculate D2E/DX2 analytically  !
 ! R20   R(11,23)                1.0866         calculate D2E/DX2 analytically  !
 ! R21   R(12,13)                1.3978         calculate D2E/DX2 analytically  !
 ! R22   R(12,24)                1.0869         calculate D2E/DX2 analytically  !
 ! R23   R(13,14)                1.3992         calculate D2E/DX2 analytically  !
 ! R24   R(13,15)                1.3976         calculate D2E/DX2 analytically  !
 ! R25   R(14,25)                1.0151         calculate D2E/DX2 analytically  !
 ! R26   R(14,26)                1.0152         calculate D2E/DX2 analytically  !
 ! R27   R(15,16)                1.3976         calculate D2E/DX2 analytically  !
 ! R28   R(15,27)                1.0867         calculate D2E/DX2 analytically  !
 ! R29   R(16,28)                1.0863         calculate D2E/DX2 analytically  !
 ! A1    A(2,1,17)             106.3685         calculate D2E/DX2 analytically  !
 ! A2    A(1,2,3)              118.2028         calculate D2E/DX2 analytically  !
 ! A3    A(1,2,8)              121.0743         calculate D2E/DX2 analytically  !
 ! A4    A(3,2,8)              120.7149         calculate D2E/DX2 analytically  !
 ! A5    A(2,3,4)              120.1126         calculate D2E/DX2 analytically  !
 ! A6    A(2,3,18)             119.2009         calculate D2E/DX2 analytically  !
 ! A7    A(4,3,18)             120.6857         calculate D2E/DX2 analytically  !
 ! A8    A(3,4,5)              120.2544         calculate D2E/DX2 analytically  !
 ! A9    A(3,4,6)              118.8907         calculate D2E/DX2 analytically  !
 ! A10   A(5,4,6)              120.0575         calculate D2E/DX2 analytically  !
 ! A11   A(4,5,19)             113.6845         calculate D2E/DX2 analytically  !
 ! A12   A(4,5,20)             113.9937         calculate D2E/DX2 analytically  !
 ! A13   A(19,5,20)            112.3396         calculate D2E/DX2 analytically  !
 ! A14   A(4,6,7)              120.8937         calculate D2E/DX2 analytically  !
 ! A15   A(4,6,21)             120.1199         calculate D2E/DX2 analytically  !
 ! A16   A(7,6,21)             118.9856         calculate D2E/DX2 analytically  !
 ! A17   A(6,7,8)              119.5426         calculate D2E/DX2 analytically  !
 ! A18   A(6,7,22)             119.7106         calculate D2E/DX2 analytically  !
 ! A19   A(8,7,22)             120.7442         calculate D2E/DX2 analytically  !
 ! A20   A(2,8,7)              119.6874         calculate D2E/DX2 analytically  !
 ! A21   A(2,8,9)              117.8646         calculate D2E/DX2 analytically  !
 ! A22   A(7,8,9)              122.3993         calculate D2E/DX2 analytically  !
 ! A23   A(8,9,10)             117.0587         calculate D2E/DX2 analytically  !
 ! A24   A(9,10,11)            123.0203         calculate D2E/DX2 analytically  !
 ! A25   A(9,10,16)            116.901          calculate D2E/DX2 analytically  !
 ! A26   A(11,10,16)           119.9291         calculate D2E/DX2 analytically  !
 ! A27   A(10,11,12)           119.7375         calculate D2E/DX2 analytically  !
 ! A28   A(10,11,23)           120.9368         calculate D2E/DX2 analytically  !
 ! A29   A(12,11,23)           119.3141         calculate D2E/DX2 analytically  !
 ! A30   A(11,12,13)           120.7983         calculate D2E/DX2 analytically  !
 ! A31   A(11,12,24)           118.9628         calculate D2E/DX2 analytically  !
 ! A32   A(13,12,24)           120.2382         calculate D2E/DX2 analytically  !
 ! A33   A(12,13,14)           120.2108         calculate D2E/DX2 analytically  !
 ! A34   A(12,13,15)           118.6761         calculate D2E/DX2 analytically  !
 ! A35   A(14,13,15)           120.2167         calculate D2E/DX2 analytically  !
 ! A36   A(13,14,25)           113.9468         calculate D2E/DX2 analytically  !
 ! A37   A(13,14,26)           113.8885         calculate D2E/DX2 analytically  !
 ! A38   A(25,14,26)           112.3059         calculate D2E/DX2 analytically  !
 ! A39   A(13,15,16)           120.7101         calculate D2E/DX2 analytically  !
 ! A40   A(13,15,27)           120.2338         calculate D2E/DX2 analytically  !
 ! A41   A(16,15,27)           119.0558         calculate D2E/DX2 analytically  !
 ! A42   A(10,16,15)           119.9024         calculate D2E/DX2 analytically  !
 ! A43   A(10,16,28)           120.1867         calculate D2E/DX2 analytically  !
 ! A44   A(15,16,28)           119.9085         calculate D2E/DX2 analytically  !
 ! D1    D(17,1,2,3)           179.8361         calculate D2E/DX2 analytically  !
 ! D2    D(17,1,2,8)             0.8545         calculate D2E/DX2 analytically  !
 ! D3    D(1,2,3,4)            178.2145         calculate D2E/DX2 analytically  !
 ! D4    D(1,2,3,18)            -1.4739         calculate D2E/DX2 analytically  !
 ! D5    D(8,2,3,4)             -2.8001         calculate D2E/DX2 analytically  !
 ! D6    D(8,2,3,18)           177.5115         calculate D2E/DX2 analytically  !
 ! D7    D(1,2,8,7)            179.9924         calculate D2E/DX2 analytically  !
 ! D8    D(1,2,8,9)             -2.4822         calculate D2E/DX2 analytically  !
 ! D9    D(3,2,8,7)              1.0364         calculate D2E/DX2 analytically  !
 ! D10   D(3,2,8,9)            178.5618         calculate D2E/DX2 analytically  !
 ! D11   D(2,3,4,5)            174.2202         calculate D2E/DX2 analytically  !
 ! D12   D(2,3,4,6)              4.4396         calculate D2E/DX2 analytically  !
 ! D13   D(18,3,4,5)            -6.0961         calculate D2E/DX2 analytically  !
 ! D14   D(18,3,4,6)          -175.8767         calculate D2E/DX2 analytically  !
 ! D15   D(3,4,5,19)            29.1396         calculate D2E/DX2 analytically  !
 ! D16   D(3,4,5,20)           159.6474         calculate D2E/DX2 analytically  !
 ! D17   D(6,4,5,19)          -161.1995         calculate D2E/DX2 analytically  !
 ! D18   D(6,4,5,20)           -30.6916         calculate D2E/DX2 analytically  !
 ! D19   D(3,4,6,7)             -4.4307         calculate D2E/DX2 analytically  !
 ! D20   D(3,4,6,21)           175.8854         calculate D2E/DX2 analytically  !
 ! D21   D(5,4,6,7)           -174.2318         calculate D2E/DX2 analytically  !
 ! D22   D(5,4,6,21)             6.0843         calculate D2E/DX2 analytically  !
 ! D23   D(4,6,7,8)              2.719          calculate D2E/DX2 analytically  !
 ! D24   D(4,6,7,22)          -177.8698         calculate D2E/DX2 analytically  !
 ! D25   D(21,6,7,8)          -177.5935         calculate D2E/DX2 analytically  !
 ! D26   D(21,6,7,22)            1.8177         calculate D2E/DX2 analytically  !
 ! D27   D(6,7,8,2)             -0.98           calculate D2E/DX2 analytically  !
 ! D28   D(6,7,8,9)           -178.3889         calculate D2E/DX2 analytically  !
 ! D29   D(22,7,8,2)           179.615          calculate D2E/DX2 analytically  !
 ! D30   D(22,7,8,9)             2.2061         calculate D2E/DX2 analytically  !
 ! D31   D(2,8,9,10)           128.9765         calculate D2E/DX2 analytically  !
 ! D32   D(7,8,9,10)           -53.5696         calculate D2E/DX2 analytically  !
 ! D33   D(8,9,10,11)          -45.4757         calculate D2E/DX2 analytically  !
 ! D34   D(8,9,10,16)          138.9809         calculate D2E/DX2 analytically  !
 ! D35   D(9,10,11,12)        -177.9333         calculate D2E/DX2 analytically  !
 ! D36   D(9,10,11,23)           0.816          calculate D2E/DX2 analytically  !
 ! D37   D(16,10,11,12)         -2.5194         calculate D2E/DX2 analytically  !
 ! D38   D(16,10,11,23)        176.2299         calculate D2E/DX2 analytically  !
 ! D39   D(9,10,16,15)         178.2117         calculate D2E/DX2 analytically  !
 ! D40   D(9,10,16,28)          -1.2266         calculate D2E/DX2 analytically  !
 ! D41   D(11,10,16,15)          2.5231         calculate D2E/DX2 analytically  !
 ! D42   D(11,10,16,28)       -176.9152         calculate D2E/DX2 analytically  !
 ! D43   D(10,11,12,13)         -1.3363         calculate D2E/DX2 analytically  !
 ! D44   D(10,11,12,24)        178.3605         calculate D2E/DX2 analytically  !
 ! D45   D(23,11,12,13)        179.894          calculate D2E/DX2 analytically  !
 ! D46   D(23,11,12,24)         -0.4092         calculate D2E/DX2 analytically  !
 ! D47   D(11,12,13,14)        174.285          calculate D2E/DX2 analytically  !
 ! D48   D(11,12,13,15)          5.0963         calculate D2E/DX2 analytically  !
 ! D49   D(24,12,13,14)         -5.4079         calculate D2E/DX2 analytically  !
 ! D50   D(24,12,13,15)       -174.5966         calculate D2E/DX2 analytically  !
 ! D51   D(12,13,14,25)        160.6704         calculate D2E/DX2 analytically  !
 ! D52   D(12,13,14,26)         30.0603         calculate D2E/DX2 analytically  !
 ! D53   D(15,13,14,25)        -30.3084         calculate D2E/DX2 analytically  !
 ! D54   D(15,13,14,26)       -160.9185         calculate D2E/DX2 analytically  !
 ! D55   D(12,13,15,16)         -5.0922         calculate D2E/DX2 analytically  !
 ! D56   D(12,13,15,27)        174.7081         calculate D2E/DX2 analytically  !
 ! D57   D(14,13,15,16)       -174.2802         calculate D2E/DX2 analytically  !
 ! D58   D(14,13,15,27)          5.5201         calculate D2E/DX2 analytically  !
 ! D59   D(13,15,16,10)          1.3312         calculate D2E/DX2 analytically  !
 ! D60   D(13,15,16,28)       -179.229          calculate D2E/DX2 analytically  !
 ! D61   D(27,15,16,10)       -178.4714         calculate D2E/DX2 analytically  !
 ! D62   D(27,15,16,28)          0.9684         calculate D2E/DX2 analytically  !
 --------------------------------------------------------------------------------
 Trust Radius=3.00D-01 FncErr=1.00D-07 GrdErr=1.00D-06 EigMax=2.50D+02 EigMin=1.00D-04
 Number of steps in this run=    145 maximum allowed number of steps=    168.
 GradGradGradGradGradGradGradGradGradGradGradGradGradGradGradGradGradGrad

                          Input orientation:                          
 ---------------------------------------------------------------------
 Center     Atomic      Atomic             Coordinates (Angstroms)
 Number     Number       Type             X           Y           Z
 ---------------------------------------------------------------------
      1          8           0       -2.173167    2.290339    1.155028
      2          6           0       -2.234715    0.988190    0.741925
      3          6           0       -3.229570    0.175018    1.276309
      4          6           0       -3.352500   -1.152089    0.854424
      5          7           0       -4.271623   -2.007403    1.474739
      6          6           0       -2.404771   -1.669017   -0.037519
      7          6           0       -1.403900   -0.852846   -0.574543
      8          6           0       -1.314344    0.479339   -0.173348
      9          8           0       -0.374016    1.342609   -0.687442
     10          6           0        0.941847    0.943698   -0.626427
     11          6           0        1.515303    0.386897    0.517201
     12          6           0        2.871022    0.045412    0.517201
     13          6           0        3.655356    0.229149   -0.625124
     14          7           0        5.034183   -0.003604   -0.577324
     15          6           0        3.086683    0.860803   -1.734646
     16          6           0        1.732255    1.205330   -1.743396
     17          1           0       -1.422586    2.694014    0.680673
     18          1           0       -3.908055    0.585830    2.017653
     19          1           0       -5.084860   -1.528883    1.850677
     20          1           0       -4.523999   -2.816722    0.916631
     21          1           0       -2.442021   -2.716203   -0.326572
     22          1           0       -0.699912   -1.265332   -1.291214
     23          1           0        0.927762    0.232294    1.418052
     24          1           0        3.311025   -0.362462    1.423454
     25          1           0        5.459589   -0.147177   -1.487709
     26          1           0        5.307950   -0.715666    0.092548
     27          1           0        3.696160    1.093860   -2.603622
     28          1           0        1.300906    1.684622   -2.617637
 ---------------------------------------------------------------------
                    Distance matrix (angstroms):
                    1          2          3          4          5
     1  O    0.000000
     2  C    1.367492   0.000000
     3  C    2.367547   1.391600   0.000000
     4  C    3.651233   2.417207   1.397967   0.000000
     5  N    4.793362   3.695888   2.426563   1.400407   0.000000
     6  C    4.141535   2.774383   2.409752   1.400345   2.426225
     7  C    3.669169   2.410966   2.795573   2.434858   3.708961
     8  C    2.404554   1.394180   2.421200   2.805700   4.200664
     9  O    2.744055   2.372953   3.657017   4.179980   5.575746
    10  C    3.832798   3.459034   4.648870   5.002664   6.348556
    11  C    4.199373   3.804562   4.809881   5.116415   6.335461
    12  C    5.557910   5.196911   6.149005   6.346649   7.493217
    13  C    6.433439   6.094088   7.142869   7.294307   8.499917
    14  N    7.759454   7.453922   8.470979   8.585183   9.737772
    15  C    6.169264   5.870853   7.030733   7.226209   8.524754
    16  C    4.983014   4.686238   5.899141   6.177444   7.531573
    17  H    0.975366   1.890275   3.156789   4.306653   5.554356
    18  H    2.580564   2.142297   1.085679   2.163817   2.674284
    19  H    4.852664   3.960848   2.583656   2.033609   1.015709
    20  H    5.627194   4.443950   3.279546   2.036488   1.014975
    21  H    5.228087   3.860983   3.398326   2.161059   2.663562
    22  H    4.560415   3.401124   3.881489   3.413621   4.578022
    23  H    3.731019   3.321113   4.160142   4.533744   5.661543
    24  H    6.098013   5.748389   6.564291   6.734231   7.759189
    25  H    8.437092   8.090899   9.123875   9.173241  10.340843
    26  H    8.132162   7.759937   8.665094   8.704844   9.764592
    27  H    7.071635   6.810223   7.991487   8.166148   9.472931
    28  H    5.164212   4.926692   6.161731   6.461913   7.837835
                    6          7          8          9         10
     6  C    0.000000
     7  C    1.398668   0.000000
     8  C    2.413072   1.394165   0.000000
     9  O    3.690021   2.427638   1.376133   0.000000
    10  C    4.286367   2.955129   2.347617   1.376353   0.000000
    11  C    4.461107   3.354194   2.914156   2.435997   1.395265
    12  C    5.575031   4.502636   4.264087   3.696506   2.415889
    13  C    6.377574   5.173910   4.996460   4.180851   2.806014
    14  N    7.642188   6.493854   6.379673   5.574319   4.200834
    15  C    6.279833   4.944469   4.685318   3.647631   2.415646
    16  C    5.318540   3.929093   3.503409   2.360140   1.393132
    17  H    4.529517   3.762463   2.376100   2.190328   3.219108
    18  H    3.401165   3.880728   3.396934   4.514386   5.535411
    19  H    3.281433   4.459617   4.727201   6.072855   6.969282
    20  H    2.592057   3.976861   4.727998   6.090602   6.811553
    21  H    1.086986   2.147390   3.392142   4.569554   4.993531
    22  H    2.154358   1.085985   2.161257   2.696684   2.831453
    23  H    4.103590   3.253400   2.760548   2.713030   2.164760
    24  H    6.042504   5.144218   4.965122   4.576317   3.394270
    25  H    8.140467   6.959837   6.928653   6.073783   4.726712
    26  H    7.772507   6.746315   6.734502   6.093408   4.725809
    27  H    7.172149   5.823868   5.602590   4.505547   3.393831
    28  H    5.624584   4.234259   3.777140   2.578369   2.154718
                   11         12         13         14         15
    11  C    0.000000
    12  C    1.398064   0.000000
    13  C    2.430970   1.397800   0.000000
    14  N    3.705805   2.424800   1.399151   0.000000
    15  C    2.786510   2.404618   1.397646   2.424737   0.000000
    16  C    2.413959   2.784331   2.429358   3.704588   1.397588
    17  H    3.739078   5.047463   5.793631   7.109822   5.433961
    18  H    5.630607   6.964143   8.019767   9.329788   7.942400
    19  H    7.000752   8.219040   9.252656  10.517448   9.237925
    20  H    6.848057   7.939628   8.863193  10.074938   8.858665
    21  H    5.099176   6.047057   6.778071   7.957054   6.733812
    22  H    3.302636   4.211886   4.652473   5.914511   4.365248
    23  H    1.086572   2.150050   3.407982   4.571637   3.872398
    24  H    2.146496   1.086857   2.159916   2.664801   3.394156
    25  H    4.456713   3.279853   2.034928   1.015079   2.589920
    26  H    3.972423   2.588086   2.034403   1.015239   3.279926
    27  H    3.872398   3.394058   2.159593   2.664698   1.086691
    28  H    3.399598   3.870334   3.410564   4.577155   2.155772
                   16         17         18         19         20
    16  C    0.000000
    17  H    4.247977   0.000000
    18  H    6.807522   3.522713   0.000000
    19  H    8.177184   5.710869   2.425853   0.000000
    20  H    7.898947   6.327926   3.628910   1.686871   0.000000
    21  H    5.900033   5.596806   4.306746   3.624188   2.426992
    22  H    3.496294   4.481855   4.966647   5.400807   4.680282
    23  H    3.404227   3.482518   4.885656   6.280170   6.266548
    24  H    3.870326   5.683382   7.305302   8.487281   8.226048
    25  H    3.973370   7.754907  10.028839  11.146270  10.610342
    26  H    4.454942   7.567822   9.504455  10.571795  10.087654
    27  H    2.146937   6.288771   8.912820  10.189498   9.759910
    28  H    1.086315   4.394898   7.058790   8.430329   8.165945
                   21         22         23         24         25
    21  H    0.000000
    22  H    2.463840   0.000000
    23  H    4.805496   3.497475   0.000000
    24  H    6.457571   4.926683   2.456360   0.000000
    25  H    8.389492   6.263252   5.396749   3.624575   0.000000
    26  H    8.014978   6.189615   4.673503   2.425650   1.686234
    27  H    7.574880   5.158841   4.957840   4.299597   2.427986
    28  H    6.214961   3.803274   4.305262   4.955960   4.682614
                   26         27         28
    26  H    0.000000
    27  H    3.625132   0.000000
    28  H    5.400267   2.467071   0.000000
 Stoichiometry    C12H12N2O2
 Framework group  C1[X(C12H12N2O2)]
 Deg. of freedom    78
 Full point group                 C1      NOp   1
 Largest Abelian subgroup         C1      NOp   1
 Largest concise Abelian subgroup C1      NOp   1
                         Standard orientation:                         
 ---------------------------------------------------------------------
 Center     Atomic      Atomic             Coordinates (Angstroms)
 Number     Number       Type             X           Y           Z
 ---------------------------------------------------------------------
      1          8           0        1.940349    2.351723   -0.806546
      2          6           0        2.088913    1.094660   -0.289096
      3          6           0        3.290487    0.429221   -0.512617
      4          6           0        3.499458   -0.842277    0.029539
      5          7           0        4.655202   -1.564990   -0.291525
      6          6           0        2.450060   -1.466107    0.715518
      7          6           0        1.241641   -0.798561    0.939969
      8          6           0        1.058968    0.484149    0.425207
      9          8           0       -0.092667    1.206858    0.637741
     10          6           0       -1.282685    0.600569    0.305143
     11          6           0       -1.476350   -0.088254   -0.892681
     12          6           0       -2.727662   -0.641713   -1.179880
     13          6           0       -3.782398   -0.537881   -0.268509
     14          7           0       -5.060151   -0.989804   -0.615981
     15          6           0       -3.595971    0.222569    0.889236
     16          6           0       -2.348448    0.779190    1.184381
     17          1           0        1.047116    2.649812   -0.552349
     18          1           0        4.060626    0.911687   -1.106595
     19          1           0        5.456708   -0.978866   -0.505327
     20          1           0        4.880343   -2.299411    0.371884
     21          1           0        2.568191   -2.480805    1.086963
     22          1           0        0.453221   -1.287791    1.504249
     23          1           0       -0.672904   -0.184663   -1.617815
     24          1           0       -2.872132   -1.152359   -2.128367
     25          1           0       -5.667012   -1.161160    0.179470
     26          1           0       -5.057924   -1.763962   -1.272778
     27          1           0       -4.424174    0.391508    1.572198
     28          1           0       -2.214936    1.357544    2.094195
 ---------------------------------------------------------------------
 Rotational constants (GHZ):           1.2830115           0.2557293           0.2377556
 Standard basis: 6-31G(d,p) (6D, 7F)
 There are   300 symmetry adapted cartesian basis functions of A   symmetry.
 There are   300 symmetry adapted basis functions of A   symmetry.
   300 basis functions,   532 primitive gaussians,   300 cartesian basis functions
    57 alpha electrons       57 beta electrons
       nuclear repulsion energy      1023.0193464988 Hartrees.
 NAtoms=   28 NActive=   28 NUniq=   28 SFac= 1.00D+00 NAtFMM=   60 NAOKFM=F Big=F
 Integral buffers will be    131072 words long.
 Raffenetti 2 integral format.
 Two-electron integral symmetry is turned on.
 Force inversion solution in PCM.
 ------------------------------------------------------------------------------
 Polarizable Continuum Model (PCM)
 =================================
 Model                : PCM.
 Atomic radii         : UFF (Universal Force Field).
 Polarization charges : Total charges.
 Charge compensation  : None.
 Solution method      : Matrix inversion.
 Cavity type          : Scaled VdW (van der Waals Surface) (Alpha=1.100).
 Cavity algorithm     : GePol (No added spheres)
                        Default sphere list used, NSphG=   28.
                        Lebedev-Laikov grids with approx.  5.0 points / Ang**2.
                        Smoothing algorithm: York/Karplus (Gamma=1.0000).
                        Polarization charges: spherical gaussians, with
                                              point-specific exponents (IZeta= 3).
                        Self-potential: point-specific (ISelfS= 7).
                        Self-field    : sphere-specific E.n sum rule (ISelfD= 2).
 1st derivatives      : Analytical E(r).r(x)/FMM algorithm (CHGder, D1EAlg=3).
                        Cavity 1st derivative terms included.
 2nd derivatives      : Analytical E(r).r(xy)/FMM algorithm (CHGder, D2EAlg=3).
                        Cavity 2nd derivative terms included.
 Solvent              : Water, Eps=  78.355300 Eps(inf)=   1.777849
 ------------------------------------------------------------------------------
 One-electron integrals computed using PRISM.
 NBasis=   300 RedAO= T EigKep=  3.84D-04  NBF=   300
 NBsUse=   300 1.00D-06 EigRej= -1.00D+00 NBFU=   300
 ExpMin= 1.61D-01 ExpMax= 5.48D+03 ExpMxC= 8.25D+02 IAcc=3 IRadAn=         5 AccDes= 0.00D+00
 Harris functional with IExCor=  402 and IRadAn=       5 diagonalized for initial guess.
 HarFok:  IExCor=  402 AccDes= 0.00D+00 IRadAn=         5 IDoV= 1 UseB2=F ITyADJ=14
 ICtDFT=  3500011 ScaDFX=  1.000000  1.000000  1.000000  1.000000
 FoFCou: FMM=F IPFlag=           0 FMFlag=      100000 FMFlg1=           0
         NFxFlg=           0 DoJE=T BraDBF=F KetDBF=T FulRan=T
         wScrn=  0.000000 ICntrl=       500 IOpCl=  0 I1Cent=   200000004 NGrid=           0
         NMat0=    1 NMatS0=      1 NMatT0=    0 NMatD0=    1 NMtDS0=    0 NMtDT0=    0
 Petite list used in FoFCou.
 Keep R1 ints in memory in canonical form, NReq=1032920980.
 Requested convergence on RMS density matrix=1.00D-08 within  32 cycles.
 Requested convergence on MAX density matrix=1.00D-06.
 Requested convergence on             energy=1.00D-06.
 No special actions if energy rises.
 Inv3:  Mode=1 IEnd=    14865228.
 Iteration    1 A*A^-1 deviation from unit magnitude is 3.55D-15 for    756.
 Iteration    1 A*A^-1 deviation from orthogonality  is 1.65D-15 for   1147    724.
 Iteration    1 A^-1*A deviation from unit magnitude is 3.55D-15 for    756.
 Iteration    1 A^-1*A deviation from orthogonality  is 7.01D-14 for   1291   1232.
 Error on total polarization charges =  0.00849
 SCF Done:  E(RB3LYP) =  -724.475087402     A.U. after   13 cycles
            NFock= 13  Conv=0.30D-08     -V/T= 2.0092
 QCSCF skips out because SCF is already converged.
 DoSCS=F DFT=T ScalE2(SS,OS)=  1.000000  1.000000
 Range of M.O.s used for correlation:     1   300
 NBasis=   300 NAE=    57 NBE=    57 NFC=     0 NFV=     0
 NROrb=    300 NOA=    57 NOB=    57 NVA=   243 NVB=   243
 Symmetrizing basis deriv contribution to polar:
 IMax=3 JMax=2 DiffMx= 0.00D+00
 G2DrvN: will do    29 centers at a time, making    1 passes.
 Calling FoFCou, ICntrl=  3107 FMM=F I1Cent=   0 AccDes= 0.00D+00.
 NEqPCM:  Using equilibrium solvation (IEInf=0, Eps=  78.3553, EpsInf=   1.7778)
 G2PCM: DoFxE=T DoFxN=T DoGrad=T DoDP/DQ/DG/TGxP=FFFF NFrqRd=   0 IEInf=0 SqF1=F DoCFld=F IF1Alg=4.
 End of G2Drv F.D. properties file   721 does not exist.
 End of G2Drv F.D. properties file   722 does not exist.
 End of G2Drv F.D. properties file   788 does not exist.
          IDoAtm=1111111111111111111111111111
 NEqPCM:  Using equilibrium solvation (IEInf=0, Eps=  78.3553, EpsInf=   1.7778)
          Differentiating once with respect to nuclear coordinates.
 Keep R1 ints in memory in canonical form, NReq=1032932655.
          There are    87 degrees of freedom in the 1st order CPHF.  IDoFFX=6 NUNeed=     0.
     81 vectors produced by pass  0 Test12= 1.59D-14 1.15D-09 XBig12= 1.49D-01 1.17D-01.
 AX will form    81 AO Fock derivatives at one time.
     81 vectors produced by pass  1 Test12= 1.59D-14 1.15D-09 XBig12= 3.41D-02 5.52D-02.
     81 vectors produced by pass  2 Test12= 1.59D-14 1.15D-09 XBig12= 2.56D-04 2.80D-03.
     81 vectors produced by pass  3 Test12= 1.59D-14 1.15D-09 XBig12= 1.73D-06 2.18D-04.
     81 vectors produced by pass  4 Test12= 1.59D-14 1.15D-09 XBig12= 4.32D-09 4.68D-06.
     61 vectors produced by pass  5 Test12= 1.59D-14 1.15D-09 XBig12= 4.18D-12 1.76D-07.
     15 vectors produced by pass  6 Test12= 1.59D-14 1.15D-09 XBig12= 3.92D-15 4.58D-09.
 InvSVY:  IOpt=1 It=  1 EMax= 3.89D-16
 Solved reduced A of dimension   481 with    87 vectors.
 End of Minotr F.D. properties file   721 does not exist.
 End of Minotr F.D. properties file   722 does not exist.
 End of Minotr F.D. properties file   788 does not exist.

 **********************************************************************

            Population analysis using the SCF density.

 **********************************************************************

 Orbital symmetries:
       Occupied  (A) (A) (A) (A) (A) (A) (A) (A) (A) (A) (A) (A)
                 (A) (A) (A) (A) (A) (A) (A) (A) (A) (A) (A) (A)
                 (A) (A) (A) (A) (A) (A) (A) (A) (A) (A) (A) (A)
                 (A) (A) (A) (A) (A) (A) (A) (A) (A) (A) (A) (A)
                 (A) (A) (A) (A) (A) (A) (A) (A) (A)
       Virtual   (A) (A) (A) (A) (A) (A) (A) (A) (A) (A) (A) (A)
                 (A) (A) (A) (A) (A) (A) (A) (A) (A) (A) (A) (A)
                 (A) (A) (A) (A) (A) (A) (A) (A) (A) (A) (A) (A)
                 (A) (A) (A) (A) (A) (A) (A) (A) (A) (A) (A) (A)
                 (A) (A) (A) (A) (A) (A) (A) (A) (A) (A) (A) (A)
                 (A) (A) (A) (A) (A) (A) (A) (A) (A) (A) (A) (A)
                 (A) (A) (A) (A) (A) (A) (A) (A) (A) (A) (A) (A)
                 (A) (A) (A) (A) (A) (A) (A) (A) (A) (A) (A) (A)
                 (A) (A) (A) (A) (A) (A) (A) (A) (A) (A) (A) (A)
                 (A) (A) (A) (A) (A) (A) (A) (A) (A) (A) (A) (A)
                 (A) (A) (A) (A) (A) (A) (A) (A) (A) (A) (A) (A)
                 (A) (A) (A) (A) (A) (A) (A) (A) (A) (A) (A) (A)
                 (A) (A) (A) (A) (A) (A) (A) (A) (A) (A) (A) (A)
                 (A) (A) (A) (A) (A) (A) (A) (A) (A) (A) (A) (A)
                 (A) (A) (A) (A) (A) (A) (A) (A) (A) (A) (A) (A)
                 (A) (A) (A) (A) (A) (A) (A) (A) (A) (A) (A) (A)
                 (A) (A) (A) (A) (A) (A) (A) (A) (A) (A) (A) (A)
                 (A) (A) (A) (A) (A) (A) (A) (A) (A) (A) (A) (A)
                 (A) (A) (A) (A) (A) (A) (A) (A) (A) (A) (A) (A)
                 (A) (A) (A) (A) (A) (A) (A) (A) (A) (A) (A) (A)
                 (A) (A) (A)
 The electronic state is 1-A.
 Alpha  occ. eigenvalues --  -19.18773 -19.17664 -14.33574 -14.33491 -10.24786
 Alpha  occ. eigenvalues --  -10.24050 -10.23553 -10.22714 -10.22502 -10.19246
 Alpha  occ. eigenvalues --  -10.19154 -10.18926 -10.18677 -10.18587 -10.18035
 Alpha  occ. eigenvalues --  -10.17992  -1.08548  -1.05171  -0.91357  -0.91294
 Alpha  occ. eigenvalues --   -0.84333  -0.82781  -0.74966  -0.74380  -0.74051
 Alpha  occ. eigenvalues --   -0.70352  -0.63390  -0.61964  -0.61310  -0.58761
 Alpha  occ. eigenvalues --   -0.55143  -0.53363  -0.51374  -0.51191  -0.50367
 Alpha  occ. eigenvalues --   -0.48189  -0.45971  -0.44642  -0.44228  -0.43024
 Alpha  occ. eigenvalues --   -0.42730  -0.41965  -0.40976  -0.39403  -0.38559
 Alpha  occ. eigenvalues --   -0.38496  -0.37288  -0.36636  -0.35762  -0.34762
 Alpha  occ. eigenvalues --   -0.33396  -0.30187  -0.27979  -0.25298  -0.22999
 Alpha  occ. eigenvalues --   -0.20505  -0.18821
 Alpha virt. eigenvalues --   -0.00816   0.00358   0.01556   0.03000   0.08185
 Alpha virt. eigenvalues --    0.09340   0.09745   0.10761   0.11849   0.13178
 Alpha virt. eigenvalues --    0.13782   0.16132   0.16938   0.17115   0.17456
 Alpha virt. eigenvalues --    0.17838   0.18788   0.19881   0.20167   0.24638
 Alpha virt. eigenvalues --    0.25139   0.26234   0.29375   0.32361   0.33412
 Alpha virt. eigenvalues --    0.33961   0.34005   0.34765   0.36011   0.37725
 Alpha virt. eigenvalues --    0.38595   0.48239   0.49554   0.50053   0.51390
 Alpha virt. eigenvalues --    0.52076   0.52559   0.53544   0.54719   0.56074
 Alpha virt. eigenvalues --    0.56747   0.56982   0.58441   0.58813   0.59384
 Alpha virt. eigenvalues --    0.59483   0.60135   0.60541   0.61231   0.61836
 Alpha virt. eigenvalues --    0.62395   0.63184   0.63847   0.65187   0.66663
 Alpha virt. eigenvalues --    0.68004   0.69233   0.69528   0.70211   0.71184
 Alpha virt. eigenvalues --    0.72778   0.76226   0.76804   0.78189   0.79385
 Alpha virt. eigenvalues --    0.80834   0.82076   0.83362   0.83799   0.84312
 Alpha virt. eigenvalues --    0.85617   0.85866   0.86502   0.87217   0.88159
 Alpha virt. eigenvalues --    0.88529   0.89143   0.89527   0.90691   0.92460
 Alpha virt. eigenvalues --    0.93121   0.95734   0.98091   0.98346   0.98980
 Alpha virt. eigenvalues --    0.99908   1.01010   1.04161   1.04590   1.05275
 Alpha virt. eigenvalues --    1.07821   1.10249   1.13533   1.14603   1.15891
 Alpha virt. eigenvalues --    1.17382   1.19459   1.20700   1.21260   1.22468
 Alpha virt. eigenvalues --    1.24311   1.28146   1.29288   1.31191   1.31838
 Alpha virt. eigenvalues --    1.35164   1.37428   1.38007   1.38731   1.39916
 Alpha virt. eigenvalues --    1.40234   1.40637   1.42176   1.44071   1.46257
 Alpha virt. eigenvalues --    1.48952   1.50667   1.52442   1.57953   1.65880
 Alpha virt. eigenvalues --    1.69175   1.72360   1.74420   1.75510   1.76762
 Alpha virt. eigenvalues --    1.77290   1.79405   1.79664   1.81020   1.82683
 Alpha virt. eigenvalues --    1.83751   1.85549   1.85790   1.87273   1.88869
 Alpha virt. eigenvalues --    1.88988   1.90589   1.91033   1.92525   1.94112
 Alpha virt. eigenvalues --    1.94898   1.95074   1.96732   1.98233   1.98615
 Alpha virt. eigenvalues --    2.00476   2.02710   2.03471   2.05635   2.07923
 Alpha virt. eigenvalues --    2.09171   2.11457   2.16471   2.16726   2.17854
 Alpha virt. eigenvalues --    2.23740   2.24726   2.25593   2.26197   2.27420
 Alpha virt. eigenvalues --    2.28293   2.30821   2.32109   2.32698   2.33541
 Alpha virt. eigenvalues --    2.34070   2.35476   2.36011   2.37382   2.39783
 Alpha virt. eigenvalues --    2.41362   2.41820   2.44490   2.45150   2.45450
 Alpha virt. eigenvalues --    2.46611   2.47253   2.47677   2.48287   2.49244
 Alpha virt. eigenvalues --    2.50115   2.53423   2.55803   2.56312   2.57008
 Alpha virt. eigenvalues --    2.58321   2.59137   2.59832   2.60864   2.65636
 Alpha virt. eigenvalues --    2.67667   2.69907   2.70849   2.71638   2.72579
 Alpha virt. eigenvalues --    2.74595   2.76275   2.79415   2.80953   2.81748
 Alpha virt. eigenvalues --    2.84336   2.87290   2.92264   2.94547   2.97910
 Alpha virt. eigenvalues --    2.99774   3.03765   3.05733   3.08314   3.13356
 Alpha virt. eigenvalues --    3.14610   3.18507   3.20292   3.25045   3.28087
 Alpha virt. eigenvalues --    3.28448   3.31215   3.32898   3.36998   3.37712
 Alpha virt. eigenvalues --    3.42331   3.48670   3.49470   3.53097   3.54726
 Alpha virt. eigenvalues --    3.78799   3.83654   4.01372   4.03916   4.07707
 Alpha virt. eigenvalues --    4.13412   4.13875   4.15880   4.16414   4.20781
 Alpha virt. eigenvalues --    4.29615   4.42585   4.44641   4.46067   4.49197
 Alpha virt. eigenvalues --    4.71598   4.84200   4.99138
          Condensed to atoms (all electrons):
               1          2          3          4          5          6
     1  O    8.137792   0.281631  -0.054643   0.002753  -0.000026   0.000042
     2  C    0.281631   4.667833   0.511585  -0.005286   0.004119  -0.040682
     3  C   -0.054643   0.511585   5.039678   0.522755  -0.065710  -0.052768
     4  C    0.002753  -0.005286   0.522755   4.575892   0.296749   0.529856
     5  N   -0.000026   0.004119  -0.065710   0.296749   6.831727  -0.069900
     6  C    0.000042  -0.040682  -0.052768   0.529856  -0.069900   4.978222
     7  C    0.005251  -0.029944  -0.044297  -0.013974   0.004491   0.493770
     8  C   -0.066758   0.441782  -0.052676  -0.037817   0.000649  -0.022468
     9  O   -0.012096  -0.054032   0.004374   0.000035   0.000000   0.004557
    10  C    0.000251  -0.002592  -0.000131   0.000088   0.000000  -0.000311
    11  C   -0.000005   0.000119  -0.000105   0.000027   0.000000  -0.000321
    12  C   -0.000000  -0.000003   0.000001   0.000000  -0.000000   0.000004
    13  C    0.000000  -0.000000   0.000000   0.000000  -0.000000  -0.000000
    14  N    0.000000   0.000000   0.000000   0.000000   0.000000  -0.000000
    15  C   -0.000000   0.000008  -0.000000  -0.000000  -0.000000   0.000001
    16  C   -0.000010  -0.000256   0.000007   0.000000  -0.000000   0.000001
    17  H    0.297152  -0.038241   0.005994  -0.000062   0.000002  -0.000128
    18  H   -0.001360  -0.030716   0.352742  -0.041122  -0.007603   0.005750
    19  H   -0.000001  -0.000083  -0.009864  -0.024476   0.343288   0.005500
    20  H    0.000000  -0.000174   0.005353  -0.024897   0.344028  -0.009284
    21  H    0.000002   0.000667   0.005167  -0.041560  -0.007277   0.364156
    22  H   -0.000044   0.004302   0.000647   0.003560  -0.000110  -0.033232
    23  H    0.000034   0.000644   0.000115  -0.000056   0.000000  -0.000139
    24  H   -0.000000  -0.000000  -0.000000  -0.000000   0.000000  -0.000000
    25  H   -0.000000  -0.000000   0.000000   0.000000   0.000000  -0.000000
    26  H   -0.000000  -0.000000   0.000000   0.000000   0.000000  -0.000000
    27  H   -0.000000  -0.000000   0.000000  -0.000000  -0.000000   0.000000
    28  H    0.000000  -0.000011  -0.000000   0.000000  -0.000000  -0.000001
               7          8          9         10         11         12
     1  O    0.005251  -0.066758  -0.012096   0.000251  -0.000005  -0.000000
     2  C   -0.029944   0.441782  -0.054032  -0.002592   0.000119  -0.000003
     3  C   -0.044297  -0.052676   0.004374  -0.000131  -0.000105   0.000001
     4  C   -0.013974  -0.037817   0.000035   0.000088   0.000027   0.000000
     5  N    0.004491   0.000649   0.000000   0.000000   0.000000  -0.000000
     6  C    0.493770  -0.022468   0.004557  -0.000311  -0.000321   0.000004
     7  C    4.976379   0.456087  -0.062109   0.002543   0.001312  -0.000282
     8  C    0.456087   4.878927   0.207674  -0.035155   0.003115  -0.000147
     9  O   -0.062109   0.207674   8.392635   0.215643  -0.055086   0.004267
    10  C    0.002543  -0.035155   0.215643   4.627419   0.499036  -0.023255
    11  C    0.001312   0.003115  -0.055086   0.499036   4.950243   0.504388
    12  C   -0.000282  -0.000147   0.004267  -0.023255   0.504388   4.947838
    13  C    0.000009   0.000007   0.000160  -0.033835  -0.027561   0.537828
    14  N    0.000000  -0.000000   0.000000   0.000544   0.004618  -0.070347
    15  C   -0.000050   0.000033   0.004097  -0.027141  -0.037657  -0.048692
    16  C    0.000845  -0.002147  -0.051449   0.546553  -0.067816  -0.038962
    17  H    0.001535  -0.015637   0.024968  -0.000545  -0.000076  -0.000000
    18  H   -0.000134   0.006643  -0.000053  -0.000001   0.000000  -0.000000
    19  H   -0.000175  -0.000013  -0.000000   0.000000  -0.000000   0.000000
    20  H   -0.000054   0.000007  -0.000000   0.000000   0.000000   0.000000
    21  H   -0.031704   0.003771  -0.000056  -0.000007   0.000003  -0.000000
    22  H    0.362381  -0.036493  -0.006237   0.006287   0.001235  -0.000225
    23  H    0.001084   0.006736  -0.006698  -0.040408   0.364474  -0.034991
    24  H    0.000003   0.000004  -0.000056   0.003410  -0.030987   0.364300
    25  H   -0.000000  -0.000000  -0.000000  -0.000005  -0.000184   0.005440
    26  H   -0.000000  -0.000000  -0.000000  -0.000003  -0.000028  -0.009397
    27  H    0.000000  -0.000001  -0.000062   0.003851   0.000472   0.005304
    28  H   -0.000022   0.000333  -0.001064  -0.039589   0.006463   0.000286
              13         14         15         16         17         18
     1  O    0.000000   0.000000  -0.000000  -0.000010   0.297152  -0.001360
     2  C   -0.000000   0.000000   0.000008  -0.000256  -0.038241  -0.030716
     3  C    0.000000   0.000000  -0.000000   0.000007   0.005994   0.352742
     4  C    0.000000   0.000000  -0.000000   0.000000  -0.000062  -0.041122
     5  N   -0.000000   0.000000  -0.000000  -0.000000   0.000002  -0.007603
     6  C   -0.000000  -0.000000   0.000001   0.000001  -0.000128   0.005750
     7  C    0.000009   0.000000  -0.000050   0.000845   0.001535  -0.000134
     8  C    0.000007  -0.000000   0.000033  -0.002147  -0.015637   0.006643
     9  O    0.000160   0.000000   0.004097  -0.051449   0.024968  -0.000053
    10  C   -0.033835   0.000544  -0.027141   0.546553  -0.000545  -0.000001
    11  C   -0.027561   0.004618  -0.037657  -0.067816  -0.000076   0.000000
    12  C    0.537828  -0.070347  -0.048692  -0.038962  -0.000000  -0.000000
    13  C    4.582667   0.298026   0.537080  -0.025616   0.000002  -0.000000
    14  N    0.298026   6.832505  -0.070329   0.004534  -0.000000   0.000000
    15  C    0.537080  -0.070329   4.948413   0.504154  -0.000005   0.000000
    16  C   -0.025616   0.004534   0.504154   4.929824  -0.000023  -0.000000
    17  H    0.000002  -0.000000  -0.000005  -0.000023   0.384312  -0.000323
    18  H   -0.000000   0.000000   0.000000  -0.000000  -0.000323   0.614876
    19  H    0.000000   0.000000  -0.000000  -0.000000   0.000000   0.004162
    20  H    0.000000   0.000000  -0.000000   0.000000  -0.000000  -0.000033
    21  H   -0.000000   0.000000  -0.000000  -0.000000   0.000000  -0.000175
    22  H    0.000003   0.000000   0.000017   0.000925  -0.000001   0.000012
    23  H    0.003838  -0.000104   0.000475   0.005304   0.000166  -0.000001
    24  H   -0.041986  -0.007161   0.005155   0.000578  -0.000000  -0.000000
    25  H   -0.025177   0.344138  -0.009373  -0.000012   0.000000  -0.000000
    26  H   -0.025266   0.344190   0.005462  -0.000174   0.000000  -0.000000
    27  H   -0.042586  -0.007171   0.364705  -0.031746   0.000000  -0.000000
    28  H    0.004206  -0.000103  -0.035000   0.360334   0.000011  -0.000000
              19         20         21         22         23         24
     1  O   -0.000001   0.000000   0.000002  -0.000044   0.000034  -0.000000
     2  C   -0.000083  -0.000174   0.000667   0.004302   0.000644  -0.000000
     3  C   -0.009864   0.005353   0.005167   0.000647   0.000115  -0.000000
     4  C   -0.024476  -0.024897  -0.041560   0.003560  -0.000056  -0.000000
     5  N    0.343288   0.344028  -0.007277  -0.000110   0.000000   0.000000
     6  C    0.005500  -0.009284   0.364156  -0.033232  -0.000139  -0.000000
     7  C   -0.000175  -0.000054  -0.031704   0.362381   0.001084   0.000003
     8  C   -0.000013   0.000007   0.003771  -0.036493   0.006736   0.000004
     9  O   -0.000000  -0.000000  -0.000056  -0.006237  -0.006698  -0.000056
    10  C    0.000000   0.000000  -0.000007   0.006287  -0.040408   0.003410
    11  C   -0.000000   0.000000   0.000003   0.001235   0.364474  -0.030987
    12  C    0.000000   0.000000  -0.000000  -0.000225  -0.034991   0.364300
    13  C    0.000000   0.000000  -0.000000   0.000003   0.003838  -0.041986
    14  N    0.000000   0.000000   0.000000   0.000000  -0.000104  -0.007161
    15  C   -0.000000  -0.000000  -0.000000   0.000017   0.000475   0.005155
    16  C   -0.000000   0.000000  -0.000000   0.000925   0.005304   0.000578
    17  H    0.000000  -0.000000   0.000000  -0.000001   0.000166  -0.000000
    18  H    0.004162  -0.000033  -0.000175   0.000012  -0.000001  -0.000000
    19  H    0.433006  -0.028343  -0.000058   0.000003  -0.000000  -0.000000
    20  H   -0.028343   0.431314   0.004531  -0.000004  -0.000000  -0.000000
    21  H   -0.000058   0.004531   0.615622  -0.005861   0.000001  -0.000000
    22  H    0.000003  -0.000004  -0.005861   0.592912   0.000010  -0.000001
    23  H   -0.000000  -0.000000   0.000001   0.000010   0.598171  -0.006131
    24  H   -0.000000  -0.000000  -0.000000  -0.000001  -0.006131   0.607831
    25  H   -0.000000   0.000000   0.000000   0.000000   0.000003  -0.000062
    26  H   -0.000000   0.000000   0.000000   0.000000  -0.000007   0.004381
    27  H   -0.000000  -0.000000  -0.000000  -0.000002   0.000013  -0.000188
    28  H   -0.000000  -0.000000   0.000000   0.000068  -0.000154   0.000014
              25         26         27         28
     1  O   -0.000000  -0.000000  -0.000000   0.000000
     2  C   -0.000000  -0.000000  -0.000000  -0.000011
     3  C    0.000000   0.000000   0.000000  -0.000000
     4  C    0.000000   0.000000  -0.000000   0.000000
     5  N    0.000000   0.000000  -0.000000  -0.000000
     6  C   -0.000000  -0.000000   0.000000  -0.000001
     7  C   -0.000000  -0.000000   0.000000  -0.000022
     8  C   -0.000000  -0.000000  -0.000001   0.000333
     9  O   -0.000000  -0.000000  -0.000062  -0.001064
    10  C   -0.000005  -0.000003   0.003851  -0.039589
    11  C   -0.000184  -0.000028   0.000472   0.006463
    12  C    0.005440  -0.009397   0.005304   0.000286
    13  C   -0.025177  -0.025266  -0.042586   0.004206
    14  N    0.344138   0.344190  -0.007171  -0.000103
    15  C   -0.009373   0.005462   0.364705  -0.035000
    16  C   -0.000012  -0.000174  -0.031746   0.360334
    17  H    0.000000   0.000000   0.000000   0.000011
    18  H   -0.000000  -0.000000  -0.000000  -0.000000
    19  H   -0.000000  -0.000000  -0.000000  -0.000000
    20  H    0.000000   0.000000  -0.000000  -0.000000
    21  H    0.000000   0.000000  -0.000000   0.000000
    22  H    0.000000   0.000000  -0.000002   0.000068
    23  H    0.000003  -0.000007   0.000013  -0.000154
    24  H   -0.000062   0.004381  -0.000188   0.000014
    25  H    0.432387  -0.028329   0.004435  -0.000006
    26  H   -0.028329   0.432598  -0.000056   0.000003
    27  H    0.004435  -0.000056   0.610025  -0.006569
    28  H   -0.000006   0.000003  -0.006569   0.607516
 Mulliken charges:
               1
     1  O   -0.589965
     2  C    0.289335
     3  C   -0.168222
     4  C    0.257533
     5  N   -0.674427
     6  C   -0.152624
     7  C   -0.122947
     8  C    0.263545
     9  O   -0.609412
    10  C    0.297353
    11  C   -0.115678
    12  C   -0.143355
    13  C    0.258201
    14  N   -0.673342
    15  C   -0.141356
    16  C   -0.134849
    17  H    0.340898
    18  H    0.097336
    19  H    0.277053
    20  H    0.277556
    21  H    0.092778
    22  H    0.109846
    23  H    0.107619
    24  H    0.100897
    25  H    0.276745
    26  H    0.276625
    27  H    0.099574
    28  H    0.103283
 Sum of Mulliken charges =  -0.00000
 Mulliken charges with hydrogens summed into heavy atoms:
               1
     1  O   -0.249066
     2  C    0.289335
     3  C   -0.070887
     4  C    0.257533
     5  N   -0.119818
     6  C   -0.059846
     7  C   -0.013101
     8  C    0.263545
     9  O   -0.609412
    10  C    0.297353
    11  C   -0.008059
    12  C   -0.042458
    13  C    0.258201
    14  N   -0.119972
    15  C   -0.041782
    16  C   -0.031566
 APT charges:
               1
     1  O   -0.177838
     2  C   -0.323449
     3  C   -0.381000
     4  C    0.257403
     5  N   -1.544713
     6  C   -0.438013
     7  C   -0.614014
     8  C   -0.175945
     9  O   -0.409263
    10  C   -0.373470
    11  C   -0.581225
    12  C   -0.431698
    13  C    0.211618
    14  N   -1.344753
    15  C   -0.399655
    16  C   -0.510341
    17  H    0.283977
    18  H    0.702164
    19  H    0.957270
    20  H    0.809190
    21  H    0.553459
    22  H    0.297345
    23  H    0.226835
    24  H    0.534867
    25  H    0.941392
    26  H    0.656520
    27  H    0.792502
    28  H    0.480835
 Sum of APT charges =  -0.00000
 APT charges with hydrogens summed into heavy atoms:
               1
     1  O    0.106139
     2  C   -0.323449
     3  C    0.321164
     4  C    0.257403
     5  N    0.221748
     6  C    0.115446
     7  C   -0.316669
     8  C   -0.175945
     9  O   -0.409263
    10  C   -0.373470
    11  C   -0.354390
    12  C    0.103169
    13  C    0.211618
    14  N    0.253159
    15  C    0.392847
    16  C   -0.029505
 Electronic spatial extent (au):  <R**2>=           4582.3298
 Charge=             -0.0000 electrons
 Dipole moment (field-independent basis, Debye):
    X=             -1.0905    Y=             -3.3252    Z=              1.1837  Tot=              3.6942
 Quadrupole moment (field-independent basis, Debye-Ang):
   XX=            -62.7869   YY=            -87.9145   ZZ=            -90.6700
   XY=              2.5908   XZ=              0.5721   YZ=              0.0313
 Traceless Quadrupole moment (field-independent basis, Debye-Ang):
   XX=             17.6702   YY=             -7.4574   ZZ=            -10.2129
   XY=              2.5908   XZ=              0.5721   YZ=              0.0313
 Octapole moment (field-independent basis, Debye-Ang**2):
  XXX=             42.0337  YYY=             -5.7274  ZZZ=             -3.9606  XYY=            -13.0054
  XXY=            -85.3768  XXZ=             30.8497  XZZ=            -16.3722  YZZ=             -2.6144
  YYZ=              7.2411  XYZ=            -24.5999
 Hexadecapole moment (field-independent basis, Debye-Ang**3):
 XXXX=          -3607.7414 YYYY=           -701.4390 ZZZZ=           -417.1680 XXXY=            150.8235
 XXXZ=           -108.3143 YYYX=            -13.7852 YYYZ=            -12.0188 ZZZX=              2.4995
 ZZZY=             15.0353 XXYY=           -818.7443 XXZZ=           -863.1271 YYZZ=           -190.2685
 XXYZ=             -1.9638 YYXZ=             67.0379 ZZXY=             21.5365
 N-N= 1.023019346499D+03 E-N=-3.733240429046D+03  KE= 7.178408624739D+02
  Exact polarizability:   0.000   0.000   0.000   0.000   0.000   0.000
 Approx polarizability: 299.398   1.763 205.613 -34.444   6.497 180.377
 D2PCM: PCM CHGder 2nd derivatives, FixD1E=F FixD2E=F DoIter=F DoCFld=F I1PDM=0
 Calling FoFJK, ICntrl=    100147 FMM=F ISym2X=0 I1Cent= 0 IOpClX= 0 NMat=1 NMatS=1 NMatT=0.
 ***** Axes restored to original set *****
 -------------------------------------------------------------------
 Center     Atomic                   Forces (Hartrees/Bohr)
 Number     Number              X              Y              Z
 -------------------------------------------------------------------
      1        8           0.005940346    0.001061809   -0.004463653
      2        6          -0.004019397    0.006557730    0.007279780
      3        6          -0.004007676    0.002577660   -0.002637836
      4        6           0.004491512   -0.007938489    0.012596288
      5        7          -0.002393590    0.002536826   -0.001882070
      6        6           0.006044366   -0.001317903   -0.011105547
      7        6          -0.008057463   -0.003432129    0.005127560
      8        6          -0.003579695   -0.012867277   -0.003656192
      9        8          -0.005926065    0.012120103   -0.000942352
     10        6           0.011850507    0.001562862   -0.002160395
     11        6           0.004782471   -0.001820119    0.002536093
     12        6          -0.011443105   -0.003052170    0.003748536
     13        6           0.012001191    0.010566137    0.004417480
     14        7           0.001034976   -0.003684905   -0.000885660
     15        6          -0.008971017    0.001673453   -0.006569560
     16        6           0.006763541   -0.002281927   -0.001832259
     17        1          -0.002617078   -0.000412423    0.002483774
     18        1          -0.000241456    0.001105019   -0.000776920
     19        1           0.000644693   -0.003887827   -0.002238578
     20        1          -0.001833005    0.002566394    0.001892075
     21        1          -0.001620320    0.000550351   -0.000154301
     22        1           0.000768294    0.001856628    0.001130234
     23        1          -0.000946246   -0.000043422   -0.001993833
     24        1           0.000562615   -0.000736060   -0.000892807
     25        1           0.000350718   -0.001899045    0.003459057
     26        1           0.001128731    0.000724026   -0.003917106
     27        1           0.000628181   -0.001335447    0.000177351
     28        1          -0.001336027   -0.000749855    0.001260839
 -------------------------------------------------------------------
 Cartesian Forces:  Max     0.012867277 RMS     0.004884053
 FormGI is forming the generalized inverse of G from B-inverse, IUseBI=4.

 GradGradGradGradGradGradGradGradGradGradGradGradGradGradGradGradGradGrad
 Berny optimization.
 Internal  Forces:  Max     0.015879407 RMS     0.003064415
 Search for a local minimum.
 Step number   1 out of a maximum of  145
 All quantities printed in internal units (Hartrees-Bohrs-Radians)
 Mixed Optimization -- RFO/linear search
 Second derivative matrix not updated -- analytic derivatives used.
 ITU=  0
     Eigenvalues ---    0.00118   0.00486   0.00508   0.00713   0.01075
     Eigenvalues ---    0.01597   0.01619   0.01657   0.01730   0.01790
     Eigenvalues ---    0.01799   0.01839   0.01862   0.01998   0.02110
     Eigenvalues ---    0.02168   0.02297   0.02555   0.02608   0.02760
     Eigenvalues ---    0.02785   0.02840   0.02858   0.02908   0.03053
     Eigenvalues ---    0.10784   0.10988   0.11042   0.11224   0.11656
     Eigenvalues ---    0.12103   0.12523   0.13463   0.13548   0.15286
     Eigenvalues ---    0.15316   0.16006   0.17694   0.17990   0.18259
     Eigenvalues ---    0.19063   0.19347   0.19777   0.20377   0.20652
     Eigenvalues ---    0.22661   0.22759   0.23893   0.25828   0.32365
     Eigenvalues ---    0.33337   0.34470   0.35650   0.35677   0.35861
     Eigenvalues ---    0.36017   0.36089   0.36211   0.36465   0.37576
     Eigenvalues ---    0.39723   0.41158   0.41566   0.43984   0.45246
     Eigenvalues ---    0.45387   0.45544   0.45960   0.45963   0.46200
     Eigenvalues ---    0.47271   0.47766   0.47935   0.48085   0.49559
     Eigenvalues ---    0.49936   0.52431   0.53363
 RFO step:  Lambda=-6.11600418D-03 EMin= 1.17615974D-03
 Linear search not attempted -- first point.
 Iteration  1 RMS(Cart)=  0.08842158 RMS(Int)=  0.00175774
 Iteration  2 RMS(Cart)=  0.00284813 RMS(Int)=  0.00035740
 Iteration  3 RMS(Cart)=  0.00000267 RMS(Int)=  0.00035740
 Iteration  4 RMS(Cart)=  0.00000000 RMS(Int)=  0.00035740
 Variable       Old X    -DE/DX   Delta X   Delta X   Delta X     New X
                                 (Linear)    (Quad)   (Total)
    R1        2.58419   0.00017   0.00000  -0.00703  -0.00703   2.57716
    R2        1.84317  -0.00339   0.00000  -0.00654  -0.00654   1.83663
    R3        2.62974   0.00301   0.00000   0.00399   0.00396   2.63371
    R4        2.63462   0.00550   0.00000   0.01595   0.01586   2.65048
    R5        2.64177   0.00626   0.00000   0.01343   0.01349   2.65526
    R6        2.05164   0.00004   0.00000   0.00025   0.00025   2.05189
    R7        2.64639   0.00062   0.00000  -0.00440  -0.00440   2.64199
    R8        2.64627   0.00660   0.00000   0.01364   0.01372   2.65999
    R9        1.91941  -0.00318   0.00000  -0.00647  -0.00647   1.91294
   R10        1.91802  -0.00263   0.00000  -0.00495  -0.00495   1.91308
   R11        2.64310  -0.00321   0.00000  -0.00855  -0.00853   2.63457
   R12        2.05411  -0.00043   0.00000  -0.00201  -0.00201   2.05210
   R13        2.63459   0.00084   0.00000  -0.00559  -0.00565   2.62894
   R14        2.05221  -0.00095   0.00000  -0.00110  -0.00110   2.05112
   R15        2.60051   0.01543   0.00000   0.03149   0.03149   2.63200
   R16        2.60093   0.01588   0.00000   0.03385   0.03385   2.63478
   R17        2.63667   0.00107   0.00000   0.00111   0.00097   2.63764
   R18        2.63264   0.00233   0.00000   0.00178   0.00166   2.63429
   R19        2.64196  -0.00292   0.00000  -0.00888  -0.00889   2.63307
   R20        2.05332  -0.00114   0.00000  -0.00306  -0.00306   2.05027
   R21        2.64146   0.00769   0.00000   0.01624   0.01636   2.65782
   R22        2.05386  -0.00024   0.00000  -0.00024  -0.00024   2.05362
   R23        2.64401   0.00324   0.00000   0.00030   0.00030   2.64431
   R24        2.64117   0.00703   0.00000   0.01518   0.01531   2.65648
   R25        1.91822  -0.00268   0.00000  -0.00496  -0.00496   1.91326
   R26        1.91852  -0.00279   0.00000  -0.00523  -0.00523   1.91329
   R27        2.64106  -0.00220   0.00000  -0.00756  -0.00755   2.63351
   R28        2.05355  -0.00008   0.00000  -0.00004  -0.00004   2.05351
   R29        2.05284  -0.00082   0.00000  -0.00181  -0.00181   2.05103
    A1        1.85648   0.00230   0.00000   0.00527   0.00527   1.86175
    A2        2.06303   0.00470   0.00000   0.02281   0.02281   2.08583
    A3        2.11315  -0.00306   0.00000  -0.01278  -0.01278   2.10037
    A4        2.10687  -0.00163   0.00000  -0.00971  -0.00989   2.09698
    A5        2.09636   0.00051   0.00000   0.00347   0.00348   2.09984
    A6        2.08045  -0.00118   0.00000  -0.00537  -0.00539   2.07506
    A7        2.10636   0.00067   0.00000   0.00194   0.00192   2.10828
    A8        2.09883   0.00018   0.00000   0.00213   0.00061   2.09944
    A9        2.07503  -0.00092   0.00000   0.00374   0.00243   2.07746
   A10        2.09540   0.00127   0.00000   0.00958   0.00811   2.10351
   A11        1.98417   0.00252   0.00000   0.01332   0.01333   1.99750
   A12        1.98957   0.00108   0.00000   0.00521   0.00522   1.99478
   A13        1.96070  -0.00328   0.00000  -0.02770  -0.02768   1.93301
   A14        2.10999  -0.00128   0.00000  -0.00878  -0.00870   2.10130
   A15        2.09649  -0.00052   0.00000  -0.00585  -0.00589   2.09060
   A16        2.07669   0.00180   0.00000   0.01462   0.01457   2.09126
   A17        2.08641   0.00383   0.00000   0.01238   0.01233   2.09874
   A18        2.08934   0.00007   0.00000   0.01039   0.01041   2.09976
   A19        2.10738  -0.00389   0.00000  -0.02272  -0.02270   2.08469
   A20        2.08894  -0.00038   0.00000   0.00315   0.00292   2.09186
   A21        2.05713  -0.00636   0.00000  -0.03181  -0.03177   2.02535
   A22        2.13627   0.00671   0.00000   0.02780   0.02779   2.16406
   A23        2.04306   0.01009   0.00000   0.02676   0.02676   2.06982
   A24        2.14711  -0.00215   0.00000  -0.00554  -0.00541   2.14170
   A25        2.04031   0.00286   0.00000   0.00594   0.00607   2.04638
   A26        2.09316  -0.00067   0.00000   0.00082   0.00041   2.09357
   A27        2.08981   0.00121   0.00000   0.00185   0.00154   2.09135
   A28        2.11075  -0.00230   0.00000  -0.01393  -0.01387   2.09688
   A29        2.08242   0.00110   0.00000   0.01247   0.01254   2.09496
   A30        2.10833   0.00124   0.00000   0.00496   0.00497   2.11330
   A31        2.07629   0.00037   0.00000   0.00711   0.00710   2.08339
   A32        2.09855  -0.00161   0.00000  -0.01207  -0.01208   2.08648
   A33        2.09807   0.00200   0.00000   0.01248   0.01078   2.10886
   A34        2.07129  -0.00359   0.00000  -0.00738  -0.00890   2.06239
   A35        2.09818   0.00219   0.00000   0.01237   0.01068   2.10886
   A36        1.98875   0.00170   0.00000   0.00520   0.00520   1.99394
   A37        1.98773   0.00194   0.00000   0.00769   0.00768   1.99541
   A38        1.96011  -0.00337   0.00000  -0.02961  -0.02962   1.93049
   A39        2.10679   0.00032   0.00000   0.00245   0.00248   2.10927
   A40        2.09848  -0.00130   0.00000  -0.01105  -0.01108   2.08739
   A41        2.07791   0.00098   0.00000   0.00862   0.00859   2.08651
   A42        2.09269   0.00168   0.00000   0.00371   0.00349   2.09618
   A43        2.09765  -0.00262   0.00000  -0.01553  -0.01542   2.08223
   A44        2.09280   0.00094   0.00000   0.01186   0.01196   2.10476
    D1        3.13873  -0.00009   0.00000   0.00458   0.00456  -3.13989
    D2        0.01491  -0.00054   0.00000  -0.01598  -0.01596  -0.00105
    D3        3.11043   0.00072   0.00000   0.02269   0.02262   3.13305
    D4       -0.02572   0.00059   0.00000   0.01517   0.01499  -0.01074
    D5       -0.04887   0.00115   0.00000   0.04314   0.04308  -0.00580
    D6        3.09816   0.00102   0.00000   0.03562   0.03544   3.13360
    D7        3.14146   0.00036   0.00000   0.00871   0.00836  -3.13337
    D8       -0.04332  -0.00035   0.00000  -0.01232  -0.01221  -0.05553
    D9        0.01809  -0.00016   0.00000  -0.01269  -0.01263   0.00546
   D10        3.11649  -0.00087   0.00000  -0.03373  -0.03319   3.08330
   D11        3.04072   0.00150   0.00000   0.03489   0.03449   3.07520
   D12        0.07749  -0.00197   0.00000  -0.06414  -0.06439   0.01310
   D13       -0.10640   0.00163   0.00000   0.04251   0.04225  -0.06415
   D14       -3.06963  -0.00185   0.00000  -0.05653  -0.05663  -3.12625
   D15        0.50858  -0.00091   0.00000  -0.03171  -0.03180   0.47678
   D16        2.78637  -0.00222   0.00000  -0.05421  -0.05431   2.73207
   D17       -2.81346   0.00238   0.00000   0.06787   0.06797  -2.74550
   D18       -0.53567   0.00107   0.00000   0.04537   0.04546  -0.49021
   D19       -0.07733   0.00188   0.00000   0.05715   0.05702  -0.02031
   D20        3.06978   0.00200   0.00000   0.05901   0.05908   3.12886
   D21       -3.04092  -0.00148   0.00000  -0.04091  -0.04130  -3.08222
   D22        0.10619  -0.00135   0.00000  -0.03905  -0.03924   0.06695
   D23        0.04746  -0.00078   0.00000  -0.02728  -0.02721   0.02024
   D24       -3.10441  -0.00050   0.00000  -0.02072  -0.02045  -3.12487
   D25       -3.09959  -0.00091   0.00000  -0.02918  -0.02933  -3.12892
   D26        0.03172  -0.00063   0.00000  -0.02261  -0.02258   0.00915
   D27       -0.01710  -0.00008   0.00000   0.00437   0.00444  -0.01267
   D28       -3.11347   0.00101   0.00000   0.02796   0.02831  -3.08517
   D29        3.13487  -0.00039   0.00000  -0.00247  -0.00246   3.13241
   D30        0.03850   0.00070   0.00000   0.02112   0.02141   0.05991
   D31        2.25107   0.00015   0.00000   0.01878   0.01873   2.26980
   D32       -0.93497  -0.00078   0.00000  -0.00357  -0.00352  -0.93849
   D33       -0.79370   0.00075   0.00000   0.06610   0.06611  -0.72759
   D34        2.42567   0.00018   0.00000   0.04785   0.04784   2.47352
   D35       -3.10552   0.00009   0.00000   0.01094   0.01102  -3.09450
   D36        0.01424   0.00063   0.00000   0.03178   0.03172   0.04596
   D37       -0.04397   0.00083   0.00000   0.02993   0.02999  -0.01398
   D38        3.07579   0.00137   0.00000   0.05076   0.05069   3.12648
   D39        3.11038  -0.00060   0.00000  -0.01998  -0.01997   3.09041
   D40       -0.02141  -0.00058   0.00000  -0.02442  -0.02442  -0.04583
   D41        0.04404  -0.00107   0.00000  -0.03732  -0.03742   0.00661
   D42       -3.08775  -0.00106   0.00000  -0.04177  -0.04187  -3.12962
   D43       -0.02332   0.00069   0.00000   0.02396   0.02408   0.00076
   D44        3.11298   0.00071   0.00000   0.02331   0.02340   3.13637
   D45        3.13974   0.00020   0.00000   0.00379   0.00374  -3.13970
   D46       -0.00714   0.00022   0.00000   0.00314   0.00306  -0.00409
   D47        3.04185   0.00166   0.00000   0.03575   0.03552   3.07737
   D48        0.08895  -0.00214   0.00000  -0.06978  -0.06962   0.01933
   D49       -0.09439   0.00162   0.00000   0.03635   0.03615  -0.05824
   D50       -3.04728  -0.00217   0.00000  -0.06918  -0.06899  -3.11627
   D51        2.80423  -0.00228   0.00000  -0.06514  -0.06554   2.73869
   D52        0.52465  -0.00087   0.00000  -0.03440  -0.03481   0.48984
   D53       -0.52898   0.00095   0.00000   0.03988   0.04029  -0.48869
   D54       -2.80856   0.00235   0.00000   0.07063   0.07102  -2.73754
   D55       -0.08888   0.00193   0.00000   0.06236   0.06212  -0.02675
   D56        3.04923   0.00225   0.00000   0.07221   0.07190   3.12113
   D57       -3.04176  -0.00184   0.00000  -0.04319  -0.04303  -3.08479
   D58        0.09634  -0.00153   0.00000  -0.03335  -0.03325   0.06309
   D59        0.02323  -0.00018   0.00000  -0.00900  -0.00910   0.01414
   D60       -3.12814  -0.00022   0.00000  -0.00472  -0.00475  -3.13288
   D61       -3.11491  -0.00049   0.00000  -0.01869  -0.01883  -3.13374
   D62        0.01690  -0.00053   0.00000  -0.01441  -0.01448   0.00242
         Item               Value     Threshold  Converged?
 Maximum Force            0.015879     0.000450     NO 
 RMS     Force            0.003064     0.000300     NO 
 Maximum Displacement     0.313774     0.001800     NO 
 RMS     Displacement     0.087851     0.001200     NO 
 Predicted change in Energy=-3.382340D-03
 GradGradGradGradGradGradGradGradGradGradGradGradGradGradGradGradGradGrad

                          Input orientation:                          
 ---------------------------------------------------------------------
 Center     Atomic      Atomic             Coordinates (Angstroms)
 Number     Number       Type             X           Y           Z
 ---------------------------------------------------------------------
      1          8           0       -2.138315    2.282379    1.101843
      2          6           0       -2.239480    0.970180    0.744384
      3          6           0       -3.268457    0.192283    1.272091
      4          6           0       -3.394641   -1.158784    0.907377
      5          7           0       -4.377685   -1.959397    1.496676
      6          6           0       -2.458598   -1.715933    0.015881
      7          6           0       -1.436455   -0.930684   -0.515417
      8          6           0       -1.317912    0.406424   -0.150102
      9          8           0       -0.369079    1.277323   -0.680323
     10          6           0        0.974863    0.909160   -0.632801
     11          6           0        1.552680    0.306282    0.485621
     12          6           0        2.915092    0.014265    0.489198
     13          6           0        3.725705    0.317887   -0.619336
     14          7           0        5.106259    0.092732   -0.581310
     15          6           0        3.128609    0.947192   -1.725491
     16          6           0        1.764530    1.232315   -1.735187
     17          1           0       -1.367782    2.641136    0.630494
     18          1           0       -3.966012    0.647554    1.968608
     19          1           0       -5.194679   -1.453534    1.815018
     20          1           0       -4.646621   -2.763551    0.943616
     21          1           0       -2.537566   -2.761931   -0.264978
     22          1           0       -0.724711   -1.357846   -1.214742
     23          1           0        0.943617    0.066252    1.350811
     24          1           0        3.358217   -0.450701    1.365800
     25          1           0        5.535416   -0.013500   -1.492133
     26          1           0        5.389567   -0.658191    0.035902
     27          1           0        3.737079    1.209649   -2.586729
     28          1           0        1.306359    1.711043   -2.594780
 ---------------------------------------------------------------------
                    Distance matrix (angstroms):
                    1          2          3          4          5
     1  O    0.000000
     2  C    1.363773   0.000000
     3  C    2.382164   1.393698   0.000000
     4  C    3.668484   2.427644   1.405105   0.000000
     5  N    4.812830   3.704091   2.431163   1.398081   0.000000
     6  C    4.155526   2.791762   2.423886   1.407606   2.436169
     7  C    3.664957   2.417692   2.795080   2.431227   3.709124
     8  C    2.399924   1.402574   2.423452   2.807302   4.203713
     9  O    2.704894   2.371187   3.660004   4.196360   5.593264
    10  C    3.819240   3.497479   4.706197   5.073569   6.435298
    11  C    4.231800   3.858522   4.886194   5.176899   6.428434
    12  C    5.572844   5.248666   6.235454   6.431457   7.622004
    13  C    6.419378   6.153751   7.246487   7.430393   8.679197
    14  N    7.753155   7.515801   8.577930   8.720538   9.923430
    15  C    6.125114   5.909076   7.104776   7.343018   8.670356
    16  C    4.937973   4.716893   5.954523   6.270370   7.639291
    17  H    0.971904   1.888100   3.165611   4.315578   5.565491
    18  H    2.600848   2.140964   1.085813   2.171528   2.681117
    19  H    4.879244   3.969112   2.591103   2.037358   1.012284
    20  H    5.637202   4.446883   3.277833   2.035693   1.012356
    21  H    5.241437   3.877670   3.409423   2.163117   2.670866
    22  H    4.540493   3.398883   3.880449   3.416363   4.588885
    23  H    3.804143   3.364067   4.214695   4.529661   5.695681
    24  H    6.144205   5.808551   6.658454   6.805338   7.882732
    25  H    8.419377   8.149763   9.229922   9.317470  10.535135
    26  H    8.151821   7.833000   8.787084   8.841514   9.961235
    27  H    7.019727   6.846380   8.062448   8.287321   9.621146
    28  H    5.085000   4.926649   6.179666   6.526900   7.906991
                    6          7          8          9         10
     6  C    0.000000
     7  C    1.394156   0.000000
     8  C    2.415185   1.391174   0.000000
     9  O    3.716231   2.458003   1.392797   0.000000
    10  C    4.370419   3.035336   2.396363   1.394268   0.000000
    11  C    4.516677   3.386310   2.941848   2.448572   1.395780
    12  C    5.665171   4.564881   4.298932   3.707948   2.413339
    13  C    6.541065   5.312027   5.066171   4.206126   2.813701
    14  N    7.800960   6.622600   6.446264   5.602891   4.211608
    15  C    6.429735   5.082372   4.748244   3.665403   2.415375
    16  C    5.439965   4.051260   3.563150   2.380557   1.394008
    17  H    4.533396   3.751763   2.367647   2.139073   3.175475
    18  H    3.416359   3.880705   3.399928   4.511250   5.589992
    19  H    3.285100   4.452925   4.727628   6.080355   7.045381
    20  H    2.597237   3.974084   4.724962   6.104360   6.897462
    21  H    1.085923   2.151425   3.396944   4.603305   5.094052
    22  H    2.156160   1.085404   2.144293   2.712230   2.892494
    23  H    4.066115   3.184561   2.735502   2.704694   2.155501
    24  H    6.103969   5.172837   4.989870   4.589708   3.394702
    25  H    8.311237   7.099450   6.996105   6.098223   4.731638
    26  H    7.919149   6.853669   6.793988   6.117287   4.732162
    27  H    7.329327   5.969658   5.668796   4.527637   3.396758
    28  H    5.721419   4.338837   3.816449   2.580766   2.145290
                   11         12         13         14         15
    11  C    0.000000
    12  C    1.393360   0.000000
    13  C    2.437848   1.406460   0.000000
    14  N    3.716433   2.439951   1.399311   0.000000
    15  C    2.789863   2.412632   1.405748   2.439335   0.000000
    16  C    2.415452   2.784839   2.434648   3.714463   1.393592
    17  H    3.741875   5.026273   5.736128   7.062297   5.351414
    18  H    5.724656   7.066775   8.122109   9.440128   8.004361
    19  H    7.098669   8.347491   9.414736  10.688436   9.358194
    20  H    6.932891   8.068597   9.057258  10.276304   9.019310
    21  H    5.167925   6.165024   6.988520   8.165613   6.927931
    22  H    3.293489   4.246677   4.792577   6.041989   4.519086
    23  H    1.084954   2.152160   3.418305   4.589268   3.874774
    24  H    2.146556   1.086731   2.160218   2.672491   3.400427
    25  H    4.458246   3.285201   2.036331   1.012452   2.601943
    26  H    3.981728   2.603978   2.037278   1.012471   3.285071
    27  H    3.876468   3.400873   2.160093   2.672801   1.086669
    28  H    3.394540   3.870143   3.420015   4.594805   2.158640
                   16         17         18         19         20
    16  C    0.000000
    17  H    4.170444   0.000000
    18  H    6.848296   3.537756   0.000000
    19  H    8.261255   5.728399   2.438808   0.000000
    20  H    8.015347   6.329255   3.626220   1.666089   0.000000
    21  H    6.051739   5.600303   4.319023   3.619191   2.430806
    22  H    3.629892   4.450875   4.966022   5.400853   4.692110
    23  H    3.399556   3.534324   4.982374   6.340656   6.278882
    24  H    3.871499   5.695190   7.430604   8.623195   8.342958
    25  H    3.978782   7.694594  10.133650  11.320154  10.824488
    26  H    4.455520   7.543266   9.641949  10.762160  10.294734
    27  H    2.148624   6.201555   8.966864  10.307484   9.926534
    28  H    1.085358   4.291678   7.053611   8.469024   8.245012
                   21         22         23         24         25
    21  H    0.000000
    22  H    2.481924   0.000000
    23  H    4.767392   3.375416   0.000000
    24  H    6.539226   4.914510   2.469364   0.000000
    25  H    8.615847   6.408854   5.401232   3.619271   0.000000
    26  H    8.207051   6.279970   4.692576   2.436815   1.664869
    27  H    7.780433   5.327471   4.961351   4.303810   2.434800
    28  H    6.341233   3.930373   4.290060   4.956759   4.698383
                   26         27         28
    26  H    0.000000
    27  H    3.619079   0.000000
    28  H    5.404289   2.481907   0.000000
 Stoichiometry    C12H12N2O2
 Framework group  C1[X(C12H12N2O2)]
 Deg. of freedom    78
 Full point group                 C1      NOp   1
 Largest Abelian subgroup         C1      NOp   1
 Largest concise Abelian subgroup C1      NOp   1
                         Standard orientation:                         
 ---------------------------------------------------------------------
 Center     Atomic      Atomic             Coordinates (Angstroms)
 Number     Number       Type             X           Y           Z
 ---------------------------------------------------------------------
      1          8           0        1.876610    2.344627   -0.809008
      2          6           0        2.089601    1.092991   -0.311092
[...]
    17    C    2  S      Val( 2S)     0.83379
    18    C    2  S      Ryd( 3S)     0.00145
    19    C    2  S      Ryd( 4S)     0.00016
    20    C    2  px     Val( 2p)     1.05678
    21    C    2  px     Ryd( 3p)     0.00419
    22    C    2  py     Val( 2p)     0.81921
    23    C    2  py     Ryd( 3p)     0.00658
    24    C    2  pz     Val( 2p)     0.96542
    25    C    2  pz     Ryd( 3p)     0.00432
    26    C    2  dxy    Ryd( 3d)     0.00127
    27    C    2  dxz    Ryd( 3d)     0.00097
    28    C    2  dyz    Ryd( 3d)     0.00150
    29    C    2  dx2y2  Ryd( 3d)     0.00167
    30    C    2  dz2    Ryd( 3d)     0.00120

    31    C    3  S      Cor( 1S)     1.99897
    32    C    3  S      Val( 2S)     0.95415
    33    C    3  S      Ryd( 3S)     0.00078
    34    C    3  S      Ryd( 4S)     0.00005
    35    C    3  px     Val( 2p)     1.13002
    36    C    3  px     Ryd( 3p)     0.00383
    37    C    3  py     Val( 2p)     1.10524
    38    C    3  py     Ryd( 3p)     0.00415
    39    C    3  pz     Val( 2p)     1.16756
    40    C    3  pz     Ryd( 3p)     0.00338
    41    C    3  dxy    Ryd( 3d)     0.00050
    42    C    3  dxz    Ryd( 3d)     0.00047
    43    C    3  dyz    Ryd( 3d)     0.00046
    44    C    3  dx2y2  Ryd( 3d)     0.00051
    45    C    3  dz2    Ryd( 3d)     0.00043

    46    C    4  S      Cor( 1S)     1.99900
    47    C    4  S      Val( 2S)     0.84858
    48    C    4  S      Ryd( 3S)     0.00109
    49    C    4  S      Ryd( 4S)     0.00010
    50    C    4  px     Val( 2p)     0.92997
    51    C    4  px     Ryd( 3p)     0.00456
    52    C    4  py     Val( 2p)     1.02063
    53    C    4  py     Ryd( 3p)     0.00410
    54    C    4  pz     Val( 2p)     0.98712
    55    C    4  pz     Ryd( 3p)     0.00248
    56    C    4  dxy    Ryd( 3d)     0.00110
    57    C    4  dxz    Ryd( 3d)     0.00110
    58    C    4  dyz    Ryd( 3d)     0.00080
    59    C    4  dx2y2  Ryd( 3d)     0.00114
    60    C    4  dz2    Ryd( 3d)     0.00085

    61    N    5  S      Cor( 1S)     1.99950
    62    N    5  S      Val( 2S)     1.36815
    63    N    5  S      Ryd( 3S)     0.00012
    64    N    5  S      Ryd( 4S)     0.00001
    65    N    5  px     Val( 2p)     1.32590
    66    N    5  px     Ryd( 3p)     0.00217
    67    N    5  py     Val( 2p)     1.49331
    68    N    5  py     Ryd( 3p)     0.00252
    69    N    5  pz     Val( 2p)     1.60850
    70    N    5  pz     Ryd( 3p)     0.00304
    71    N    5  dxy    Ryd( 3d)     0.00082
    72    N    5  dxz    Ryd( 3d)     0.00047
    73    N    5  dyz    Ryd( 3d)     0.00100
    74    N    5  dx2y2  Ryd( 3d)     0.00029
    75    N    5  dz2    Ryd( 3d)     0.00079

    76    C    6  S      Cor( 1S)     1.99905
    77    C    6  S      Val( 2S)     0.95407
    78    C    6  S      Ryd( 3S)     0.00060
    79    C    6  S      Ryd( 4S)     0.00003
    80    C    6  px     Val( 2p)     1.06432
    81    C    6  px     Ryd( 3p)     0.00413
    82    C    6  py     Val( 2p)     1.17367
    83    C    6  py     Ryd( 3p)     0.00381
    84    C    6  pz     Val( 2p)     1.09897
    85    C    6  pz     Ryd( 3p)     0.00313
    86    C    6  dxy    Ryd( 3d)     0.00058
    87    C    6  dxz    Ryd( 3d)     0.00049
    88    C    6  dyz    Ryd( 3d)     0.00048
    89    C    6  dx2y2  Ryd( 3d)     0.00054
    90    C    6  dz2    Ryd( 3d)     0.00040

    91    C    7  S      Cor( 1S)     1.99902
    92    C    7  S      Val( 2S)     0.96119
    93    C    7  S      Ryd( 3S)     0.00082
    94    C    7  S      Ryd( 4S)     0.00005
    95    C    7  px     Val( 2p)     1.13377
    96    C    7  px     Ryd( 3p)     0.00478
    97    C    7  py     Val( 2p)     1.08049
    98    C    7  py     Ryd( 3p)     0.00456
    99    C    7  pz     Val( 2p)     1.10388
   100    C    7  pz     Ryd( 3p)     0.00372
   101    C    7  dxy    Ryd( 3d)     0.00046
   102    C    7  dxz    Ryd( 3d)     0.00064
   103    C    7  dyz    Ryd( 3d)     0.00055
   104    C    7  dx2y2  Ryd( 3d)     0.00066
   105    C    7  dz2    Ryd( 3d)     0.00040

   106    C    8  S      Cor( 1S)     1.99864
   107    C    8  S      Val( 2S)     0.84072
   108    C    8  S      Ryd( 3S)     0.00129
   109    C    8  S      Ryd( 4S)     0.00017
   110    C    8  px     Val( 2p)     0.81911
   111    C    8  px     Ryd( 3p)     0.00535
   112    C    8  py     Val( 2p)     1.02313
   113    C    8  py     Ryd( 3p)     0.00561
   114    C    8  pz     Val( 2p)     1.05828
   115    C    8  pz     Ryd( 3p)     0.00333
   116    C    8  dxy    Ryd( 3d)     0.00157
   117    C    8  dxz    Ryd( 3d)     0.00118
   118    C    8  dyz    Ryd( 3d)     0.00073
   119    C    8  dx2y2  Ryd( 3d)     0.00122
   120    C    8  dz2    Ryd( 3d)     0.00099

   121    O    9  S      Cor( 1S)     1.99972
   122    O    9  S      Val( 2S)     1.58265
   123    O    9  S      Ryd( 3S)     0.00070
   124    O    9  S      Ryd( 4S)     0.00013
   125    O    9  px     Val( 2p)     1.38570
   126    O    9  px     Ryd( 3p)     0.00060
   127    O    9  py     Val( 2p)     1.74865
   128    O    9  py     Ryd( 3p)     0.00227
   129    O    9  pz     Val( 2p)     1.75449
   130    O    9  pz     Ryd( 3p)     0.00266
   131    O    9  dxy    Ryd( 3d)     0.00112
   132    O    9  dxz    Ryd( 3d)     0.00059
   133    O    9  dyz    Ryd( 3d)     0.00126
   134    O    9  dx2y2  Ryd( 3d)     0.00116
   135    O    9  dz2    Ryd( 3d)     0.00104

   136    C   10  S      Cor( 1S)     1.99868
   137    C   10  S      Val( 2S)     0.84316
   138    C   10  S      Ryd( 3S)     0.00127
   139    C   10  S      Ryd( 4S)     0.00013
   140    C   10  px     Val( 2p)     0.79768
   141    C   10  px     Ryd( 3p)     0.00498
   142    C   10  py     Val( 2p)     0.99768
   143    C   10  py     Ryd( 3p)     0.00514
   144    C   10  pz     Val( 2p)     1.02016
   145    C   10  pz     Ryd( 3p)     0.00412
   146    C   10  dxy    Ryd( 3d)     0.00158
   147    C   10  dxz    Ryd( 3d)     0.00150
   148    C   10  dyz    Ryd( 3d)     0.00053
   149    C   10  dx2y2  Ryd( 3d)     0.00125
   150    C   10  dz2    Ryd( 3d)     0.00141

   151    C   11  S      Cor( 1S)     1.99902
   152    C   11  S      Val( 2S)     0.95160
   153    C   11  S      Ryd( 3S)     0.00071
   154    C   11  S      Ryd( 4S)     0.00004
   155    C   11  px     Val( 2p)     1.16380
   156    C   11  px     Ryd( 3p)     0.00362
   157    C   11  py     Val( 2p)     1.11918
   158    C   11  py     Ryd( 3p)     0.00585
   159    C   11  pz     Val( 2p)     1.13320
   160    C   11  pz     Ryd( 3p)     0.00538
   161    C   11  dxy    Ryd( 3d)     0.00048
   162    C   11  dxz    Ryd( 3d)     0.00059
   163    C   11  dyz    Ryd( 3d)     0.00046
   164    C   11  dx2y2  Ryd( 3d)     0.00059
   165    C   11  dz2    Ryd( 3d)     0.00049

   166    C   12  S      Cor( 1S)     1.99906
   167    C   12  S      Val( 2S)     0.94448
   168    C   12  S      Ryd( 3S)     0.00069
   169    C   12  S      Ryd( 4S)     0.00004
   170    C   12  px     Val( 2p)     1.05271
   171    C   12  px     Ryd( 3p)     0.00480
   172    C   12  py     Val( 2p)     1.16761
   173    C   12  py     Ryd( 3p)     0.00511
   174    C   12  pz     Val( 2p)     1.17317
   175    C   12  pz     Ryd( 3p)     0.00483
   176    C   12  dxy    Ryd( 3d)     0.00056
   177    C   12  dxz    Ryd( 3d)     0.00059
   178    C   12  dyz    Ryd( 3d)     0.00050
   179    C   12  dx2y2  Ryd( 3d)     0.00047
   180    C   12  dz2    Ryd( 3d)     0.00037

   181    C   13  S      Cor( 1S)     1.99897
   182    C   13  S      Val( 2S)     0.85082
   183    C   13  S      Ryd( 3S)     0.00118
   184    C   13  S      Ryd( 4S)     0.00009
   185    C   13  px     Val( 2p)     0.93007
   186    C   13  px     Ryd( 3p)     0.00545
   187    C   13  py     Val( 2p)     0.99796
   188    C   13  py     Ryd( 3p)     0.00267
   189    C   13  pz     Val( 2p)     1.01824
   190    C   13  pz     Ryd( 3p)     0.00329
   191    C   13  dxy    Ryd( 3d)     0.00116
   192    C   13  dxz    Ryd( 3d)     0.00119
   193    C   13  dyz    Ryd( 3d)     0.00046
   194    C   13  dx2y2  Ryd( 3d)     0.00110
   195    C   13  dz2    Ryd( 3d)     0.00120

   196    N   14  S      Cor( 1S)     1.99949
   197    N   14  S      Val( 2S)     1.37431
   198    N   14  S      Ryd( 3S)     0.00011
   199    N   14  S      Ryd( 4S)     0.00001
   200    N   14  px     Val( 2p)     1.36096
   201    N   14  px     Ryd( 3p)     0.00234
   202    N   14  py     Val( 2p)     1.49285
   203    N   14  py     Ryd( 3p)     0.00247
   204    N   14  pz     Val( 2p)     1.53432
   205    N   14  pz     Ryd( 3p)     0.00272
   206    N   14  dxy    Ryd( 3d)     0.00042
   207    N   14  dxz    Ryd( 3d)     0.00099
   208    N   14  dyz    Ryd( 3d)     0.00053
   209    N   14  dx2y2  Ryd( 3d)     0.00084
   210    N   14  dz2    Ryd( 3d)     0.00061

   211    C   15  S      Cor( 1S)     1.99906
   212    C   15  S      Val( 2S)     0.94582
   213    C   15  S      Ryd( 3S)     0.00060
   214    C   15  S      Ryd( 4S)     0.00004
   215    C   15  px     Val( 2p)     1.15108
   216    C   15  px     Ryd( 3p)     0.00422
   217    C   15  py     Val( 2p)     1.11835
   218    C   15  py     Ryd( 3p)     0.00510
   219    C   15  pz     Val( 2p)     1.12928
   220    C   15  pz     Ryd( 3p)     0.00513
   221    C   15  dxy    Ryd( 3d)     0.00050
   222    C   15  dxz    Ryd( 3d)     0.00056
   223    C   15  dyz    Ryd( 3d)     0.00044
   224    C   15  dx2y2  Ryd( 3d)     0.00056
   225    C   15  dz2    Ryd( 3d)     0.00042

   226    C   16  S      Cor( 1S)     1.99904
   227    C   16  S      Val( 2S)     0.95263
   228    C   16  S      Ryd( 3S)     0.00079
   229    C   16  S      Ryd( 4S)     0.00004
   230    C   16  px     Val( 2p)     1.06127
   231    C   16  px     Ryd( 3p)     0.00530
   232    C   16  py     Val( 2p)     1.15989
   233    C   16  py     Ryd( 3p)     0.00481
   234    C   16  pz     Val( 2p)     1.15549
   235    C   16  pz     Ryd( 3p)     0.00483
   236    C   16  dxy    Ryd( 3d)     0.00064
   237    C   16  dxz    Ryd( 3d)     0.00068
   238    C   16  dyz    Ryd( 3d)     0.00049
   239    C   16  dx2y2  Ryd( 3d)     0.00045
   240    C   16  dz2    Ryd( 3d)     0.00038

   241    H   17  S      Val( 1S)     0.47968
   242    H   17  S      Ryd( 2S)     0.00213
   243    H   17  px     Ryd( 2p)     0.00117
   244    H   17  py     Ryd( 2p)     0.00065
   245    H   17  pz     Ryd( 2p)     0.00087

   246    H   18  S      Val( 1S)     0.74287
   247    H   18  S      Ryd( 2S)     0.00116
   248    H   18  px     Ryd( 2p)     0.00021
   249    H   18  py     Ryd( 2p)     0.00016
   250    H   18  pz     Ryd( 2p)     0.00024

   251    H   19  S      Val( 1S)     0.57438
   252    H   19  S      Ryd( 2S)     0.00124
   253    H   19  px     Ryd( 2p)     0.00043
   254    H   19  py     Ryd( 2p)     0.00042
   255    H   19  pz     Ryd( 2p)     0.00039

   256    H   20  S      Val( 1S)     0.57406
   257    H   20  S      Ryd( 2S)     0.00105
   258    H   20  px     Ryd( 2p)     0.00025
   259    H   20  py     Ryd( 2p)     0.00044
   260    H   20  pz     Ryd( 2p)     0.00056

   261    H   21  S      Val( 1S)     0.74732
   262    H   21  S      Ryd( 2S)     0.00083
   263    H   21  px     Ryd( 2p)     0.00008
   264    H   21  py     Ryd( 2p)     0.00035
   265    H   21  pz     Ryd( 2p)     0.00017

   266    H   22  S      Val( 1S)     0.73576
   267    H   22  S      Ryd( 2S)     0.00080
   268    H   22  px     Ryd( 2p)     0.00024
   269    H   22  py     Ryd( 2p)     0.00015
   270    H   22  pz     Ryd( 2p)     0.00024

   271    H   23  S      Val( 1S)     0.75279
   272    H   23  S      Ryd( 2S)     0.00087
   273    H   23  px     Ryd( 2p)     0.00029
   274    H   23  py     Ryd( 2p)     0.00018
   275    H   23  pz     Ryd( 2p)     0.00021

   276    H   24  S      Val( 1S)     0.76418
   277    H   24  S      Ryd( 2S)     0.00100
   278    H   24  px     Ryd( 2p)     0.00006
   279    H   24  py     Ryd( 2p)     0.00028
   280    H   24  pz     Ryd( 2p)     0.00030

   281    H   25  S      Val( 1S)     0.57689
   282    H   25  S      Ryd( 2S)     0.00165
   283    H   25  px     Ryd( 2p)     0.00041
   284    H   25  py     Ryd( 2p)     0.00030
   285    H   25  pz     Ryd( 2p)     0.00054

   286    H   26  S      Val( 1S)     0.57711
   287    H   26  S      Ryd( 2S)     0.00166
   288    H   26  px     Ryd( 2p)     0.00023
   289    H   26  py     Ryd( 2p)     0.00063
   290    H   26  pz     Ryd( 2p)     0.00039

   291    H   27  S      Val( 1S)     0.76431
   292    H   27  S      Ryd( 2S)     0.00097
   293    H   27  px     Ryd( 2p)     0.00027
   294    H   27  py     Ryd( 2p)     0.00017
   295    H   27  pz     Ryd( 2p)     0.00021

   296    H   28  S      Val( 1S)     0.75554
   297    H   28  S      Ryd( 2S)     0.00119
   298    H   28  px     Ryd( 2p)     0.00007
   299    H   28  py     Ryd( 2p)     0.00028
   300    H   28  pz     Ryd( 2p)     0.00028

 WARNING:  1 low occupancy (<1.9990e) core orbital  found on  C    2
           1 low occupancy (<1.9990e) core orbital  found on  C    3
           1 low occupancy (<1.9990e) core orbital  found on  C    8
           1 low occupancy (<1.9990e) core orbital  found on  C   10
           1 low occupancy (<1.9990e) core orbital  found on  C   13


 Summary of Natural Population Analysis:                  
                                                          
                                       Natural Population 
                Natural  -----------------------------------------------
    Atom  No    Charge         Core      Valence    Rydberg      Total
 -----------------------------------------------------------------------
      O    1   -0.69418      1.99979     6.68349    0.01090     8.69418
      C    2    0.30279      1.99871     3.67520    0.02330     5.69721
      C    3   -0.37050      1.99897     4.35697    0.01456     6.37050
      C    4    0.19739      1.99900     3.78630    0.01731     5.80261
      N    5   -0.80660      1.99950     5.79587    0.01124     7.80660
      C    6   -0.30428      1.99905     4.29103    0.01420     6.30428
      C    7   -0.29499      1.99902     4.27932    0.01664     6.29499
      C    8    0.23869      1.99864     3.74123    0.02144     5.76131
      O    9   -0.48274      1.99972     6.47149    0.01153     8.48274
      C   10    0.32073      1.99868     3.65868    0.02191     5.67927
      C   11   -0.38503      1.99902     4.36778    0.01822     6.38503
      C   12   -0.35499      1.99906     4.33796    0.01796     6.35499
      C   13    0.18616      1.99897     3.79709    0.01778     5.81384
      N   14   -0.77296      1.99949     5.76244    0.01104     7.77296
      C   15   -0.36117      1.99906     4.34453    0.01758     6.36117
      C   16   -0.34675      1.99904     4.32928    0.01842     6.34675
      H   17    0.51551      0.00000     0.47968    0.00481     0.48449
      H   18    0.25536      0.00000     0.74287    0.00177     0.74464
      H   19    0.42313      0.00000     0.57438    0.00249     0.57687
      H   20    0.42364      0.00000     0.57406    0.00230     0.57636
      H   21    0.25125      0.00000     0.74732    0.00143     0.74875
      H   22    0.26282      0.00000     0.73576    0.00142     0.73718
      H   23    0.24566      0.00000     0.75279    0.00155     0.75434
      H   24    0.23417      0.00000     0.76418    0.00165     0.76583
      H   25    0.42021      0.00000     0.57689    0.00290     0.57979
      H   26    0.41999      0.00000     0.57711    0.00291     0.58001
      H   27    0.23407      0.00000     0.76431    0.00162     0.76593
      H   28    0.24263      0.00000     0.75554    0.00183     0.75737
 =======================================================================
   * Total *   -0.00000     31.98572    81.72358    0.29071   114.00000

                                 Natural Population      
 --------------------------------------------------------
   Core                      31.98572 ( 99.9554% of  32)
   Valence                   81.72358 ( 99.6629% of  82)
   Natural Minimal Basis    113.70929 ( 99.7450% of 114)
   Natural Rydberg Basis      0.29071 (  0.2550% of 114)
 --------------------------------------------------------

    Atom  No          Natural Electron Configuration
 ----------------------------------------------------------------------------
      O    1      [core]2S( 1.66)2p( 5.02)3d( 0.01)
      C    2      [core]2S( 0.83)2p( 2.84)3p( 0.02)3d( 0.01)
      C    3      [core]2S( 0.95)2p( 3.40)3p( 0.01)
      C    4      [core]2S( 0.85)2p( 2.94)3p( 0.01)
      N    5      [core]2S( 1.37)2p( 4.43)3p( 0.01)
      C    6      [core]2S( 0.95)2p( 3.34)3p( 0.01)
      C    7      [core]2S( 0.96)2p( 3.32)3p( 0.01)
      C    8      [core]2S( 0.84)2p( 2.90)3p( 0.01)3d( 0.01)
      O    9      [core]2S( 1.58)2p( 4.89)3p( 0.01)3d( 0.01)
      C   10      [core]2S( 0.84)2p( 2.82)3p( 0.01)3d( 0.01)
      C   11      [core]2S( 0.95)2p( 3.42)3p( 0.01)
      C   12      [core]2S( 0.94)2p( 3.39)3p( 0.01)
      C   13      [core]2S( 0.85)2p( 2.95)3p( 0.01)3d( 0.01)
      N   14      [core]2S( 1.37)2p( 4.39)3p( 0.01)
      C   15      [core]2S( 0.95)2p( 3.40)3p( 0.01)
      C   16      [core]2S( 0.95)2p( 3.38)3p( 0.01)
      H   17            1S( 0.48)
      H   18            1S( 0.74)
      H   19            1S( 0.57)
      H   20            1S( 0.57)
      H   21            1S( 0.75)
      H   22            1S( 0.74)
      H   23            1S( 0.75)
      H   24            1S( 0.76)
      H   25            1S( 0.58)
      H   26            1S( 0.58)
      H   27            1S( 0.76)
      H   28            1S( 0.76)


 NBO analysis skipped by request.
 1\1\GINC-DRG2-W002\SP\RB3LYP TD-FC\6-31G(d,p)\C12H12N2O2\QDUEZ\18-Jul-
 2024\0\\# TD(NStates=10, Root=1) B3LYP/6-31G** SCRF=(Solvent=water) vo
 lume pop=NPA density=current Geom=AllCheck Guess=Read\\JTUXBPXZECVPKS-
 UHFFFAOYSA-N_conf_2\\0,1\O,0,-2.0404967787,2.2654092631,0.9956324813\C
 ,0,-2.1943860119,0.9462739683,0.6884064133\C,0,-3.224571716,0.21924705
 08,1.2830510922\C,0,-3.4020382916,-1.1405255135,0.9761060022\N,0,-4.38
 72350233,-1.8876856349,1.6263024325\C,0,-2.5328255119,-1.7527230847,0.
 0520895795\C,0,-1.5123567744,-1.0174347915,-0.5477200673\C,0,-1.332545
 518,0.3250028594,-0.2279099247\O,0,-0.387137348,1.145855913,-0.8411877
 593\C,0,0.9676076973,0.8351234131,-0.718937512\C,0,1.5035302151,0.1307
 435927,0.3596569171\C,0,2.8781623867,-0.0959792468,0.4240199589\C,0,3.
 7425970862,0.3804183905,-0.5764524557\N,0,5.1292455011,0.2092162541,-0
 .4720887961\C,0,3.1816735151,1.0928652603,-1.6516041507\C,0,1.80861428
 35,1.3138244195,-1.7241233416\H,0,-1.2973679822,2.5919918795,0.4611817
 19\H,0,-3.8817038189,0.7202322717,1.9874361083\H,0,-5.1733544663,-1.34
 63763633,1.9631515888\H,0,-4.7031732102,-2.7006876199,1.1126912813\H,0
 ,-2.66317985,-2.8015227882,-0.1972080237\H,0,-0.848466184,-1.486120625
 7,-1.2673835107\H,0,0.8552388499,-0.2458382835,1.1431198134\H,0,3.2874
 43713,-0.6476179581,1.2662740056\H,0,5.6143281704,0.2131719918,-1.3610
 692049\H,0,5.4056161871,-0.596652457,0.0753169206\H,0,3.8273273878,1.4
 717811583,-2.4393046131\H,0,1.3794534923,1.8580066813,-2.5594527069\\V
 ersion=ES64L-G16RevA.03\State=1-A\HF=-724.478703\RMSD=7.103e-09\Dipole
 =-0.7134824,-1.5815239,-0.1160137\Quadrupole=20.2089798,-7.8828116,-12
 .3261682,3.1758809,-6.8069382,-1.4048534\PG=C01 [X(C12H12N2O2)]\\@


 HE WHO LOVES TO READ, AND KNOWS HOW TO REFLECT,
 HAS LAID BY A PERPETUAL FEAST FOR HIS OLD AGE.
 -- UNCLE ESEK, "SCRIBNER'S MONTHLY", SEPT. 1880
 Job cpu time:       0 days  0 hours 45 minutes 18.1 seconds.
 Elapsed time:       0 days  0 hours 15 minutes 36.7 seconds.
 File lengths (MBytes):  RWF=    781 Int=      0 D2E=      0 Chk=     48 Scr=      1
 Normal termination of Gaussian 16 at Thu Jul 18 05:24:42 2024.
