 Entering Gaussian System, Link 0=g16
 Initial command:
 /opt/sw/arch/manual/gaussian/G16_A03/g16/l1.exe "/scratch/1381587/Gau-139929.inp" -scrdir="/scratch/1381587/"
 Entering Link 1 = /opt/sw/arch/manual/gaussian/G16_A03/g16/l1.exe PID=    139937.
  
 Copyright (c) 1988,1990,1992,1993,1995,1998,2003,2009,2016,
            Gaussian, Inc.  All Rights Reserved.
  
 This is part of the Gaussian(R) 16 program.  It is based on
 the Gaussian(R) 09 system (copyright 2009, Gaussian, Inc.),
 the Gaussian(R) 03 system (copyright 2003, Gaussian, Inc.),
 the Gaussian(R) 98 system (copyright 1998, Gaussian, Inc.),
 the Gaussian(R) 94 system (copyright 1995, Gaussian, Inc.),
 the Gaussian 92(TM) system (copyright 1992, Gaussian, Inc.),
 the Gaussian 90(TM) system (copyright 1990, Gaussian, Inc.),
 the Gaussian 88(TM) system (copyright 1988, Gaussian, Inc.),
 the Gaussian 86(TM) system (copyright 1986, Carnegie Mellon
 University), and the Gaussian 82(TM) system (copyright 1983,
 Carnegie Mellon University). Gaussian is a federally registered
 trademark of Gaussian, Inc.
  
 This software contains proprietary and confidential information,
 including trade secrets, belonging to Gaussian, Inc.
  
 This software is provided under written license and may be
 used, copied, transmitted, or stored only in accord with that
 written license.
  
 The following legend is applicable only to US Government
 contracts under FAR:
  
                    RESTRICTED RIGHTS LEGEND
  
 Use, reproduction and disclosure by the US Government is
 subject to restrictions as set forth in subparagraphs (a)
 and (c) of the Commercial Computer Software - Restricted
 Rights clause in FAR 52.227-19.
  
 Gaussian, Inc.
 340 Quinnipiac St., Bldg. 40, Wallingford CT 06492
  
  
 ---------------------------------------------------------------
 Warning -- This program may not be used in any manner that
 competes with the business of Gaussian, Inc. or will provide
 assistance to any competitor of Gaussian, Inc.  The licensee
 of this program is prohibited from giving any competitor of
 Gaussian, Inc. access to this program.  By using this program,
 the user acknowledges that Gaussian, Inc. is engaged in the
 business of creating and licensing software in the field of
 computational chemistry and represents and warrants to the
 licensee that it is not a competitor of Gaussian, Inc. and that
 it will not use this program in any manner prohibited above.
 ---------------------------------------------------------------
  

 Cite this work as:
 Gaussian 16, Revision A.03,
 M. J. Frisch, G. W. Trucks, H. B. Schlegel, G. E. Scuseria, 
 M. A. Robb, J. R. Cheeseman, G. Scalmani, V. Barone, 
 G. A. Petersson, H. Nakatsuji, X. Li, M. Caricato, A. V. Marenich, 
 J. Bloino, B. G. Janesko, R. Gomperts, B. Mennucci, H. P. Hratchian, 
 J. V. Ortiz, A. F. Izmaylov, J. L. Sonnenberg, D. Williams-Young, 
 F. Ding, F. Lipparini, F. Egidi, J. Goings, B. Peng, A. Petrone, 
 T. Henderson, D. Ranasinghe, V. G. Zakrzewski, J. Gao, N. Rega, 
 G. Zheng, W. Liang, M. Hada, M. Ehara, K. Toyota, R. Fukuda, 
 J. Hasegawa, M. Ishida, T. Nakajima, Y. Honda, O. Kitao, H. Nakai, 
 T. Vreven, K. Throssell, J. A. Montgomery, Jr., J. E. Peralta, 
 F. Ogliaro, M. J. Bearpark, J. J. Heyd, E. N. Brothers, K. N. Kudin, 
 V. N. Staroverov, T. A. Keith, R. Kobayashi, J. Normand, 
 K. Raghavachari, A. P. Rendell, J. C. Burant, S. S. Iyengar, 
 J. Tomasi, M. Cossi, J. M. Millam, M. Klene, C. Adamo, R. Cammi, 
 J. W. Ochterski, R. L. Martin, K. Morokuma, O. Farkas, 
 J. B. Foresman, and D. J. Fox, Gaussian, Inc., Wallingford CT, 2016.
 
 ******************************************
 Gaussian 16:  ES64L-G16RevA.03 25-Dec-2016
                22-Jul-2024 
 ******************************************
 %nprocshared=9
 Will use up to    9 processors via shared memory.
 %mem=18GB
 %Chk=LIBPKBFUVQJULU-KPHUVODXSA-N_conf_2_0.chk
 -------------------------------------------------------
 # opt=CalcFc B3LYP/6-31G** SCRF=(Solvent=water) scf=xqc
 -------------------------------------------------------
 1/10=4,18=20,19=15,26=3,38=1/1,3;
 2/9=110,12=2,17=6,18=5,40=1/2;
 3/5=1,6=6,7=101,11=2,25=1,30=1,70=2201,71=2,72=1,74=-5,140=1/1,2,3;
 4//1;
 5/5=2,8=3,13=1,38=5,53=1/2,8;
 8/6=4,10=90,11=11/1;
 11/6=1,8=1,9=11,15=111,16=1/1,2,10;
 10/6=1,13=1/2;
 6/7=2,8=2,9=2,10=2,28=1/1;
 7/10=1,18=20,25=1/1,2,3,16;
 1/10=4,18=20,19=15,26=3/3(2);
 2/9=110/2;
 99//99;
 2/9=110/2;
 3/5=1,6=6,7=101,11=2,25=1,30=1,70=2205,71=1,72=1,74=-5/1,2,3;
 4/5=5,16=3,69=1/1;
 5/5=2,8=3,13=1,38=5,53=1/2,8;
 7//1,2,3,16;
 1/18=20,19=15,26=3/3(-5);
 2/9=110/2;
 6/7=2,8=2,9=2,10=2,19=2,28=1/1;
 99/9=1/99;
 ----------------------------------
 LIBPKBFUVQJULU-KPHUVODXSA-N_conf_2
 ----------------------------------
 Symbolic Z-matrix:
 Charge =  0 Multiplicity = 1
 O                    -2.76881   0.45239  -2.23135 
 C                    -2.9852    1.11479  -0.96985 
 C                    -1.82238   0.88162   0.0422 
 N                    -0.78934  -0.02126  -0.48279 
 C                    -0.74901  -1.41898  -0.35719 
 C                    -1.75586  -2.20902   0.19429 
 C                    -1.6227   -3.60512   0.24676 
 C                    -0.48232  -4.23307  -0.26239 
 C                     0.52829  -3.46751  -0.84086 
 C                     0.38565  -2.07857  -0.91973 
 N                     1.41895  -1.30496  -1.53517 
 C                     2.42785  -0.87089  -0.5628 
 C                     3.80055  -0.99332  -1.25089 
 C                     4.89679  -0.50546  -0.29671 
 C                     4.45455   0.67492   0.59293 
 C                     3.15588   1.36266   0.12831 
 C                     3.36033   2.43886  -0.96233 
 O                     4.44029   2.1966   -1.84421 
 O                     2.08364   0.48158  -0.25189 
 O                     4.19642   0.12082   1.90834 
 O                     6.10699  -0.2448   -0.99657 
 O                     3.77747  -0.24814  -2.48679 
 O                    -2.23001   0.52807   1.35862 
 C                    -3.26986   1.37205   1.82104 
 C                    -3.45945   1.14622   3.3322 
 O                    -4.48786   1.96673   3.89562 
 C                    -4.57543   1.12405   1.0593 
 O                    -5.3668    2.3138    1.14103 
 C                    -4.35454   0.72825  -0.41155 
 O                    -4.57096  -0.67254  -0.54891 
 H                    -2.12112  -0.26412  -2.0069 
 H                    -3.01335   2.18502  -1.19934 
 H                    -1.31696   1.85208   0.14395 
 H                     0.13484   0.3237   -0.16979 
 H                    -2.6517   -1.76426   0.61131 
 H                    -2.414    -4.20186   0.69805 
 H                    -0.39015  -5.32038  -0.22138 
 H                     1.40767  -3.94744  -1.26329 
 H                     0.95274  -0.4532   -1.86218 
 H                     2.42159  -1.48041   0.35704 
 H                     4.00743  -2.03535  -1.52637 
 H                     5.12699  -1.35366   0.35565 
 H                     5.25363   1.42322   0.71589 
 H                     2.72565   1.89584   0.98939 
 H                     2.45315   2.57653  -1.56224 
 H                     3.57405   3.398    -0.47673 
 H                     4.29816   1.32844  -2.28149 
 H                     5.03855   0.11665   2.40405 
 H                     6.75436   0.14928  -0.38312 
 H                     2.99955  -0.6149   -2.95893 
 H                    -2.97385   2.41679   1.69126 
 H                    -3.6938    0.09501   3.53936 
 H                    -2.521     1.36338   3.86593 
 H                    -4.82342   2.5675    3.19752 
 H                    -5.14355   0.33065   1.56251 
 H                    -6.25342   2.07002   0.80034 
 H                    -5.11501   1.20007  -1.03087 
 H                    -4.46015  -0.88635  -1.49558 
 

 GradGradGradGradGradGradGradGradGradGradGradGradGradGradGradGradGradGrad
 Berny optimization.
 Initialization pass.
                           ----------------------------
                           !    Initial Parameters    !
                           ! (Angstroms and Degrees)  !
 --------------------------                            --------------------------
 ! Name  Definition              Value          Derivative Info.                !
 --------------------------------------------------------------------------------
 ! R1    R(1,2)                  1.4412         calculate D2E/DX2 analytically  !
 ! R2    R(1,31)                 0.9916         calculate D2E/DX2 analytically  !
 ! R3    R(2,3)                  1.5591         calculate D2E/DX2 analytically  !
 ! R4    R(2,29)                 1.5285         calculate D2E/DX2 analytically  !
 ! R5    R(2,32)                 1.0949         calculate D2E/DX2 analytically  !
 ! R6    R(3,4)                  1.469          calculate D2E/DX2 analytically  !
 ! R7    R(3,23)                 1.4227         calculate D2E/DX2 analytically  !
 ! R8    R(3,33)                 1.0989         calculate D2E/DX2 analytically  !
 ! R9    R(4,5)                  1.4039         calculate D2E/DX2 analytically  !
 ! R10   R(4,34)                 1.0349         calculate D2E/DX2 analytically  !
 ! R11   R(5,6)                  1.3936         calculate D2E/DX2 analytically  !
 ! R12   R(5,10)                 1.4279         calculate D2E/DX2 analytically  !
 ! R13   R(6,7)                  1.4034         calculate D2E/DX2 analytically  !
 ! R14   R(6,35)                 1.0836         calculate D2E/DX2 analytically  !
 ! R15   R(7,8)                  1.3979         calculate D2E/DX2 analytically  !
 ! R16   R(7,36)                 1.089          calculate D2E/DX2 analytically  !
 ! R17   R(8,9)                  1.3936         calculate D2E/DX2 analytically  !
 ! R18   R(8,37)                 1.092          calculate D2E/DX2 analytically  !
 ! R19   R(9,10)                 1.3985         calculate D2E/DX2 analytically  !
 ! R20   R(9,38)                 1.0872         calculate D2E/DX2 analytically  !
 ! R21   R(10,11)                1.43           calculate D2E/DX2 analytically  !
 ! R22   R(11,12)                1.4669         calculate D2E/DX2 analytically  !
 ! R23   R(11,39)                1.0246         calculate D2E/DX2 analytically  !
 ! R24   R(12,13)                1.5404         calculate D2E/DX2 analytically  !
 ! R25   R(12,19)                1.4298         calculate D2E/DX2 analytically  !
 ! R26   R(12,40)                1.1035         calculate D2E/DX2 analytically  !
 ! R27   R(13,14)                1.533          calculate D2E/DX2 analytically  !
 ! R28   R(13,22)                1.4434         calculate D2E/DX2 analytically  !
 ! R29   R(13,41)                1.0975         calculate D2E/DX2 analytically  !
 ! R30   R(14,15)                1.5428         calculate D2E/DX2 analytically  !
 ! R31   R(14,21)                1.4221         calculate D2E/DX2 analytically  !
 ! R32   R(14,42)                1.0945         calculate D2E/DX2 analytically  !
 ! R33   R(15,16)                1.5412         calculate D2E/DX2 analytically  !
 ! R34   R(15,20)                1.4505         calculate D2E/DX2 analytically  !
 ! R35   R(15,43)                1.1016         calculate D2E/DX2 analytically  !
 ! R36   R(16,17)                1.5458         calculate D2E/DX2 analytically  !
 ! R37   R(16,19)                1.4389         calculate D2E/DX2 analytically  !
 ! R38   R(16,44)                1.1004         calculate D2E/DX2 analytically  !
 ! R39   R(17,18)                1.4152         calculate D2E/DX2 analytically  !
 ! R40   R(17,45)                1.0963         calculate D2E/DX2 analytically  !
 ! R41   R(17,46)                1.0961         calculate D2E/DX2 analytically  !
 ! R42   R(18,47)                0.9824         calculate D2E/DX2 analytically  !
 ! R43   R(20,48)                0.9772         calculate D2E/DX2 analytically  !
 ! R44   R(21,49)                0.975          calculate D2E/DX2 analytically  !
 ! R45   R(22,50)                0.9811         calculate D2E/DX2 analytically  !
 ! R46   R(23,24)                1.4168         calculate D2E/DX2 analytically  !
 ! R47   R(24,25)                1.5397         calculate D2E/DX2 analytically  !
 ! R48   R(24,27)                1.5318         calculate D2E/DX2 analytically  !
 ! R49   R(24,51)                1.0936         calculate D2E/DX2 analytically  !
 ! R50   R(25,26)                1.4312         calculate D2E/DX2 analytically  !
 ! R51   R(25,52)                1.0968         calculate D2E/DX2 analytically  !
 ! R52   R(25,53)                1.1012         calculate D2E/DX2 analytically  !
 ! R53   R(26,54)                0.9802         calculate D2E/DX2 analytically  !
 ! R54   R(27,28)                1.4312         calculate D2E/DX2 analytically  !
 ! R55   R(27,29)                1.5391         calculate D2E/DX2 analytically  !
 ! R56   R(27,55)                1.0979         calculate D2E/DX2 analytically  !
 ! R57   R(28,56)                0.9806         calculate D2E/DX2 analytically  !
 ! R58   R(29,30)                1.424          calculate D2E/DX2 analytically  !
 ! R59   R(29,57)                1.0883         calculate D2E/DX2 analytically  !
 ! R60   R(30,58)                0.9768         calculate D2E/DX2 analytically  !
 ! A1    A(2,1,31)             103.4179         calculate D2E/DX2 analytically  !
 ! A2    A(1,2,3)              112.7976         calculate D2E/DX2 analytically  !
 ! A3    A(1,2,29)             109.7554         calculate D2E/DX2 analytically  !
 ! A4    A(1,2,32)             105.6441         calculate D2E/DX2 analytically  !
 ! A5    A(3,2,29)             113.1572         calculate D2E/DX2 analytically  !
 ! A6    A(3,2,32)             107.5428         calculate D2E/DX2 analytically  !
 ! A7    A(29,2,32)            107.5004         calculate D2E/DX2 analytically  !
 ! A8    A(2,3,4)              112.6077         calculate D2E/DX2 analytically  !
 ! A9    A(2,3,23)             115.0937         calculate D2E/DX2 analytically  !
 ! A10   A(2,3,33)             105.7271         calculate D2E/DX2 analytically  !
 ! A11   A(4,3,23)             112.2984         calculate D2E/DX2 analytically  !
 ! A12   A(4,3,33)             104.6219         calculate D2E/DX2 analytically  !
 ! A13   A(23,3,33)            105.4005         calculate D2E/DX2 analytically  !
 ! A14   A(3,4,5)              126.8796         calculate D2E/DX2 analytically  !
 ! A15   A(3,4,34)             108.3623         calculate D2E/DX2 analytically  !
 ! A16   A(5,4,34)             106.2083         calculate D2E/DX2 analytically  !
 ! A17   A(4,5,6)              125.384          calculate D2E/DX2 analytically  !
 ! A18   A(4,5,10)             116.581          calculate D2E/DX2 analytically  !
 ! A19   A(6,5,10)             117.9139         calculate D2E/DX2 analytically  !
 ! A20   A(5,6,7)              120.6775         calculate D2E/DX2 analytically  !
 ! A21   A(5,6,35)             121.1247         calculate D2E/DX2 analytically  !
 ! A22   A(7,6,35)             118.1868         calculate D2E/DX2 analytically  !
 ! A23   A(6,7,8)              120.7083         calculate D2E/DX2 analytically  !
 ! A24   A(6,7,36)             119.4498         calculate D2E/DX2 analytically  !
 ! A25   A(8,7,36)             119.8394         calculate D2E/DX2 analytically  !
 ! A26   A(7,8,9)              119.7375         calculate D2E/DX2 analytically  !
 ! A27   A(7,8,37)             120.1643         calculate D2E/DX2 analytically  !
 ! A28   A(9,8,37)             120.0913         calculate D2E/DX2 analytically  !
 ! A29   A(8,9,10)             119.6731         calculate D2E/DX2 analytically  !
 ! A30   A(8,9,38)             120.3535         calculate D2E/DX2 analytically  !
 ! A31   A(10,9,38)            119.9337         calculate D2E/DX2 analytically  !
 ! A32   A(5,10,9)             121.1715         calculate D2E/DX2 analytically  !
 ! A33   A(5,10,11)            119.5931         calculate D2E/DX2 analytically  !
 ! A34   A(9,10,11)            119.2004         calculate D2E/DX2 analytically  !
 ! A35   A(10,11,12)           111.8247         calculate D2E/DX2 analytically  !
 ! A36   A(10,11,39)           104.9688         calculate D2E/DX2 analytically  !
 ! A37   A(12,11,39)           106.1723         calculate D2E/DX2 analytically  !
 ! A38   A(11,12,13)           107.0546         calculate D2E/DX2 analytically  !
 ! A39   A(11,12,19)           104.9796         calculate D2E/DX2 analytically  !
 ! A40   A(11,12,40)           112.657          calculate D2E/DX2 analytically  !
 ! A41   A(13,12,19)           112.7589         calculate D2E/DX2 analytically  !
 ! A42   A(13,12,40)           109.4818         calculate D2E/DX2 analytically  !
 ! A43   A(19,12,40)           109.8685         calculate D2E/DX2 analytically  !
 ! A44   A(12,13,14)           109.5068         calculate D2E/DX2 analytically  !
 ! A45   A(12,13,22)           109.0996         calculate D2E/DX2 analytically  !
 ! A46   A(12,13,41)           110.8286         calculate D2E/DX2 analytically  !
 ! A47   A(14,13,22)           112.339          calculate D2E/DX2 analytically  !
 ! A48   A(14,13,41)           108.8794         calculate D2E/DX2 analytically  !
 ! A49   A(22,13,41)           106.157          calculate D2E/DX2 analytically  !
 ! A50   A(13,14,15)           113.4155         calculate D2E/DX2 analytically  !
 ! A51   A(13,14,21)           111.1342         calculate D2E/DX2 analytically  !
 ! A52   A(13,14,42)           105.9472         calculate D2E/DX2 analytically  !
 ! A53   A(15,14,21)           112.7974         calculate D2E/DX2 analytically  !
 ! A54   A(15,14,42)           108.029          calculate D2E/DX2 analytically  !
 ! A55   A(21,14,42)           104.8553         calculate D2E/DX2 analytically  !
 ! A56   A(14,15,16)           114.1479         calculate D2E/DX2 analytically  !
 ! A57   A(14,15,20)           106.3596         calculate D2E/DX2 analytically  !
 ! A58   A(14,15,43)           112.0943         calculate D2E/DX2 analytically  !
 ! A59   A(16,15,20)           107.0909         calculate D2E/DX2 analytically  !
 ! A60   A(16,15,43)           109.9831         calculate D2E/DX2 analytically  !
 ! A61   A(20,15,43)           106.6995         calculate D2E/DX2 analytically  !
 ! A62   A(15,16,17)           114.3251         calculate D2E/DX2 analytically  !
 ! A63   A(15,16,19)           115.7414         calculate D2E/DX2 analytically  !
 ! A64   A(15,16,44)           108.0451         calculate D2E/DX2 analytically  !
 ! A65   A(17,16,19)           109.781          calculate D2E/DX2 analytically  !
 ! A66   A(17,16,44)           105.4547         calculate D2E/DX2 analytically  !
 ! A67   A(19,16,44)           102.2463         calculate D2E/DX2 analytically  !
 ! A68   A(16,17,18)           114.924          calculate D2E/DX2 analytically  !
 ! A69   A(16,17,45)           111.3509         calculate D2E/DX2 analytically  !
 ! A70   A(16,17,46)           108.8096         calculate D2E/DX2 analytically  !
 ! A71   A(18,17,45)           108.1789         calculate D2E/DX2 analytically  !
 ! A72   A(18,17,46)           106.0857         calculate D2E/DX2 analytically  !
 ! A73   A(45,17,46)           107.092          calculate D2E/DX2 analytically  !
 ! A74   A(17,18,47)           108.5572         calculate D2E/DX2 analytically  !
 ! A75   A(12,19,16)           117.2106         calculate D2E/DX2 analytically  !
 ! A76   A(15,20,48)           107.9565         calculate D2E/DX2 analytically  !
 ! A77   A(14,21,49)           109.2368         calculate D2E/DX2 analytically  !
 ! A78   A(13,22,50)           103.4002         calculate D2E/DX2 analytically  !
 ! A79   A(3,23,24)            111.3614         calculate D2E/DX2 analytically  !
 ! A80   A(23,24,25)           108.8651         calculate D2E/DX2 analytically  !
 ! A81   A(23,24,27)           111.5184         calculate D2E/DX2 analytically  !
 ! A82   A(23,24,51)           109.3707         calculate D2E/DX2 analytically  !
 ! A83   A(25,24,27)           111.0628         calculate D2E/DX2 analytically  !
 ! A84   A(25,24,51)           106.8537         calculate D2E/DX2 analytically  !
 ! A85   A(27,24,51)           109.0484         calculate D2E/DX2 analytically  !
 ! A86   A(24,25,26)           113.0028         calculate D2E/DX2 analytically  !
 ! A87   A(24,25,52)           110.6266         calculate D2E/DX2 analytically  !
 ! A88   A(24,25,53)           109.9884         calculate D2E/DX2 analytically  !
 ! A89   A(26,25,52)           108.76           calculate D2E/DX2 analytically  !
 ! A90   A(26,25,53)           107.9692         calculate D2E/DX2 analytically  !
 ! A91   A(52,25,53)           106.2335         calculate D2E/DX2 analytically  !
 ! A92   A(25,26,54)           108.4813         calculate D2E/DX2 analytically  !
 ! A93   A(24,27,28)           107.9564         calculate D2E/DX2 analytically  !
 ! A94   A(24,27,29)           113.2383         calculate D2E/DX2 analytically  !
 ! A95   A(24,27,55)           109.2758         calculate D2E/DX2 analytically  !
 ! A96   A(28,27,29)           110.3464         calculate D2E/DX2 analytically  !
 ! A97   A(28,27,55)           106.7631         calculate D2E/DX2 analytically  !
 ! A98   A(29,27,55)           109.0522         calculate D2E/DX2 analytically  !
 ! A99   A(27,28,56)           105.869          calculate D2E/DX2 analytically  !
 ! A100  A(2,29,27)            114.3689         calculate D2E/DX2 analytically  !
 ! A101  A(2,29,30)            110.4681         calculate D2E/DX2 analytically  !
 ! A102  A(2,29,57)            107.9692         calculate D2E/DX2 analytically  !
 ! A103  A(27,29,30)           108.8644         calculate D2E/DX2 analytically  !
 ! A104  A(27,29,57)           109.3929         calculate D2E/DX2 analytically  !
 ! A105  A(30,29,57)           105.3885         calculate D2E/DX2 analytically  !
 ! A106  A(29,30,58)           106.9507         calculate D2E/DX2 analytically  !
 ! D1    D(31,1,2,3)            21.8875         calculate D2E/DX2 analytically  !
 ! D2    D(31,1,2,29)         -105.2844         calculate D2E/DX2 analytically  !
 ! D3    D(31,1,2,32)          139.0968         calculate D2E/DX2 analytically  !
 ! D4    D(1,2,3,4)             -3.0176         calculate D2E/DX2 analytically  !
 ! D5    D(1,2,3,23)          -133.473          calculate D2E/DX2 analytically  !
 ! D6    D(1,2,3,33)           110.645          calculate D2E/DX2 analytically  !
 ! D7    D(29,2,3,4)           122.3312         calculate D2E/DX2 analytically  !
 ! D8    D(29,2,3,23)           -8.1243         calculate D2E/DX2 analytically  !
 ! D9    D(29,2,3,33)         -124.0063         calculate D2E/DX2 analytically  !
 ! D10   D(32,2,3,4)          -119.0991         calculate D2E/DX2 analytically  !
 ! D11   D(32,2,3,23)          110.4454         calculate D2E/DX2 analytically  !
 ! D12   D(32,2,3,33)           -5.4366         calculate D2E/DX2 analytically  !
 ! D13   D(1,2,29,27)          167.4436         calculate D2E/DX2 analytically  !
 ! D14   D(1,2,29,30)           44.2176         calculate D2E/DX2 analytically  !
 ! D15   D(1,2,29,57)          -70.5428         calculate D2E/DX2 analytically  !
 ! D16   D(3,2,29,27)           40.4735         calculate D2E/DX2 analytically  !
 ! D17   D(3,2,29,30)          -82.7525         calculate D2E/DX2 analytically  !
 ! D18   D(3,2,29,57)          162.4871         calculate D2E/DX2 analytically  !
 ! D19   D(32,2,29,27)         -78.1207         calculate D2E/DX2 analytically  !
 ! D20   D(32,2,29,30)         158.6532         calculate D2E/DX2 analytically  !
 ! D21   D(32,2,29,57)          43.8928         calculate D2E/DX2 analytically  !
 ! D22   D(2,3,4,5)            -89.8208         calculate D2E/DX2 analytically  !
 ! D23   D(2,3,4,34)           142.1031         calculate D2E/DX2 analytically  !
 ! D24   D(23,3,4,5)            42.0384         calculate D2E/DX2 analytically  !
 ! D25   D(23,3,4,34)          -86.0378         calculate D2E/DX2 analytically  !
 ! D26   D(33,3,4,5)           155.8434         calculate D2E/DX2 analytically  !
 ! D27   D(33,3,4,34)           27.7673         calculate D2E/DX2 analytically  !
 ! D28   D(2,3,23,24)          -46.6376         calculate D2E/DX2 analytically  !
 ! D29   D(4,3,23,24)         -177.2425         calculate D2E/DX2 analytically  !
 ! D30   D(33,3,23,24)          69.4311         calculate D2E/DX2 analytically  !
 ! D31   D(3,4,5,6)              6.0035         calculate D2E/DX2 analytically  !
 ! D32   D(3,4,5,10)          -178.0966         calculate D2E/DX2 analytically  !
 ! D33   D(34,4,5,6)           134.9225         calculate D2E/DX2 analytically  !
 ! D34   D(34,4,5,10)          -49.1777         calculate D2E/DX2 analytically  !
 ! D35   D(4,5,6,7)            178.7306         calculate D2E/DX2 analytically  !
 ! D36   D(4,5,6,35)            -2.5045         calculate D2E/DX2 analytically  !
 ! D37   D(10,5,6,7)             2.8803         calculate D2E/DX2 analytically  !
 ! D38   D(10,5,6,35)         -178.3548         calculate D2E/DX2 analytically  !
 ! D39   D(4,5,10,9)           179.5322         calculate D2E/DX2 analytically  !
 ! D40   D(4,5,10,11)            1.7011         calculate D2E/DX2 analytically  !
 ! D41   D(6,5,10,9)            -4.2503         calculate D2E/DX2 analytically  !
 ! D42   D(6,5,10,11)          177.9186         calculate D2E/DX2 analytically  !
 ! D43   D(5,6,7,8)             -0.5053         calculate D2E/DX2 analytically  !
 ! D44   D(5,6,7,36)           178.9199         calculate D2E/DX2 analytically  !
 ! D45   D(35,6,7,8)          -179.3057         calculate D2E/DX2 analytically  !
 ! D46   D(35,6,7,36)            0.1195         calculate D2E/DX2 analytically  !
 ! D47   D(6,7,8,9)             -0.6514         calculate D2E/DX2 analytically  !
 ! D48   D(6,7,8,37)          -179.6993         calculate D2E/DX2 analytically  !
 ! D49   D(36,7,8,9)           179.9256         calculate D2E/DX2 analytically  !
 ! D50   D(36,7,8,37)            0.8777         calculate D2E/DX2 analytically  !
 ! D51   D(7,8,9,10)            -0.6908         calculate D2E/DX2 analytically  !
 ! D52   D(7,8,9,38)          -178.3995         calculate D2E/DX2 analytically  !
 ! D53   D(37,8,9,10)          178.3578         calculate D2E/DX2 analytically  !
 ! D54   D(37,8,9,38)            0.6491         calculate D2E/DX2 analytically  !
 ! D55   D(8,9,10,5)             3.1846         calculate D2E/DX2 analytically  !
 ! D56   D(8,9,10,11)         -178.9759         calculate D2E/DX2 analytically  !
 ! D57   D(38,9,10,5)         -179.097          calculate D2E/DX2 analytically  !
 ! D58   D(38,9,10,11)          -1.2575         calculate D2E/DX2 analytically  !
 ! D59   D(5,10,11,12)          87.522          calculate D2E/DX2 analytically  !
 ! D60   D(5,10,11,39)         -27.1638         calculate D2E/DX2 analytically  !
 ! D61   D(9,10,11,12)         -90.3522         calculate D2E/DX2 analytically  !
 ! D62   D(9,10,11,39)         154.962          calculate D2E/DX2 analytically  !
 ! D63   D(10,11,12,13)        140.431          calculate D2E/DX2 analytically  !
 ! D64   D(10,11,12,19)        -99.5051         calculate D2E/DX2 analytically  !
 ! D65   D(10,11,12,40)         20.0281         calculate D2E/DX2 analytically  !
 ! D66   D(39,11,12,13)       -105.6254         calculate D2E/DX2 analytically  !
 ! D67   D(39,11,12,19)         14.4385         calculate D2E/DX2 analytically  !
 ! D68   D(39,11,12,40)        133.9717         calculate D2E/DX2 analytically  !
 ! D69   D(11,12,13,14)        178.0442         calculate D2E/DX2 analytically  !
 ! D70   D(11,12,13,22)         54.7191         calculate D2E/DX2 analytically  !
 ! D71   D(11,12,13,41)        -61.8199         calculate D2E/DX2 analytically  !
 ! D72   D(19,12,13,14)         63.0903         calculate D2E/DX2 analytically  !
 ! D73   D(19,12,13,22)        -60.2348         calculate D2E/DX2 analytically  !
 ! D74   D(19,12,13,41)       -176.7738         calculate D2E/DX2 analytically  !
 ! D75   D(40,12,13,14)        -59.5491         calculate D2E/DX2 analytically  !
 ! D76   D(40,12,13,22)        177.1259         calculate D2E/DX2 analytically  !
 ! D77   D(40,12,13,41)         60.5869         calculate D2E/DX2 analytically  !
 ! D78   D(11,12,19,16)       -150.8973         calculate D2E/DX2 analytically  !
 ! D79   D(13,12,19,16)        -34.6987         calculate D2E/DX2 analytically  !
 ! D80   D(40,12,19,16)         87.7239         calculate D2E/DX2 analytically  !
 ! D81   D(12,13,14,15)        -35.2329         calculate D2E/DX2 analytically  !
 ! D82   D(12,13,14,21)       -163.5562         calculate D2E/DX2 analytically  !
 ! D83   D(12,13,14,42)         83.0952         calculate D2E/DX2 analytically  !
 ! D84   D(22,13,14,15)         86.1579         calculate D2E/DX2 analytically  !
 ! D85   D(22,13,14,21)        -42.1654         calculate D2E/DX2 analytically  !
 ! D86   D(22,13,14,42)       -155.514          calculate D2E/DX2 analytically  !
 ! D87   D(41,13,14,15)       -156.553          calculate D2E/DX2 analytically  !
 ! D88   D(41,13,14,21)         75.1237         calculate D2E/DX2 analytically  !
 ! D89   D(41,13,14,42)        -38.2249         calculate D2E/DX2 analytically  !
 ! D90   D(12,13,22,50)        -54.1978         calculate D2E/DX2 analytically  !
 ! D91   D(14,13,22,50)       -175.8213         calculate D2E/DX2 analytically  !
 ! D92   D(41,13,22,50)         65.2797         calculate D2E/DX2 analytically  !
 ! D93   D(13,14,15,16)        -14.4819         calculate D2E/DX2 analytically  !
 ! D94   D(13,14,15,20)        103.3753         calculate D2E/DX2 analytically  !
 ! D95   D(13,14,15,43)       -140.3691         calculate D2E/DX2 analytically  !
 ! D96   D(21,14,15,16)        112.9794         calculate D2E/DX2 analytically  !
 ! D97   D(21,14,15,20)       -129.1634         calculate D2E/DX2 analytically  !
 ! D98   D(21,14,15,43)        -12.9078         calculate D2E/DX2 analytically  !
 ! D99   D(42,14,15,16)       -131.5996         calculate D2E/DX2 analytically  !
 ! D100  D(42,14,15,20)        -13.7425         calculate D2E/DX2 analytically  !
 ! D101  D(42,14,15,43)        102.5132         calculate D2E/DX2 analytically  !
 ! D102  D(13,14,21,49)        174.2218         calculate D2E/DX2 analytically  !
 ! D103  D(15,14,21,49)         45.5668         calculate D2E/DX2 analytically  !
 ! D104  D(42,14,21,49)        -71.7441         calculate D2E/DX2 analytically  !
 ! D105  D(14,15,16,17)        -84.4367         calculate D2E/DX2 analytically  !
 ! D106  D(14,15,16,19)         44.6334         calculate D2E/DX2 analytically  !
 ! D107  D(14,15,16,44)        158.5087         calculate D2E/DX2 analytically  !
 ! D108  D(20,15,16,17)        158.1257         calculate D2E/DX2 analytically  !
 ! D109  D(20,15,16,19)        -72.8042         calculate D2E/DX2 analytically  !
 ! D110  D(20,15,16,44)         41.0711         calculate D2E/DX2 analytically  !
 ! D111  D(43,15,16,17)         42.5506         calculate D2E/DX2 analytically  !
 ! D112  D(43,15,16,19)        171.6207         calculate D2E/DX2 analytically  !
 ! D113  D(43,15,16,44)        -74.504          calculate D2E/DX2 analytically  !
 ! D114  D(14,15,20,48)         87.1984         calculate D2E/DX2 analytically  !
 ! D115  D(16,15,20,48)       -150.3688         calculate D2E/DX2 analytically  !
 ! D116  D(43,15,20,48)        -32.6251         calculate D2E/DX2 analytically  !
 ! D117  D(15,16,17,18)         31.4251         calculate D2E/DX2 analytically  !
 ! D118  D(15,16,17,45)        154.8628         calculate D2E/DX2 analytically  !
 ! D119  D(15,16,17,46)        -87.3288         calculate D2E/DX2 analytically  !
 ! D120  D(19,16,17,18)       -100.5716         calculate D2E/DX2 analytically  !
 ! D121  D(19,16,17,45)         22.866          calculate D2E/DX2 analytically  !
 ! D122  D(19,16,17,46)        140.6745         calculate D2E/DX2 analytically  !
 ! D123  D(44,16,17,18)        149.9588         calculate D2E/DX2 analytically  !
 ! D124  D(44,16,17,45)        -86.6035         calculate D2E/DX2 analytically  !
 ! D125  D(44,16,17,46)         31.2049         calculate D2E/DX2 analytically  !
 ! D126  D(15,16,19,12)        -18.8788         calculate D2E/DX2 analytically  !
 ! D127  D(17,16,19,12)        112.3735         calculate D2E/DX2 analytically  !
 ! D128  D(44,16,19,12)       -136.0438         calculate D2E/DX2 analytically  !
 ! D129  D(16,17,18,47)         58.0891         calculate D2E/DX2 analytically  !
 ! D130  D(45,17,18,47)        -67.0214         calculate D2E/DX2 analytically  !
 ! D131  D(46,17,18,47)        178.3557         calculate D2E/DX2 analytically  !
 ! D132  D(3,23,24,25)        -168.0302         calculate D2E/DX2 analytically  !
 ! D133  D(3,23,24,27)          69.0836         calculate D2E/DX2 analytically  !
 ! D134  D(3,23,24,51)         -51.6129         calculate D2E/DX2 analytically  !
 ! D135  D(23,24,25,26)        179.5609         calculate D2E/DX2 analytically  !
 ! D136  D(23,24,25,52)        -58.223          calculate D2E/DX2 analytically  !
 ! D137  D(23,24,25,53)         58.8266         calculate D2E/DX2 analytically  !
 ! D138  D(27,24,25,26)        -57.2797         calculate D2E/DX2 analytically  !
 ! D139  D(27,24,25,52)         64.9364         calculate D2E/DX2 analytically  !
 ! D140  D(27,24,25,53)       -178.014          calculate D2E/DX2 analytically  !
 ! D141  D(51,24,25,26)         61.5427         calculate D2E/DX2 analytically  !
 ! D142  D(51,24,25,52)       -176.2411         calculate D2E/DX2 analytically  !
 ! D143  D(51,24,25,53)        -59.1916         calculate D2E/DX2 analytically  !
 ! D144  D(23,24,27,28)       -155.6923         calculate D2E/DX2 analytically  !
 ! D145  D(23,24,27,29)        -33.2177         calculate D2E/DX2 analytically  !
 ! D146  D(23,24,27,55)         88.5526         calculate D2E/DX2 analytically  !
 ! D147  D(25,24,27,28)         82.6867         calculate D2E/DX2 analytically  !
 ! D148  D(25,24,27,29)       -154.8387         calculate D2E/DX2 analytically  !
 ! D149  D(25,24,27,55)        -33.0684         calculate D2E/DX2 analytically  !
 ! D150  D(51,24,27,28)        -34.8073         calculate D2E/DX2 analytically  !
 ! D151  D(51,24,27,29)         87.6673         calculate D2E/DX2 analytically  !
 ! D152  D(51,24,27,55)       -150.5624         calculate D2E/DX2 analytically  !
 ! D153  D(24,25,26,54)         -4.2581         calculate D2E/DX2 analytically  !
 ! D154  D(52,25,26,54)       -127.5135         calculate D2E/DX2 analytically  !
 ! D155  D(53,25,26,54)        117.6183         calculate D2E/DX2 analytically  !
 ! D156  D(24,27,28,56)       -169.3823         calculate D2E/DX2 analytically  !
 ! D157  D(29,27,28,56)         66.3863         calculate D2E/DX2 analytically  !
 ! D158  D(55,27,28,56)        -51.9928         calculate D2E/DX2 analytically  !
 ! D159  D(24,27,29,2)         -20.1658         calculate D2E/DX2 analytically  !
 ! D160  D(24,27,29,30)        103.921          calculate D2E/DX2 analytically  !
 ! D161  D(24,27,29,57)       -141.3976         calculate D2E/DX2 analytically  !
 ! D162  D(28,27,29,2)         100.9702         calculate D2E/DX2 analytically  !
 ! D163  D(28,27,29,30)       -134.9429         calculate D2E/DX2 analytically  !
 ! D164  D(28,27,29,57)        -20.2616         calculate D2E/DX2 analytically  !
 ! D165  D(55,27,29,2)        -142.0613         calculate D2E/DX2 analytically  !
 ! D166  D(55,27,29,30)        -17.9744         calculate D2E/DX2 analytically  !
 ! D167  D(55,27,29,57)         96.7069         calculate D2E/DX2 analytically  !
 ! D168  D(2,29,30,58)         -55.9158         calculate D2E/DX2 analytically  !
 ! D169  D(27,29,30,58)        177.7178         calculate D2E/DX2 analytically  !
 ! D170  D(57,29,30,58)         60.4608         calculate D2E/DX2 analytically  !
 --------------------------------------------------------------------------------
 Trust Radius=3.00D-01 FncErr=1.00D-07 GrdErr=1.00D-06 EigMax=2.50D+02 EigMin=1.00D-04
 Number of steps in this run=    346 maximum allowed number of steps=    348.
 GradGradGradGradGradGradGradGradGradGradGradGradGradGradGradGradGradGrad

 Stoichiometry    C18H28N2O10
 Framework group  C1[X(C18H28N2O10)]
 Deg. of freedom   168
 Full point group                 C1      NOp   1
 Largest Abelian subgroup         C1      NOp   1
 Largest concise Abelian subgroup C1      NOp   1
                         Standard orientation:                         
 ---------------------------------------------------------------------
 Center     Atomic      Atomic             Coordinates (Angstroms)
 Number     Number       Type             X           Y           Z
 ---------------------------------------------------------------------
      1          8           0        2.286738    0.801518   -2.619877
      2          6           0        2.814030   -0.232739   -1.765909
      3          6           0        1.872424   -0.566200   -0.568850
      4          7           0        0.682983    0.294969   -0.529070
      5          6           0        0.556470    1.526925    0.132222
      6          6           0        1.588625    2.207126    0.775679
      7          6           0        1.356541    3.449895    1.384975
      8          6           0        0.088060    4.036211    1.350133
      9          6           0       -0.955365    3.387737    0.692257
     10          6           0       -0.720118    2.162612    0.060226
     11          7           0       -1.792699    1.516707   -0.630662
     12          6           0       -2.538425    0.608521    0.247335
     13          6           0       -4.029613    0.759799   -0.107946
     14          6           0       -4.859907   -0.204642    0.746853
     15          6           0       -4.147894   -1.544526    1.026308
     16          6           0       -2.923022   -1.806916    0.128396
     17          6           0       -3.262112   -2.430020   -1.245025
     18          8           0       -4.518035   -2.053005   -1.777226
     19          8           0       -2.028507   -0.693894   -0.049319
     20          8           0       -3.667340   -1.474532    2.393101
     21          8           0       -6.164088   -0.375921    0.206385
     22          8           0       -4.204021    0.528713   -1.521966
     23          8           0        2.515177   -0.657749    0.697091
     24          6           0        3.693455   -1.440982    0.622197
     25          6           0        4.174584   -1.754349    2.050787
     26          8           0        5.360842   -2.554552    2.078502
     27          6           0        4.787299   -0.734638   -0.184552
     28          8           0        5.672157   -1.735233   -0.698639
     29          6           0        4.233649    0.130231   -1.330992
     30          8           0        4.302399    1.500299   -0.948762
     31          1           0        1.644054    1.278118   -2.034152
     32          1           0        2.880484   -1.127931   -2.392846
     33          1           0        1.479669   -1.572577   -0.770186
     34          1           0       -0.124692   -0.278305   -0.228901
     35          1           0        2.584709    1.784917    0.837305
     36          1           0        2.173402    3.955763    1.897556
     37          1           0       -0.081417    5.005828    1.822932
     38          1           0       -1.939382    3.846764    0.636661
     39          1           0       -1.337289    0.925223   -1.332465
     40          1           0       -2.390235    0.834564    1.317202
     41          1           0       -4.373127    1.785339    0.078565
     42          1           0       -5.017246    0.301541    1.704466
     43          1           0       -4.840483   -2.399834    0.977672
     44          1           0       -2.281148   -2.543762    0.634249
     45          1           0       -2.491619   -2.198254   -1.989633
     46          1           0       -3.291542   -3.520741   -1.140680
     47          1           0       -4.540951   -1.074472   -1.861322
     48          1           0       -4.385302   -1.780962    2.980942
     49          1           0       -6.635407   -1.060996    0.715537
     50          1           0       -3.573821    1.157381   -1.934527
     51          1           0        3.462629   -2.399041    0.148066
     52          1           0        4.360888   -0.828022    2.607635
     53          1           0        3.388595   -2.292774    2.603094
     54          1           0        5.591277   -2.800574    1.158050
     55          1           0        5.381495   -0.101427    0.487339
     56          1           0        6.445662   -1.250608   -1.057024
     57          1           0        4.884204    0.039498   -2.198766
     58          1           0        3.979942    2.024179   -1.707542
 ---------------------------------------------------------------------
 Rotational constants (GHZ):           0.2507362           0.0819613           0.0742184
 Standard basis: 6-31G(d,p) (6D, 7F)
 There are   590 symmetry adapted cartesian basis functions of A   symmetry.
 There are   590 symmetry adapted basis functions of A   symmetry.
   590 basis functions,  1036 primitive gaussians,   590 cartesian basis functions
   115 alpha electrons      115 beta electrons
       nuclear repulsion energy      3316.9158276772 Hartrees.
 NAtoms=   58 NActive=   58 NUniq=   58 SFac= 1.00D+00 NAtFMM=   60 NAOKFM=F Big=F
 Integral buffers will be    131072 words long.
 Raffenetti 2 integral format.
 Two-electron integral symmetry is turned on.
 Force inversion solution in PCM.
 ------------------------------------------------------------------------------
 Polarizable Continuum Model (PCM)
 =================================
 Model                : PCM.
 Atomic radii         : UFF (Universal Force Field).
 Polarization charges : Total charges.
 Charge compensation  : None.
 Solution method      : Matrix inversion.
 Cavity type          : Scaled VdW (van der Waals Surface) (Alpha=1.100).
 Cavity algorithm     : GePol (No added spheres)
                        Default sphere list used, NSphG=   58.
                        Lebedev-Laikov grids with approx.  5.0 points / Ang**2.
                        Smoothing algorithm: York/Karplus (Gamma=1.0000).
                        Polarization charges: spherical gaussians, with
                                              point-specific exponents (IZeta= 3).
                        Self-potential: point-specific (ISelfS= 7).
                        Self-field    : sphere-specific E.n sum rule (ISelfD= 2).
 1st derivatives      : Analytical E(r).r(x)/FMM algorithm (CHGder, D1EAlg=3).
                        Cavity 1st derivative terms included.
 2nd derivatives      : Analytical E(r).r(xy)/FMM algorithm (CHGder, D2EAlg=3).
                        Cavity 2nd derivative terms included.
 Solvent              : Water, Eps=  78.355300 Eps(inf)=   1.777849
 ------------------------------------------------------------------------------
 One-electron integrals computed using PRISM.
 NBasis=   590 RedAO= T EigKep=  3.60D-04  NBF=   590
 NBsUse=   590 1.00D-06 EigRej= -1.00D+00 NBFU=   590
 ExpMin= 1.61D-01 ExpMax= 5.48D+03 ExpMxC= 8.25D+02 IAcc=3 IRadAn=         5 AccDes= 0.00D+00
 Harris functional with IExCor=  402 and IRadAn=       5 diagonalized for initial guess.
 HarFok:  IExCor=  402 AccDes= 0.00D+00 IRadAn=         5 IDoV= 1 UseB2=F ITyADJ=14
 ICtDFT=  3500011 ScaDFX=  1.000000  1.000000  1.000000  1.000000
 FoFCou: FMM=F IPFlag=           0 FMFlag=      100000 FMFlg1=           0
         NFxFlg=           0 DoJE=T BraDBF=F KetDBF=T FulRan=T
         wScrn=  0.000000 ICntrl=       500 IOpCl=  0 I1Cent=   200000004 NGrid=           0
         NMat0=    1 NMatS0=      1 NMatT0=    0 NMatD0=    1 NMtDS0=    0 NMtDT0=    0
 Petite list used in FoFCou.
 Requested convergence on RMS density matrix=1.00D-08 within  32 cycles.
 Requested convergence on MAX density matrix=1.00D-06.
 Requested convergence on             energy=1.00D-06.
 No special actions if energy rises.
 Inv3:  Mode=1 IEnd=    40715568.
 Iteration    1 A*A^-1 deviation from unit magnitude is 3.11D-15 for   1133.
 Iteration    1 A*A^-1 deviation from orthogonality  is 1.89D-15 for   2210    644.
 Iteration    1 A^-1*A deviation from unit magnitude is 3.55D-15 for   2415.
 Iteration    1 A^-1*A deviation from orthogonality  is 1.78D-15 for   3038   1278.
 Error on total polarization charges =  0.00927
 SCF Done:  E(RB3LYP) =  -1564.45435035     A.U. after   12 cycles
            NFock= 12  Conv=0.73D-08     -V/T= 2.0089
 QCSCF skips out because SCF is already converged.
 DoSCS=F DFT=T ScalE2(SS,OS)=  1.000000  1.000000
 Range of M.O.s used for correlation:     1   590
 NBasis=   590 NAE=   115 NBE=   115 NFC=     0 NFV=     0
 NROrb=    590 NOA=   115 NOB=   115 NVA=   475 NVB=   475
 Symmetrizing basis deriv contribution to polar:
 IMax=3 JMax=2 DiffMx= 0.00D+00
 G2DrvN: will do    59 centers at a time, making    1 passes.
 Calling FoFCou, ICntrl=  3107 FMM=F I1Cent=   0 AccDes= 0.00D+00.
 NEqPCM:  Using equilibrium solvation (IEInf=0, Eps=  78.3553, EpsInf=   1.7778)
 G2PCM: DoFxE=T DoFxN=T DoGrad=T DoDP/DQ/DG/TGxP=FFFF NFrqRd=   0 IEInf=0 SqF1=F DoCFld=F IF1Alg=4.
 End of G2Drv F.D. properties file   721 does not exist.
 End of G2Drv F.D. properties file   722 does not exist.
 End of G2Drv F.D. properties file   788 does not exist.
          IDoAtm=11111111111111111111111111111111111111111111111111
          IDoAtm=11111111
 NEqPCM:  Using equilibrium solvation (IEInf=0, Eps=  78.3553, EpsInf=   1.7778)
          Differentiating once with respect to nuclear coordinates.
 CalDSu exits because no D1Ps are significant.
          There are   177 degrees of freedom in the 1st order CPHF.  IDoFFX=6 NUNeed=     0.
    171 vectors produced by pass  0 Test12= 5.46D-14 1.00D-09 XBig12= 1.49D-01 1.99D-01.
 AX will form   171 AO Fock derivatives at one time.
    171 vectors produced by pass  1 Test12= 5.46D-14 1.00D-09 XBig12= 2.24D-02 2.73D-02.
    171 vectors produced by pass  2 Test12= 5.46D-14 1.00D-09 XBig12= 1.98D-04 1.92D-03.
    171 vectors produced by pass  3 Test12= 5.46D-14 1.00D-09 XBig12= 5.81D-07 1.11D-04.
    171 vectors produced by pass  4 Test12= 5.46D-14 1.00D-09 XBig12= 8.78D-10 2.69D-06.
    124 vectors produced by pass  5 Test12= 5.46D-14 1.00D-09 XBig12= 9.25D-13 6.31D-08.
     18 vectors produced by pass  6 Test12= 5.46D-14 1.00D-09 XBig12= 8.80D-16 1.99D-09.
 InvSVY:  IOpt=1 It=  1 EMax= 4.44D-16
 Solved reduced A of dimension   997 with   177 vectors.
 End of Minotr F.D. properties file   721 does not exist.
 End of Minotr F.D. properties file   722 does not exist.
 End of Minotr F.D. properties file   788 does not exist.

 **********************************************************************

            Population analysis using the SCF density.

 **********************************************************************

 Orbital symmetries:
       Occupied  (A) (A) (A) (A) (A) (A) (A) (A) (A) (A) (A) (A)
                 (A) (A) (A) (A) (A) (A) (A) (A) (A) (A) (A) (A)
                 (A) (A) (A) (A) (A) (A) (A) (A) (A) (A) (A) (A)
                 (A) (A) (A) (A) (A) (A) (A) (A) (A) (A) (A) (A)
                 (A) (A) (A) (A) (A) (A) (A) (A) (A) (A) (A) (A)
                 (A) (A) (A) (A) (A) (A) (A) (A) (A) (A) (A) (A)
                 (A) (A) (A) (A) (A) (A) (A) (A) (A) (A) (A) (A)
                 (A) (A) (A) (A) (A) (A) (A) (A) (A) (A) (A) (A)
                 (A) (A) (A) (A) (A) (A) (A) (A) (A) (A) (A) (A)
                 (A) (A) (A) (A) (A) (A) (A)
       Virtual   (A) (A) (A) (A) (A) (A) (A) (A) (A) (A) (A) (A)
                 (A) (A) (A) (A) (A) (A) (A) (A) (A) (A) (A) (A)
                 (A) (A) (A) (A) (A) (A) (A) (A) (A) (A) (A) (A)
                 (A) (A) (A) (A) (A) (A) (A) (A) (A) (A) (A) (A)
                 (A) (A) (A) (A) (A) (A) (A) (A) (A) (A) (A) (A)
                 (A) (A) (A) (A) (A) (A) (A) (A) (A) (A) (A) (A)
                 (A) (A) (A) (A) (A) (A) (A) (A) (A) (A) (A) (A)
                 (A) (A) (A) (A) (A) (A) (A) (A) (A) (A) (A) (A)
                 (A) (A) (A) (A) (A) (A) (A) (A) (A) (A) (A) (A)
                 (A) (A) (A) (A) (A) (A) (A) (A) (A) (A) (A) (A)
                 (A) (A) (A) (A) (A) (A) (A) (A) (A) (A) (A) (A)
                 (A) (A) (A) (A) (A) (A) (A) (A) (A) (A) (A) (A)
                 (A) (A) (A) (A) (A) (A) (A) (A) (A) (A) (A) (A)
                 (A) (A) (A) (A) (A) (A) (A) (A) (A) (A) (A) (A)
                 (A) (A) (A) (A) (A) (A) (A) (A) (A) (A) (A) (A)
                 (A) (A) (A) (A) (A) (A) (A) (A) (A) (A) (A) (A)
                 (A) (A) (A) (A) (A) (A) (A) (A) (A) (A) (A) (A)
                 (A) (A) (A) (A) (A) (A) (A) (A) (A) (A) (A) (A)
                 (A) (A) (A) (A) (A) (A) (A) (A) (A) (A) (A) (A)
                 (A) (A) (A) (A) (A) (A) (A) (A) (A) (A) (A) (A)
                 (A) (A) (A) (A) (A) (A) (A) (A) (A) (A) (A) (A)
                 (A) (A) (A) (A) (A) (A) (A) (A) (A) (A) (A) (A)
                 (A) (A) (A) (A) (A) (A) (A) (A) (A) (A) (A) (A)
                 (A) (A) (A) (A) (A) (A) (A) (A) (A) (A) (A) (A)
                 (A) (A) (A) (A) (A) (A) (A) (A) (A) (A) (A) (A)
                 (A) (A) (A) (A) (A) (A) (A) (A) (A) (A) (A) (A)
                 (A) (A) (A) (A) (A) (A) (A) (A) (A) (A) (A) (A)
                 (A) (A) (A) (A) (A) (A) (A) (A) (A) (A) (A) (A)
                 (A) (A) (A) (A) (A) (A) (A) (A) (A) (A) (A) (A)
                 (A) (A) (A) (A) (A) (A) (A) (A) (A) (A) (A) (A)
                 (A) (A) (A) (A) (A) (A) (A) (A) (A) (A) (A) (A)
                 (A) (A) (A) (A) (A) (A) (A) (A) (A) (A) (A) (A)
                 (A) (A) (A) (A) (A) (A) (A) (A) (A) (A) (A) (A)
                 (A) (A) (A) (A) (A) (A) (A) (A) (A) (A) (A) (A)
                 (A) (A) (A) (A) (A) (A) (A) (A) (A) (A) (A) (A)
                 (A) (A) (A) (A) (A) (A) (A) (A) (A) (A) (A) (A)
                 (A) (A) (A) (A) (A) (A) (A) (A) (A) (A) (A) (A)
                 (A) (A) (A) (A) (A) (A) (A) (A) (A) (A) (A) (A)
                 (A) (A) (A) (A) (A) (A) (A) (A) (A) (A) (A) (A)
                 (A) (A) (A) (A) (A) (A) (A)
 The electronic state is 1-A.
 Alpha  occ. eigenvalues --  -19.17277 -19.17151 -19.17107 -19.16578 -19.15707
 Alpha  occ. eigenvalues --  -19.15045 -19.14883 -19.14855 -19.14337 -19.11846
 Alpha  occ. eigenvalues --  -14.35498 -14.34399 -10.28460 -10.27955 -10.25082
 Alpha  occ. eigenvalues --  -10.25071 -10.25043 -10.24715 -10.24527 -10.24499
 Alpha  occ. eigenvalues --  -10.24430 -10.23885 -10.23487 -10.23199 -10.22518
 Alpha  occ. eigenvalues --  -10.22174 -10.18886 -10.18797 -10.18512 -10.18327
 Alpha  occ. eigenvalues --   -1.06895  -1.06768  -1.03758  -1.03708  -1.03216
 Alpha  occ. eigenvalues --   -1.02466  -1.01047  -1.00902  -1.00754  -0.99495
 Alpha  occ. eigenvalues --   -0.94912  -0.91259  -0.83731  -0.78563  -0.78236
 Alpha  occ. eigenvalues --   -0.77490  -0.76925  -0.73711  -0.72213  -0.68650
 Alpha  occ. eigenvalues --   -0.68452  -0.65846  -0.65579  -0.63400  -0.62250
 Alpha  occ. eigenvalues --   -0.59751  -0.59493  -0.56768  -0.56392  -0.55324
 Alpha  occ. eigenvalues --   -0.54520  -0.54404  -0.53152  -0.52444  -0.52229
 Alpha  occ. eigenvalues --   -0.51402  -0.50710  -0.50398  -0.49533  -0.49016
 Alpha  occ. eigenvalues --   -0.48688  -0.47800  -0.46914  -0.46112  -0.45694
 Alpha  occ. eigenvalues --   -0.45243  -0.44854  -0.44335  -0.43787  -0.43127
 Alpha  occ. eigenvalues --   -0.42483  -0.41887  -0.41566  -0.41162  -0.40998
 Alpha  occ. eigenvalues --   -0.40411  -0.39605  -0.39153  -0.38322  -0.38002
 Alpha  occ. eigenvalues --   -0.37656  -0.36369  -0.36121  -0.35740  -0.35513
 Alpha  occ. eigenvalues --   -0.34920  -0.34470  -0.33956  -0.33328  -0.32559
 Alpha  occ. eigenvalues --   -0.32096  -0.30915  -0.30112  -0.29951  -0.28693
 Alpha  occ. eigenvalues --   -0.28424  -0.28089  -0.27610  -0.26903  -0.26541
 Alpha  occ. eigenvalues --   -0.26398  -0.25554  -0.24583  -0.23979  -0.21409
 Alpha virt. eigenvalues --   -0.00368   0.00473   0.04927   0.05596   0.06260
 Alpha virt. eigenvalues --    0.07003   0.07558   0.08970   0.09410   0.09883
 Alpha virt. eigenvalues --    0.10470   0.10545   0.11317   0.11720   0.12177
 Alpha virt. eigenvalues --    0.12659   0.13414   0.13640   0.14405   0.14461
 Alpha virt. eigenvalues --    0.15160   0.15488   0.15761   0.16074   0.16432
 Alpha virt. eigenvalues --    0.16681   0.17230   0.17482   0.17820   0.18129
 Alpha virt. eigenvalues --    0.18770   0.19032   0.19357   0.19799   0.20881
 Alpha virt. eigenvalues --    0.21008   0.21971   0.22234   0.22656   0.23286
 Alpha virt. eigenvalues --    0.23462   0.23763   0.24424   0.25171   0.25305
 Alpha virt. eigenvalues --    0.26328   0.27067   0.27232   0.28307   0.29528
 Alpha virt. eigenvalues --    0.29767   0.30606   0.31025   0.32523   0.33335
 Alpha virt. eigenvalues --    0.33521   0.34127   0.34613   0.35439   0.36440
 Alpha virt. eigenvalues --    0.39325   0.48809   0.50148   0.50940   0.51914
 Alpha virt. eigenvalues --    0.52742   0.53300   0.53440   0.53873   0.53993
 Alpha virt. eigenvalues --    0.54380   0.55030   0.55637   0.55941   0.56147
 Alpha virt. eigenvalues --    0.56855   0.57450   0.57762   0.58341   0.58558
 Alpha virt. eigenvalues --    0.58837   0.59591   0.60006   0.60539   0.60713
 Alpha virt. eigenvalues --    0.61071   0.61255   0.61829   0.62892   0.63300
 Alpha virt. eigenvalues --    0.63821   0.64794   0.65283   0.65922   0.67035
 Alpha virt. eigenvalues --    0.67685   0.68551   0.68922   0.69071   0.69513
 Alpha virt. eigenvalues --    0.70073   0.70680   0.71595   0.72887   0.73726
 Alpha virt. eigenvalues --    0.74431   0.75333   0.75873   0.76502   0.76917
 Alpha virt. eigenvalues --    0.77483   0.77723   0.78596   0.79198   0.80022
 Alpha virt. eigenvalues --    0.80322   0.80609   0.80752   0.81321   0.81521
 Alpha virt. eigenvalues --    0.81954   0.82640   0.83207   0.83657   0.84089
 Alpha virt. eigenvalues --    0.84468   0.84680   0.85417   0.85735   0.86352
 Alpha virt. eigenvalues --    0.86535   0.87282   0.87847   0.87994   0.88799
 Alpha virt. eigenvalues --    0.89521   0.90125   0.90237   0.91136   0.91676
 Alpha virt. eigenvalues --    0.93015   0.93316   0.94387   0.94677   0.95178
 Alpha virt. eigenvalues --    0.95391   0.96457   0.96730   0.97583   0.98657
 Alpha virt. eigenvalues --    0.98969   0.99746   1.00103   1.01487   1.01805
 Alpha virt. eigenvalues --    1.02580   1.03503   1.04196   1.05215   1.06671
 Alpha virt. eigenvalues --    1.06990   1.07630   1.09025   1.09376   1.10493
 Alpha virt. eigenvalues --    1.11351   1.12210   1.12535   1.13150   1.13755
 Alpha virt. eigenvalues --    1.14922   1.15536   1.16104   1.18094   1.18871
 Alpha virt. eigenvalues --    1.20376   1.20834   1.21687   1.22523   1.23010
 Alpha virt. eigenvalues --    1.23382   1.24337   1.25764   1.25956   1.26114
 Alpha virt. eigenvalues --    1.26515   1.28407   1.29353   1.30629   1.31731
 Alpha virt. eigenvalues --    1.34945   1.35750   1.36893   1.37820   1.39210
 Alpha virt. eigenvalues --    1.39882   1.40094   1.40883   1.41489   1.41779
 Alpha virt. eigenvalues --    1.42288   1.43741   1.44558   1.44704   1.46492
 Alpha virt. eigenvalues --    1.46801   1.47883   1.48814   1.49723   1.51955
 Alpha virt. eigenvalues --    1.52182   1.53348   1.55268   1.55737   1.56474
 Alpha virt. eigenvalues --    1.57840   1.57999   1.58575   1.58692   1.59244
 Alpha virt. eigenvalues --    1.60151   1.61801   1.62049   1.63022   1.63462
 Alpha virt. eigenvalues --    1.63594   1.64084   1.65726   1.67827   1.68753
 Alpha virt. eigenvalues --    1.68906   1.70070   1.70758   1.71958   1.72222
 Alpha virt. eigenvalues --    1.72539   1.75058   1.75593   1.76538   1.77292
 Alpha virt. eigenvalues --    1.77883   1.78080   1.78888   1.78964   1.80272
 Alpha virt. eigenvalues --    1.81013   1.81670   1.82449   1.83426   1.85085
 Alpha virt. eigenvalues --    1.85600   1.86808   1.87575   1.87799   1.88333
 Alpha virt. eigenvalues --    1.89362   1.89497   1.90566   1.90711   1.91094
 Alpha virt. eigenvalues --    1.92238   1.93125   1.93375   1.93690   1.93897
 Alpha virt. eigenvalues --    1.94680   1.94957   1.95266   1.96628   1.97651
 Alpha virt. eigenvalues --    1.98914   1.99335   1.99790   2.00363   2.00634
 Alpha virt. eigenvalues --    2.00880   2.02050   2.03086   2.03748   2.04554
 Alpha virt. eigenvalues --    2.05235   2.05994   2.06288   2.06953   2.07284
 Alpha virt. eigenvalues --    2.07883   2.10202   2.11270   2.12039   2.13780
 Alpha virt. eigenvalues --    2.14212   2.14934   2.15496   2.16216   2.17682
 Alpha virt. eigenvalues --    2.18285   2.18773   2.20702   2.21553   2.22387
 Alpha virt. eigenvalues --    2.23957   2.24209   2.24705   2.25014   2.25536
 Alpha virt. eigenvalues --    2.26576   2.27889   2.28546   2.29583   2.30228
 Alpha virt. eigenvalues --    2.32603   2.32956   2.33513   2.33989   2.34657
 Alpha virt. eigenvalues --    2.34753   2.35341   2.36331   2.37614   2.38038
 Alpha virt. eigenvalues --    2.38726   2.39273   2.39608   2.39988   2.40472
 Alpha virt. eigenvalues --    2.40985   2.41831   2.42361   2.42947   2.44225
 Alpha virt. eigenvalues --    2.44539   2.44674   2.45545   2.46587   2.47678
 Alpha virt. eigenvalues --    2.48859   2.49665   2.50469   2.50935   2.51243
 Alpha virt. eigenvalues --    2.52564   2.54587   2.55146   2.56110   2.56692
 Alpha virt. eigenvalues --    2.57360   2.57997   2.59087   2.59997   2.60477
 Alpha virt. eigenvalues --    2.60675   2.61373   2.62029   2.62968   2.63395
 Alpha virt. eigenvalues --    2.64103   2.64543   2.64859   2.65061   2.66273
 Alpha virt. eigenvalues --    2.66688   2.67121   2.67419   2.67643   2.68867
 Alpha virt. eigenvalues --    2.69401   2.70501   2.70957   2.71502   2.71877
 Alpha virt. eigenvalues --    2.72884   2.74741   2.75284   2.76012   2.76199
 Alpha virt. eigenvalues --    2.77121   2.77251   2.77711   2.78592   2.79219
 Alpha virt. eigenvalues --    2.79745   2.80257   2.81417   2.82459   2.83064
 Alpha virt. eigenvalues --    2.84084   2.85197   2.85580   2.86067   2.87579
 Alpha virt. eigenvalues --    2.88348   2.88627   2.89213   2.89621   2.90117
 Alpha virt. eigenvalues --    2.91820   2.92074   2.94664   2.95568   2.95781
 Alpha virt. eigenvalues --    2.96532   2.98347   2.98857   2.99842   3.03000
 Alpha virt. eigenvalues --    3.03599   3.05146   3.06340   3.06647   3.08566
 Alpha virt. eigenvalues --    3.09879   3.11817   3.14043   3.16645   3.17899
 Alpha virt. eigenvalues --    3.22362   3.24199   3.26074   3.30305   3.32728
 Alpha virt. eigenvalues --    3.35107   3.35437   3.36197   3.37325   3.37565
 Alpha virt. eigenvalues --    3.38137   3.38305   3.40700   3.41392   3.42060
 Alpha virt. eigenvalues --    3.43096   3.43642   3.43988   3.45544   3.45619
 Alpha virt. eigenvalues --    3.47681   3.48991   3.49385   3.49887   3.50408
 Alpha virt. eigenvalues --    3.51845   3.53000   3.56251   3.62842   3.85004
 Alpha virt. eigenvalues --    3.89061   3.90225   3.94013   3.94270   4.00213
 Alpha virt. eigenvalues --    4.03072   4.06160   4.10582   4.13932   4.17616
 Alpha virt. eigenvalues --    4.19819   4.20348   4.24267   4.32394   4.38022
 Alpha virt. eigenvalues --    4.41001   4.43113   4.46489   4.48259   4.50241
 Alpha virt. eigenvalues --    4.53747   4.59507   4.67341   4.72043   4.72864
 Alpha virt. eigenvalues --    4.76446   4.82251   4.86254   4.87594   5.05569
          Condensed to atoms (all electrons):
 Mulliken charges:
               1
     1  O   -0.585809
     2  C    0.124243
     3  C    0.307485
     4  N   -0.700902
     5  C    0.250718
     6  C   -0.132269
     7  C   -0.114308
     8  C   -0.118829
     9  C   -0.101199
    10  C    0.151229
    11  N   -0.606598
    12  C    0.314517
    13  C    0.122772
    14  C    0.189760
    15  C    0.092590
    16  C    0.156323
    17  C    0.053437
    18  O   -0.614891
    19  O   -0.552092
    20  O   -0.585428
    21  O   -0.585327
    22  O   -0.580421
    23  O   -0.518061
    24  C    0.122024
    25  C    0.069876
    26  O   -0.596916
    27  C    0.151862
    28  O   -0.580427
    29  C    0.150791
    30  O   -0.576365
    31  H    0.340551
    32  H    0.120224
    33  H    0.121197
    34  H    0.310686
    35  H    0.117548
    36  H    0.097244
    37  H    0.095172
    38  H    0.101231
    39  H    0.272978
    40  H    0.128424
    41  H    0.123548
    42  H    0.117963
    43  H    0.127013
    44  H    0.114040
    45  H    0.094499
    46  H    0.105127
    47  H    0.353038
    48  H    0.336005
    49  H    0.330793
    50  H    0.342380
    51  H    0.111176
    52  H    0.107823
    53  H    0.100283
    54  H    0.330027
    55  H    0.120695
    56  H    0.342179
    57  H    0.104776
    58  H    0.325594
 Sum of Mulliken charges =  -0.00000
 Mulliken charges with hydrogens summed into heavy atoms:
               1
     1  O   -0.245258
     2  C    0.244467
     3  C    0.428682
     4  N   -0.390216
     5  C    0.250718
     6  C   -0.014721
     7  C   -0.017064
     8  C   -0.023657
     9  C    0.000032
    10  C    0.151229
    11  N   -0.333620
    12  C    0.442941
    13  C    0.246320
    14  C    0.307723
    15  C    0.219603
    16  C    0.270363
    17  C    0.253064
    18  O   -0.261853
    19  O   -0.552092
    20  O   -0.249423
    21  O   -0.254533
    22  O   -0.238041
    23  O   -0.518061
    24  C    0.233200
    25  C    0.277983
    26  O   -0.266889
    27  C    0.272557
    28  O   -0.238248
    29  C    0.255567
    30  O   -0.250771
 APT charges:
               1
     1  O   -0.194059
     2  C   -0.299056
     3  C    0.010568
     4  N   -0.524104
     5  C   -0.472267
     6  C   -0.474391
     7  C   -0.472203
     8  C   -0.441474
     9  C   -0.387224
    10  C   -0.573028
    11  N   -0.246212
    12  C   -0.024582
    13  C   -0.564545
    14  C   -0.290262
    15  C   -0.699385
    16  C   -0.106536
    17  C   -0.576805
    18  O   -0.284820
    19  O   -0.485289
    20  O   -1.465459
    21  O   -1.256135
    22  O   -0.252057
    23  O   -0.430917
    24  C   -0.409510
    25  C   -0.194643
    26  O   -0.525017
    27  C   -0.316862
    28  O   -1.433131
    29  C   -0.765549
    30  O   -0.524133
    31  H   -0.012369
    32  H    0.501756
    33  H    0.312983
    34  H    0.291475
    35  H    0.390438
    36  H    0.809659
    37  H    0.940182
    38  H    0.667215
    39  H    0.177389
    40  H    0.285163
    41  H    0.626490
    42  H    0.577892
    43  H    0.873350
    44  H    0.223685
    45  H    0.099880
    46  H    0.610721
    47  H    0.109489
    48  H    1.371426
    49  H    1.175303
    50  H    0.180347
    51  H    0.292998
    52  H    0.350141
    53  H    0.192256
    54  H    0.478114
    55  H    0.622009
    56  H    1.246405
    57  H    0.751423
    58  H    0.533269
 Sum of APT charges =  -0.00000
 APT charges with hydrogens summed into heavy atoms:
               1
     1  O   -0.206427
     2  C    0.202700
     3  C    0.323550
     4  N   -0.232628
     5  C   -0.472267
     6  C   -0.083953
     7  C    0.337456
     8  C    0.498708
     9  C    0.279991
    10  C   -0.573028
    11  N   -0.068824
    12  C    0.260580
    13  C    0.061945
    14  C    0.287630
    15  C    0.173965
    16  C    0.117149
    17  C    0.133796
    18  O   -0.175331
    19  O   -0.485289
    20  O   -0.094033
    21  O   -0.080832
    22  O   -0.071711
    23  O   -0.430917
    24  C   -0.116512
    25  C    0.347755
    26  O   -0.046904
    27  C    0.305146
    28  O   -0.186727
    29  C   -0.014126
    30  O    0.009136
 Electronic spatial extent (au):  <R**2>=          14854.6519
 Charge=             -0.0000 electrons
 Dipole moment (field-independent basis, Debye):
    X=             -0.9571    Y=             -0.1723    Z=              1.1186  Tot=              1.4822
 Quadrupole moment (field-independent basis, Debye-Ang):
   XX=           -170.6486   YY=           -171.9017   ZZ=           -181.9462
   XY=              6.5344   XZ=            -42.7356   YZ=             -0.7877
 Traceless Quadrupole moment (field-independent basis, Debye-Ang):
   XX=              4.1835   YY=              2.9305   ZZ=             -7.1140
   XY=              6.5344   XZ=            -42.7356   YZ=             -0.7877
 Octapole moment (field-independent basis, Debye-Ang**2):
  XXX=             48.6108  YYY=            -12.1148  ZZZ=              3.0161  XYY=            -51.2243
  XXY=              1.1111  XXZ=             53.2088  XZZ=            -44.0165  YZZ=              9.7342
  YYZ=              9.0817  XYZ=             86.3602
 Hexadecapole moment (field-independent basis, Debye-Ang**3):
 XXXX=         -12420.1525 YYYY=          -3455.5141 ZZZZ=          -1852.6112 XXXY=            434.6727
 XXXZ=          -1634.4228 YYYX=             89.0058 YYYZ=             23.9545 ZZZX=           -176.2562
 ZZZY=            -62.6895 XXYY=          -2849.1065 XXZZ=          -2485.7306 YYZZ=           -914.8079
 XXYZ=           -103.1453 YYXZ=           -206.8899 ZZXY=            107.3869
 N-N= 3.316915827677D+03 E-N=-1.029211374153D+04  KE= 1.550639664625D+03
  Exact polarizability:   0.000   0.000   0.000   0.000   0.000   0.000
 Approx polarizability: 357.305 -11.135 353.001  15.548  40.007 290.903
 D2PCM: PCM CHGder 2nd derivatives, FixD1E=F FixD2E=F DoIter=F DoCFld=F I1PDM=0
 Calling FoFJK, ICntrl=    100147 FMM=F ISym2X=0 I1Cent= 0 IOpClX= 0 NMat=1 NMatS=1 NMatT=0.
 ***** Axes restored to original set *****
 -------------------------------------------------------------------
 Center     Atomic                   Forces (Hartrees/Bohr)
 Number     Number              X              Y              Z
 -------------------------------------------------------------------
      1        8           0.009019112   -0.012489729    0.017103313
      2        6          -0.001228300   -0.000602890   -0.009553671
      3        6           0.020014290    0.001220394   -0.005720266
      4        7           0.011453982    0.020963286    0.019973265
      5        6          -0.003279592   -0.019249840   -0.006246014
      6        6          -0.008305484   -0.010589487    0.005875013
      7        6           0.003528430    0.000938723   -0.002588857
      8        6          -0.004680576   -0.006498456    0.004042839
      9        6          -0.006104183    0.004888440   -0.000714216
     10        6          -0.002620763   -0.006517074    0.002120891
     11        7          -0.010524830   -0.000526729    0.009297775
     12        6           0.006464509   -0.001491706   -0.011743426
     13        6           0.008118463    0.005935234   -0.005627293
     14        6           0.020485503    0.001739080   -0.004908954
     15        6          -0.006637742   -0.006699563    0.018341066
     16        6          -0.009083324    0.024176731    0.008419065
     17        6           0.011112241   -0.001770400   -0.009626227
     18        8           0.009995216    0.003260694   -0.001227128
     19        8           0.014448680   -0.011601511    0.000844533
     20        8           0.000018628    0.006005949    0.005236252
     21        8           0.004155098    0.005180954   -0.011669704
     22        8          -0.006981069   -0.012529909    0.002777954
     23        8          -0.007609573   -0.009901279   -0.000764126
     24        6          -0.005436545    0.001316832    0.013617157
     25        6           0.005505827    0.004016614    0.006298220
     26        8          -0.002410698    0.004626657   -0.011205603
     27        6          -0.009551595   -0.001616503   -0.002814151
     28        8          -0.006197682    0.003282569   -0.003188942
     29        6          -0.005395350   -0.014275960   -0.006839531
     30        8           0.001417203   -0.009744128    0.001833348
     31        1          -0.011008406    0.014691574   -0.011336083
     32        1           0.000658466    0.000696112    0.001989361
     33        1           0.002782279   -0.001100044   -0.003093091
     34        1          -0.011635558    0.003331968   -0.008569537
     35        1           0.002262108    0.002481843   -0.002107840
     36        1           0.000948169    0.001769917   -0.001134003
     37        1           0.000098935    0.004047151    0.000451955
     38        1          -0.000317973    0.002964407   -0.000414379
     39        1           0.007964406   -0.001078165   -0.003521652
     40        1          -0.002558987   -0.000430866   -0.006177833
     41        1          -0.004234557   -0.000814942    0.005908140
     42        1          -0.010179648    0.000164252    0.007576082
     43        1          -0.004572387   -0.000811228   -0.010470607
     44        1           0.006270792   -0.001857212    0.001437831
     45        1          -0.008186321   -0.002561971    0.007566507
     46        1           0.000598298   -0.000910447    0.001553753
     47        1          -0.003518713    0.006259050    0.003869701
     48        1          -0.008573217   -0.000991720   -0.006974579
     49        1          -0.007977063   -0.004776245   -0.003166519
     50        1           0.006724344    0.005395786    0.001417516
     51        1           0.000175751    0.006708813   -0.003549366
     52        1          -0.001668657   -0.001477618   -0.003341027
     53        1           0.000999768   -0.000492213   -0.004540239
     54        1           0.001756291   -0.008420569    0.005508717
     55        1           0.004835291   -0.005929656   -0.003836441
     56        1           0.009716317    0.006198597    0.006172382
     57        1          -0.003641582    0.011354224   -0.000130359
     58        1           0.002591975    0.004142207    0.007569026
 -------------------------------------------------------------------
 Cartesian Forces:  Max     0.024176731 RMS     0.007474069
 FormGI is forming the generalized inverse of G from B-inverse, IUseBI=4.

 GradGradGradGradGradGradGradGradGradGradGradGradGradGradGradGradGradGrad
 Berny optimization.
 Internal  Forces:  Max     0.020373992 RMS     0.004956499
 Search for a local minimum.
 Step number   1 out of a maximum of  346
 All quantities printed in internal units (Hartrees-Bohrs-Radians)
 Mixed Optimization -- RFO/linear search
 Second derivative matrix not updated -- analytic derivatives used.
 ITU=  0
     Eigenvalues ---   -0.00980  -0.00263  -0.00156  -0.00091  -0.00054
     Eigenvalues ---   -0.00025   0.00039   0.00142   0.00181   0.00251
     Eigenvalues ---    0.00312   0.00354   0.00418   0.00696   0.00912
     Eigenvalues ---    0.01029   0.01108   0.01252   0.01365   0.01559
     Eigenvalues ---    0.01708   0.01730   0.01772   0.02127   0.02246
     Eigenvalues ---    0.02399   0.02603   0.02730   0.02738   0.02750
     Eigenvalues ---    0.02824   0.02858   0.03179   0.03951   0.04129
     Eigenvalues ---    0.04203   0.04442   0.04513   0.04759   0.04933
     Eigenvalues ---    0.04975   0.05007   0.05084   0.05224   0.05387
     Eigenvalues ---    0.05518   0.05596   0.05719   0.05800   0.05917
     Eigenvalues ---    0.06071   0.06291   0.06380   0.06488   0.06693
     Eigenvalues ---    0.06871   0.06929   0.07081   0.07216   0.07236
     Eigenvalues ---    0.07500   0.07695   0.08259   0.08454   0.08823
     Eigenvalues ---    0.10244   0.10472   0.10785   0.11266   0.11436
     Eigenvalues ---    0.11679   0.12241   0.12518   0.12656   0.13241
     Eigenvalues ---    0.13503   0.13602   0.13915   0.14320   0.14988
     Eigenvalues ---    0.15102   0.15719   0.15902   0.16286   0.16475
     Eigenvalues ---    0.16741   0.17182   0.17531   0.18106   0.18278
     Eigenvalues ---    0.18494   0.18717   0.18892   0.19049   0.19104
     Eigenvalues ---    0.19340   0.19589   0.20208   0.20513   0.20919
     Eigenvalues ---    0.21044   0.21710   0.23265   0.23441   0.24071
     Eigenvalues ---    0.24242   0.24298   0.24713   0.25509   0.26161
     Eigenvalues ---    0.26460   0.26550   0.27303   0.28020   0.28134
     Eigenvalues ---    0.30338   0.30441   0.30923   0.31010   0.31585
     Eigenvalues ---    0.31751   0.31822   0.31892   0.32170   0.32396
     Eigenvalues ---    0.32534   0.32604   0.32655   0.32704   0.33037
     Eigenvalues ---    0.33240   0.33370   0.33429   0.33762   0.34665
     Eigenvalues ---    0.34829   0.34916   0.35257   0.35346   0.35596
     Eigenvalues ---    0.35897   0.36506   0.37104   0.37368   0.37699
     Eigenvalues ---    0.38495   0.38564   0.38801   0.39062   0.39176
     Eigenvalues ---    0.40045   0.41088   0.42315   0.43378   0.44101
     Eigenvalues ---    0.45239   0.45976   0.46692   0.47101   0.47299
     Eigenvalues ---    0.47490   0.48527   0.48848   0.49182   0.49531
     Eigenvalues ---    0.52325   0.65172   0.66378
 RFO step:  Lambda=-3.26419562D-02 EMin=-9.80312521D-03
 Linear search not attempted -- first point.
 Maximum step size (   0.300) exceeded in Quadratic search.
    -- Step size scaled by   0.934
 Iteration  1 RMS(Cart)=  0.13971340 RMS(Int)=  0.01294554
 Iteration  2 RMS(Cart)=  0.01477783 RMS(Int)=  0.00075830
 Iteration  3 RMS(Cart)=  0.00069675 RMS(Int)=  0.00033058
 Iteration  4 RMS(Cart)=  0.00000148 RMS(Int)=  0.00033058
 Iteration  5 RMS(Cart)=  0.00000000 RMS(Int)=  0.00033058
 Variable       Old X    -DE/DX   Delta X   Delta X   Delta X     New X
                                 (Linear)    (Quad)   (Total)
    R1        2.72343  -0.00636   0.00000  -0.03296  -0.03296   2.69047
    R2        1.87385  -0.02037   0.00000  -0.02892  -0.02892   1.84493
    R3        2.94626   0.00863   0.00000   0.02471   0.02469   2.97095
    R4        2.88839   0.00786   0.00000   0.01801   0.01809   2.90648
    R5        2.06909   0.00025   0.00000   0.00498   0.00498   2.07407
    R6        2.77601  -0.01204   0.00000  -0.02523  -0.02523   2.75078
    R7        2.68854   0.00453   0.00000   0.00708   0.00698   2.69552
    R8        2.07663   0.00002   0.00000  -0.00137  -0.00137   2.07526
    R9        2.65305   0.01615   0.00000   0.04527   0.04527   2.69832
   R10        1.95574  -0.01187   0.00000  -0.02715  -0.02715   1.92858
   R11        2.63348   0.00718   0.00000   0.01031   0.01032   2.64379
   R12        2.69838  -0.00008   0.00000  -0.01432  -0.01431   2.68407
   R13        2.65207  -0.00510   0.00000  -0.01094  -0.01094   2.64113
   R14        2.04775  -0.00166   0.00000  -0.00873  -0.00873   2.03903
   R15        2.64158  -0.00572   0.00000  -0.00677  -0.00678   2.63480
   R16        2.05790  -0.00213   0.00000  -0.00448  -0.00448   2.05341
   R17        2.63348   0.00346   0.00000   0.00244   0.00243   2.63590
   R18        2.06354  -0.00401   0.00000  -0.01047  -0.01047   2.05308
   R19        2.64274  -0.00363   0.00000  -0.00502  -0.00501   2.63772
   R20        2.05458  -0.00140   0.00000  -0.00234  -0.00234   2.05224
   R21        2.70234   0.01501   0.00000   0.01401   0.01401   2.71635
   R22        2.77203   0.00974   0.00000  -0.00325  -0.00325   2.76879
   R23        1.93619  -0.00340   0.00000  -0.00984  -0.00984   1.92635
   R24        2.91088   0.00087   0.00000  -0.01351  -0.01343   2.89745
   R25        2.70192   0.00623   0.00000   0.01058   0.01054   2.71245
   R26        2.08528  -0.00490   0.00000  -0.01153  -0.01153   2.07375
   R27        2.89703  -0.00006   0.00000   0.00178   0.00169   2.89872
   R28        2.72754  -0.00727   0.00000  -0.02291  -0.02291   2.70463
   R29        2.07399  -0.00151   0.00000  -0.00189  -0.00189   2.07209
   R30        2.91554   0.01197   0.00000   0.02689   0.02684   2.94238
   R31        2.68735   0.00412   0.00000  -0.00443  -0.00443   2.68292
   R32        2.06836   0.00225   0.00000   0.00764   0.00764   2.07600
   R33        2.91251  -0.00750   0.00000  -0.01861  -0.01851   2.89400
   R34        2.74105  -0.00197   0.00000  -0.01948  -0.01948   2.72157
   R35        2.08179  -0.00504   0.00000  -0.00872  -0.00872   2.07307
   R36        2.92116   0.00279   0.00000  -0.00415  -0.00415   2.91700
   R37        2.71921   0.00998   0.00000   0.01713   0.01713   2.73634
   R38        2.07941  -0.00223   0.00000  -0.00801  -0.00801   2.07140
   R39        2.67429   0.00167   0.00000   0.00086   0.00086   2.67515
   R40        2.07166   0.00231   0.00000   0.00702   0.00702   2.07867
   R41        2.07132   0.00001   0.00000  -0.00069  -0.00069   2.07063
   R42        1.85648  -0.00675   0.00000  -0.01059  -0.01059   1.84589
   R43        1.84665  -0.01092   0.00000  -0.01860  -0.01860   1.82804
   R44        1.84256  -0.00922   0.00000  -0.01529  -0.01529   1.82727
   R45        1.85403  -0.00803   0.00000  -0.02030  -0.02030   1.83374
   R46        2.67742   0.00291   0.00000   0.00772   0.00763   2.68505
   R47        2.90954  -0.00740   0.00000  -0.02040  -0.02040   2.88913
   R48        2.89459  -0.00041   0.00000   0.00390   0.00391   2.89849
   R49        2.06660   0.00688   0.00000   0.01500   0.01500   2.08160
   R50        2.70456  -0.00395   0.00000  -0.01114  -0.01114   2.69342
   R51        2.07257   0.00114   0.00000   0.00668   0.00668   2.07925
   R52        2.08104  -0.00144   0.00000  -0.00631  -0.00631   2.07472
   R53        1.85237  -0.00969   0.00000  -0.01123  -0.01123   1.84115
   R54        2.70465   0.00611   0.00000   0.01060   0.01060   2.71525
   R55        2.90849  -0.00124   0.00000  -0.00277  -0.00265   2.90584
   R56        2.07480   0.00002   0.00000  -0.00015  -0.00015   2.07465
   R57        1.85310  -0.01247   0.00000  -0.02206  -0.02206   1.83104
   R58        2.69106   0.00399   0.00000  -0.00559  -0.00559   2.68547
   R59        2.05667   0.00754   0.00000   0.02044   0.02044   2.07711
   R60        1.84592  -0.00795   0.00000  -0.01090  -0.01090   1.83503
    A1        1.80498   0.01203   0.00000   0.02087   0.02087   1.82585
    A2        1.96869   0.00387   0.00000  -0.01864  -0.01853   1.95016
    A3        1.91559  -0.00388   0.00000  -0.00437  -0.00388   1.91171
    A4        1.84384  -0.00025   0.00000   0.02196   0.02182   1.86566
    A5        1.97497   0.00114   0.00000   0.01256   0.01166   1.98662
    A6        1.87698  -0.00167   0.00000   0.00172   0.00222   1.87920
    A7        1.87624   0.00063   0.00000  -0.01214  -0.01203   1.86420
    A8        1.96537   0.00845   0.00000   0.00602   0.00563   1.97100
    A9        2.00876  -0.00638   0.00000  -0.03116  -0.03199   1.97678
   A10        1.84529   0.00072   0.00000   0.00771   0.00818   1.85346
   A11        1.95998  -0.00413   0.00000  -0.01190  -0.01205   1.94792
   A12        1.82600  -0.00230   0.00000   0.00813   0.00794   1.83394
   A13        1.83959   0.00407   0.00000   0.02900   0.02948   1.86907
   A14        2.21447  -0.01370   0.00000  -0.00880  -0.00894   2.20553
   A15        1.89128  -0.00014   0.00000   0.00769   0.00745   1.89873
   A16        1.85368   0.01168   0.00000   0.03297   0.03283   1.88651
   A17        2.18836  -0.00693   0.00000   0.00003  -0.00005   2.18831
   A18        2.03472   0.00515   0.00000  -0.00917  -0.00924   2.02548
   A19        2.05799   0.00176   0.00000   0.01042   0.01038   2.06837
   A20        2.10622   0.00098   0.00000  -0.00286  -0.00286   2.10336
   A21        2.11402  -0.00410   0.00000  -0.02092  -0.02095   2.09308
   A22        2.06275   0.00313   0.00000   0.02398   0.02396   2.08670
   A23        2.10676  -0.00058   0.00000   0.00237   0.00236   2.10911
   A24        2.08479  -0.00050   0.00000  -0.00641  -0.00641   2.07838
   A25        2.09159   0.00108   0.00000   0.00406   0.00406   2.09566
   A26        2.08981  -0.00151   0.00000  -0.01009  -0.01011   2.07970
   A27        2.09726   0.00088   0.00000   0.00800   0.00801   2.10527
[...]
   411    O   28  px     Ryd( 3p)     0.00241
   412    O   28  py     Val( 2p)     1.69665
   413    O   28  py     Ryd( 3p)     0.00100
   414    O   28  pz     Val( 2p)     1.88408
   415    O   28  pz     Ryd( 3p)     0.00206
   416    O   28  dxy    Ryd( 3d)     0.00131
   417    O   28  dxz    Ryd( 3d)     0.00028
   418    O   28  dyz    Ryd( 3d)     0.00137
   419    O   28  dx2y2  Ryd( 3d)     0.00113
   420    O   28  dz2    Ryd( 3d)     0.00072

   421    C   29  S      Cor( 1S)     1.99905
   422    C   29  S      Val( 2S)     0.96613
   423    C   29  S      Ryd( 3S)     0.00270
   424    C   29  S      Ryd( 4S)     0.00006
   425    C   29  px     Val( 2p)     1.09758
   426    C   29  px     Ryd( 3p)     0.00464
   427    C   29  py     Val( 2p)     0.77185
   428    C   29  py     Ryd( 3p)     0.00599
   429    C   29  pz     Val( 2p)     1.09205
   430    C   29  pz     Ryd( 3p)     0.00510
   431    C   29  dxy    Ryd( 3d)     0.00134
   432    C   29  dxz    Ryd( 3d)     0.00101
   433    C   29  dyz    Ryd( 3d)     0.00176
   434    C   29  dx2y2  Ryd( 3d)     0.00153
   435    C   29  dz2    Ryd( 3d)     0.00094

   436    O   30  S      Cor( 1S)     1.99983
   437    O   30  S      Val( 2S)     1.68298
   438    O   30  S      Ryd( 3S)     0.00118
   439    O   30  S      Ryd( 4S)     0.00003
   440    O   30  px     Val( 2p)     1.82531
   441    O   30  px     Ryd( 3p)     0.00182
   442    O   30  py     Val( 2p)     1.45914
   443    O   30  py     Ryd( 3p)     0.00226
   444    O   30  pz     Val( 2p)     1.80474
   445    O   30  pz     Ryd( 3p)     0.00148
   446    O   30  dxy    Ryd( 3d)     0.00073
   447    O   30  dxz    Ryd( 3d)     0.00131
   448    O   30  dyz    Ryd( 3d)     0.00095
   449    O   30  dx2y2  Ryd( 3d)     0.00073
   450    O   30  dz2    Ryd( 3d)     0.00141

   451    H   31  S      Val( 1S)     0.48319
   452    H   31  S      Ryd( 2S)     0.00161
   453    H   31  px     Ryd( 2p)     0.00112
   454    H   31  py     Ryd( 2p)     0.00074
   455    H   31  pz     Ryd( 2p)     0.00085

   456    H   32  S      Val( 1S)     0.75742
   457    H   32  S      Ryd( 2S)     0.00247
   458    H   32  px     Ryd( 2p)     0.00009
   459    H   32  py     Ryd( 2p)     0.00025
   460    H   32  pz     Ryd( 2p)     0.00029

   461    H   33  S      Val( 1S)     0.75179
   462    H   33  S      Ryd( 2S)     0.00226
   463    H   33  px     Ryd( 2p)     0.00011
   464    H   33  py     Ryd( 2p)     0.00041
   465    H   33  pz     Ryd( 2p)     0.00010

   466    H   34  S      Val( 1S)     0.53595
   467    H   34  S      Ryd( 2S)     0.00412
   468    H   34  px     Ryd( 2p)     0.00051
   469    H   34  py     Ryd( 2p)     0.00033
   470    H   34  pz     Ryd( 2p)     0.00040

   471    H   35  S      Val( 1S)     0.74408
   472    H   35  S      Ryd( 2S)     0.00332
   473    H   35  px     Ryd( 2p)     0.00037
   474    H   35  py     Ryd( 2p)     0.00019
   475    H   35  pz     Ryd( 2p)     0.00018

   476    H   36  S      Val( 1S)     0.76513
   477    H   36  S      Ryd( 2S)     0.00085
   478    H   36  px     Ryd( 2p)     0.00026
   479    H   36  py     Ryd( 2p)     0.00016
   480    H   36  pz     Ryd( 2p)     0.00022

   481    H   37  S      Val( 1S)     0.76053
   482    H   37  S      Ryd( 2S)     0.00083
   483    H   37  px     Ryd( 2p)     0.00008
   484    H   37  py     Ryd( 2p)     0.00035
   485    H   37  pz     Ryd( 2p)     0.00019

   486    H   38  S      Val( 1S)     0.76309
   487    H   38  S      Ryd( 2S)     0.00111
   488    H   38  px     Ryd( 2p)     0.00034
   489    H   38  py     Ryd( 2p)     0.00016
   490    H   38  pz     Ryd( 2p)     0.00017

   491    H   39  S      Val( 1S)     0.58103
   492    H   39  S      Ryd( 2S)     0.00357
   493    H   39  px     Ryd( 2p)     0.00033
   494    H   39  py     Ryd( 2p)     0.00044
   495    H   39  pz     Ryd( 2p)     0.00055

   496    H   40  S      Val( 1S)     0.74782
   497    H   40  S      Ryd( 2S)     0.00307
   498    H   40  px     Ryd( 2p)     0.00012
   499    H   40  py     Ryd( 2p)     0.00015
   500    H   40  pz     Ryd( 2p)     0.00038

   501    H   41  S      Val( 1S)     0.75253
   502    H   41  S      Ryd( 2S)     0.00246
   503    H   41  px     Ryd( 2p)     0.00015
   504    H   41  py     Ryd( 2p)     0.00035
   505    H   41  pz     Ryd( 2p)     0.00010

   506    H   42  S      Val( 1S)     0.75763
   507    H   42  S      Ryd( 2S)     0.00214
   508    H   42  px     Ryd( 2p)     0.00024
   509    H   42  py     Ryd( 2p)     0.00023
   510    H   42  pz     Ryd( 2p)     0.00013

   511    H   43  S      Val( 1S)     0.75484
   512    H   43  S      Ryd( 2S)     0.00214
   513    H   43  px     Ryd( 2p)     0.00020
   514    H   43  py     Ryd( 2p)     0.00032
   515    H   43  pz     Ryd( 2p)     0.00009

   516    H   44  S      Val( 1S)     0.74527
   517    H   44  S      Ryd( 2S)     0.00295
   518    H   44  px     Ryd( 2p)     0.00016
   519    H   44  py     Ryd( 2p)     0.00007
   520    H   44  pz     Ryd( 2p)     0.00039

   521    H   45  S      Val( 1S)     0.78913
   522    H   45  S      Ryd( 2S)     0.00239
   523    H   45  px     Ryd( 2p)     0.00041
   524    H   45  py     Ryd( 2p)     0.00011
   525    H   45  pz     Ryd( 2p)     0.00009

   526    H   46  S      Val( 1S)     0.77256
   527    H   46  S      Ryd( 2S)     0.00133
   528    H   46  px     Ryd( 2p)     0.00013
   529    H   46  py     Ryd( 2p)     0.00033
   530    H   46  pz     Ryd( 2p)     0.00016

   531    H   47  S      Val( 1S)     0.49920
   532    H   47  S      Ryd( 2S)     0.00455
   533    H   47  px     Ryd( 2p)     0.00089
   534    H   47  py     Ryd( 2p)     0.00119
   535    H   47  pz     Ryd( 2p)     0.00059

   536    H   48  S      Val( 1S)     0.49631
   537    H   48  S      Ryd( 2S)     0.00132
   538    H   48  px     Ryd( 2p)     0.00112
   539    H   48  py     Ryd( 2p)     0.00087
   540    H   48  pz     Ryd( 2p)     0.00070

   541    H   49  S      Val( 1S)     0.48084
   542    H   49  S      Ryd( 2S)     0.00104
   543    H   49  px     Ryd( 2p)     0.00106
   544    H   49  py     Ryd( 2p)     0.00086
   545    H   49  pz     Ryd( 2p)     0.00076

   546    H   50  S      Val( 1S)     0.47362
   547    H   50  S      Ryd( 2S)     0.00215
   548    H   50  px     Ryd( 2p)     0.00108
   549    H   50  py     Ryd( 2p)     0.00089
   550    H   50  pz     Ryd( 2p)     0.00066

   551    H   51  S      Val( 1S)     0.76652
   552    H   51  S      Ryd( 2S)     0.00399
   553    H   51  px     Ryd( 2p)     0.00008
   554    H   51  py     Ryd( 2p)     0.00032
   555    H   51  pz     Ryd( 2p)     0.00021

   556    H   52  S      Val( 1S)     0.79378
   557    H   52  S      Ryd( 2S)     0.00246
   558    H   52  px     Ryd( 2p)     0.00011
   559    H   52  py     Ryd( 2p)     0.00026
   560    H   52  pz     Ryd( 2p)     0.00025

   561    H   53  S      Val( 1S)     0.76865
   562    H   53  S      Ryd( 2S)     0.00163
   563    H   53  px     Ryd( 2p)     0.00031
   564    H   53  py     Ryd( 2p)     0.00013
   565    H   53  pz     Ryd( 2p)     0.00016

   566    H   54  S      Val( 1S)     0.49529
   567    H   54  S      Ryd( 2S)     0.00266
   568    H   54  px     Ryd( 2p)     0.00076
   569    H   54  py     Ryd( 2p)     0.00081
   570    H   54  pz     Ryd( 2p)     0.00113

   571    H   55  S      Val( 1S)     0.75621
   572    H   55  S      Ryd( 2S)     0.00272
   573    H   55  px     Ryd( 2p)     0.00013
   574    H   55  py     Ryd( 2p)     0.00022
   575    H   55  pz     Ryd( 2p)     0.00025

   576    H   56  S      Val( 1S)     0.48337
   577    H   56  S      Ryd( 2S)     0.00119
   578    H   56  px     Ryd( 2p)     0.00096
   579    H   56  py     Ryd( 2p)     0.00078
   580    H   56  pz     Ryd( 2p)     0.00089

   581    H   57  S      Val( 1S)     0.76408
   582    H   57  S      Ryd( 2S)     0.00264
   583    H   57  px     Ryd( 2p)     0.00027
   584    H   57  py     Ryd( 2p)     0.00006
   585    H   57  pz     Ryd( 2p)     0.00028

   586    H   58  S      Val( 1S)     0.49115
   587    H   58  S      Ryd( 2S)     0.00424
   588    H   58  px     Ryd( 2p)     0.00109
   589    H   58  py     Ryd( 2p)     0.00062
   590    H   58  pz     Ryd( 2p)     0.00099

 WARNING:  1 low occupancy (<1.9990e) core orbital  found on  C    5
           1 low occupancy (<1.9990e) core orbital  found on  C   10


 Summary of Natural Population Analysis:                  
                                                          
                                       Natural Population 
                Natural  -----------------------------------------------
    Atom  No    Charge         Core      Valence    Rydberg      Total
 -----------------------------------------------------------------------
      O    1   -0.77878      1.99982     6.76732    0.01164     8.77878
      C    2    0.03254      1.99907     3.94678    0.02160     5.96746
      C    3    0.22777      1.99917     3.74457    0.02849     5.77223
      N    4   -0.59406      1.99938     5.58312    0.01155     7.59406
      C    5    0.16416      1.99890     3.81637    0.02057     5.83584
      C    6   -0.36189      1.99908     4.34257    0.02024     6.36189
      C    7   -0.29502      1.99914     4.27766    0.01822     6.29502
      C    8   -0.18649      1.99912     4.17177    0.01561     6.18649
      C    9   -0.36730      1.99906     4.34780    0.02044     6.36730
      C   10    0.08318      1.99890     3.89442    0.02350     5.91682
      N   11   -0.64321      1.99943     5.62785    0.01593     7.64321
      C   12    0.23851      1.99909     3.73564    0.02677     5.76149
      C   13    0.04735      1.99901     3.93082    0.02283     5.95265
      C   14    0.04483      1.99906     3.93306    0.02305     5.95517
      C   15    0.03394      1.99907     3.94540    0.02160     5.96606
      C   16    0.03625      1.99905     3.94295    0.02175     5.96375
      C   17   -0.12052      1.99919     4.10128    0.02004     6.12052
      O   18   -0.79572      1.99984     6.78382    0.01206     8.79572
      O   19   -0.64238      1.99977     6.62886    0.01375     8.64238
      O   20   -0.78180      1.99983     6.76976    0.01220     8.78180
      O   21   -0.78492      1.99980     6.77287    0.01224     8.78492
      O   22   -0.79187      1.99982     6.78003    0.01202     8.79187
      O   23   -0.59039      1.99977     6.57808    0.01255     8.59039
      C   24    0.02946      1.99907     3.94927    0.02220     5.97054
      C   25   -0.11181      1.99922     4.09243    0.02015     6.11181
      O   26   -0.78669      1.99985     6.77514    0.01170     8.78669
      C   27    0.05002      1.99902     3.92878    0.02218     5.94998
      O   28   -0.78605      1.99982     6.77437    0.01186     8.78605
      C   29    0.04826      1.99905     3.92761    0.02508     5.95174
      O   30   -0.78389      1.99983     6.77216    0.01190     8.78389
      H   31    0.51249      0.00000     0.48319    0.00432     0.48751
      H   32    0.23948      0.00000     0.75742    0.00310     0.76052
      H   33    0.24532      0.00000     0.75179    0.00288     0.75468
      H   34    0.45869      0.00000     0.53595    0.00536     0.54131
      H   35    0.25187      0.00000     0.74408    0.00405     0.74813
      H   36    0.23337      0.00000     0.76513    0.00149     0.76663
      H   37    0.23802      0.00000     0.76053    0.00144     0.76198
      H   38    0.23513      0.00000     0.76309    0.00177     0.76487
      H   39    0.41409      0.00000     0.58103    0.00488     0.58591
      H   40    0.24845      0.00000     0.74782    0.00373     0.75155
      H   41    0.24441      0.00000     0.75253    0.00306     0.75559
      H   42    0.23962      0.00000     0.75763    0.00274     0.76038
      H   43    0.24242      0.00000     0.75484    0.00274     0.75758
      H   44    0.25117      0.00000     0.74527    0.00356     0.74883
      H   45    0.20787      0.00000     0.78913    0.00300     0.79213
      H   46    0.22549      0.00000     0.77256    0.00195     0.77451
      H   47    0.49358      0.00000     0.49920    0.00721     0.50642
      H   48    0.49968      0.00000     0.49631    0.00401     0.50032
      H   49    0.51542      0.00000     0.48084    0.00373     0.48458
      H   50    0.52160      0.00000     0.47362    0.00478     0.47840
      H   51    0.22887      0.00000     0.76652    0.00461     0.77113
      H   52    0.20314      0.00000     0.79378    0.00308     0.79686
      H   53    0.22913      0.00000     0.76865    0.00222     0.77087
      H   54    0.49936      0.00000     0.49529    0.00536     0.50064
      H   55    0.24047      0.00000     0.75621    0.00332     0.75953
      H   56    0.51280      0.00000     0.48337    0.00383     0.48720
      H   57    0.23266      0.00000     0.76408    0.00326     0.76734
      H   58    0.50192      0.00000     0.49115    0.00694     0.49808
 =======================================================================
   * Total *   -0.00000     59.98023   169.37361    0.64617   230.00000

                                 Natural Population      
 --------------------------------------------------------
   Core                      59.98023 ( 99.9670% of  60)
   Valence                  169.37361 ( 99.6315% of 170)
   Natural Minimal Basis    229.35383 ( 99.7191% of 230)
   Natural Rydberg Basis      0.64617 (  0.2809% of 230)
 --------------------------------------------------------

    Atom  No          Natural Electron Configuration
 ----------------------------------------------------------------------------
      O    1      [core]2S( 1.68)2p( 5.09)3p( 0.01)3d( 0.01)
      C    2      [core]2S( 0.97)2p( 2.97)3p( 0.01)3d( 0.01)
      C    3      [core]2S( 0.93)2p( 2.81)3p( 0.02)3d( 0.01)
      N    4      [core]2S( 1.29)2p( 4.30)3p( 0.01)
      C    5      [core]2S( 0.85)2p( 2.97)3p( 0.01)
      C    6      [core]2S( 0.95)2p( 3.39)3p( 0.02)
      C    7      [core]2S( 0.96)2p( 3.32)3p( 0.01)
      C    8      [core]2S( 0.97)2p( 3.20)3p( 0.01)
      C    9      [core]2S( 0.95)2p( 3.40)3p( 0.02)
      C   10      [core]2S( 0.83)2p( 3.06)3p( 0.02)
      N   11      [core]2S( 1.30)2p( 4.33)3p( 0.01)
      C   12      [core]2S( 0.93)2p( 2.81)3p( 0.01)3d( 0.01)
      C   13      [core]2S( 0.96)2p( 2.97)3p( 0.01)3d( 0.01)
      C   14      [core]2S( 0.97)2p( 2.96)3p( 0.01)3d( 0.01)
      C   15      [core]2S( 0.97)2p( 2.97)3p( 0.01)3d( 0.01)
      C   16      [core]2S( 0.97)2p( 2.97)3p( 0.01)3d( 0.01)
      C   17      [core]2S( 1.02)2p( 3.08)3p( 0.01)3d( 0.01)
      O   18      [core]2S( 1.68)2p( 5.11)3p( 0.01)3d( 0.01)
      O   19      [core]2S( 1.62)2p( 5.01)3p( 0.01)
      O   20      [core]2S( 1.69)2p( 5.08)3p( 0.01)3d( 0.01)
      O   21      [core]2S( 1.68)2p( 5.09)3p( 0.01)
      O   22      [core]2S( 1.68)2p( 5.10)3p( 0.01)
      O   23      [core]2S( 1.62)2p( 4.96)3p( 0.01)3d( 0.01)
      C   24      [core]2S( 0.97)2p( 2.98)3p( 0.01)3d( 0.01)
      C   25      [core]2S( 1.02)2p( 3.07)3p( 0.01)3d( 0.01)
      O   26      [core]2S( 1.68)2p( 5.09)3p( 0.01)3d( 0.01)
      C   27      [core]2S( 0.97)2p( 2.96)3p( 0.01)3d( 0.01)
      O   28      [core]2S( 1.69)2p( 5.09)3p( 0.01)
      C   29      [core]2S( 0.97)2p( 2.96)3p( 0.02)3d( 0.01)
      O   30      [core]2S( 1.68)2p( 5.09)3p( 0.01)3d( 0.01)
      H   31            1S( 0.48)
      H   32            1S( 0.76)
      H   33            1S( 0.75)
      H   34            1S( 0.54)
      H   35            1S( 0.74)
      H   36            1S( 0.77)
      H   37            1S( 0.76)
      H   38            1S( 0.76)
      H   39            1S( 0.58)
      H   40            1S( 0.75)
      H   41            1S( 0.75)
      H   42            1S( 0.76)
      H   43            1S( 0.75)
      H   44            1S( 0.75)
      H   45            1S( 0.79)
      H   46            1S( 0.77)
      H   47            1S( 0.50)
      H   48            1S( 0.50)
      H   49            1S( 0.48)
      H   50            1S( 0.47)
      H   51            1S( 0.77)
      H   52            1S( 0.79)
      H   53            1S( 0.77)
      H   54            1S( 0.50)
      H   55            1S( 0.76)
      H   56            1S( 0.48)
      H   57            1S( 0.76)
      H   58            1S( 0.49)


 NBO analysis skipped by request.
 1\1\GINC-DRG2-W014\SP\RB3LYP TD-FC\6-31G(d,p)\C18H28N2O10\QDUEZ\22-Jul
 -2024\0\\# TD(NStates=10, Root=1) B3LYP/6-31G** SCRF=(Solvent=water) v
 olume pop=NPA density=current Geom=AllCheck Guess=Read\\LIBPKBFUVQJULU
 -KPHUVODXSA-N_conf_2\\0,1\O,0,-2.8385732033,-0.0978850355,-2.265396135
 3\C,0,-3.0072698226,0.8419550064,-1.211517594\C,0,-1.7860109082,0.8325
 409575,-0.2126767105\N,0,-0.7649931826,-0.1210452877,-0.5607986166\C,0
 ,-0.7484743684,-1.5030146962,-0.2416925847\C,0,-1.7797175294,-2.179074
 3998,0.4252307084\C,0,-1.6616794861,-3.5392711573,0.7186344848\C,0,-0.
 517192349,-4.2502710975,0.3599410774\C,0,0.4971971403,-3.5923305997,-0
 .3363878319\C,0,0.3957739539,-2.23553952,-0.6503022252\N,0,1.439957347
 ,-1.6287586929,-1.4193893565\C,0,2.5838336908,-1.1233593886,-0.7204559
 68\C,0,3.6808563982,-0.7089335753,-1.6978305814\C,0,4.932655685,-0.219
 4966782,-0.9284151756\C,0,4.6233693283,0.2695232045,0.5164917449\C,0,3
 .1910817278,0.7745555296,0.7746095997\C,0,2.9514729072,2.2537347929,0.
 4785681578\O,0,3.2043339916,2.6270412372,-0.8619973232\O,0,2.181893675
 3,0.0318696432,0.0563173657\O,0,4.7879366137,-0.8259430848,1.426831698
 5\O,0,5.541770032,0.7690919759,-1.7504795188\O,0,3.1495750738,0.324106
 5125,-2.5304044623\O,0,-2.2146451635,0.7029889644,1.1476838839\C,0,-3.
 2308511282,1.656501731,1.4457273721\C,0,-3.314219857,1.8249602489,2.96
 31526791\O,0,-4.2031517565,2.8744107471,3.3223173011\C,0,-4.5602909621
 ,1.1915692189,0.8316695585\O,0,-5.4059687059,2.3494084809,0.8071767062
 \C,0,-4.3779454014,0.5434109972,-0.5593459921\O,0,-4.5589353068,-0.857
 9416647,-0.416170778\H,0,-1.8865146804,-0.3022753656,-2.2828965262\H,0
 ,-3.0593100097,1.8556595024,-1.6313677511\H,0,-1.2979668288,1.81163420
 3,-0.3109423831\H,0,0.1661225731,0.2715380509,-0.4446580953\H,0,-2.666
 2767743,-1.6376760331,0.722240723\H,0,-2.472250287,-4.037443686,1.2430
 323739\H,0,-0.4225403698,-5.3056983699,0.5955376309\H,0,1.380390683,-4
 .1285418606,-0.6711830136\H,0,1.086252484,-0.9194443072,-2.0563725449\
 H,0,2.9680607494,-1.8976850468,-0.0472832921\H,0,3.9481127121,-1.57329
 44952,-2.3177023167\H,0,5.6036779787,-1.0802725624,-0.8156065217\H,0,5
 .3226988992,1.0821956141,0.7570868477\H,0,3.017335402,0.6240209201,1.8
 489225083\H,0,1.9113616579,2.4757079841,0.7687425471\H,0,3.6034174856,
 2.8563957792,1.122174401\H,0,2.8990425917,1.8941395143,-1.4295014572\H
 ,0,5.7064137089,-1.1266729839,1.3753847504\H,0,6.4843644109,0.81069700
 87,-1.5438745895\H,0,3.9222232897,0.7260512614,-2.9623755728\H,0,-2.97
 22496534,2.635555608,1.0093824352\H,0,-3.6137703557,0.8646861901,3.413
 5685453\H,0,-2.3222344452,2.0784824245,3.3510440306\H,0,-4.9360533003,
 2.8527340754,2.6824894771\H,0,-4.9972004094,0.4147524326,1.4731970147\
 H,0,-6.3156198095,2.0599945838,0.6467067619\H,0,-5.1536980055,0.954977
 2683,-1.224233592\H,0,-4.0955781309,-1.2450220798,-1.1798910503\\Versi
 on=ES64L-G16RevA.03\State=1-A\HF=-1564.4939254\RMSD=5.116e-09\Dipole=3
 .0070696,0.473287,-1.1831504\Quadrupole=42.3615614,-24.0154362,-18.346
 1251,-10.3015958,3.4588942,-3.7766044\PG=C01 [X(C18H28N2O10)]\\@


 THE WORLD IS MADE UP OF THE WILLS, THE WON'TS, AND THE CANT'S:
 THE WILLS DO EVERYTHING,
 THE WON'TS DO NOTHING,
 THE CAN'TS CAN'T DO ANYTHING.

                               -- FROM WALT DISNEY'S "BLACK HOLE"
 Job cpu time:       0 days  4 hours 25 minutes 31.8 seconds.
 Elapsed time:       0 days  0 hours 29 minutes 35.8 seconds.
 File lengths (MBytes):  RWF=   2838 Int=      0 D2E=      0 Chk=    169 Scr=      1
 Normal termination of Gaussian 16 at Mon Jul 22 17:39:59 2024.
