 Entering Gaussian System, Link 0=g16
 Initial command:
 /opt/sw/arch/manual/gaussian/G16_A03/g16/l1.exe "/scratch/1381586/Gau-139930.inp" -scrdir="/scratch/1381586/"
 Entering Link 1 = /opt/sw/arch/manual/gaussian/G16_A03/g16/l1.exe PID=    139936.
  
 Copyright (c) 1988,1990,1992,1993,1995,1998,2003,2009,2016,
            Gaussian, Inc.  All Rights Reserved.
  
 This is part of the Gaussian(R) 16 program.  It is based on
 the Gaussian(R) 09 system (copyright 2009, Gaussian, Inc.),
 the Gaussian(R) 03 system (copyright 2003, Gaussian, Inc.),
 the Gaussian(R) 98 system (copyright 1998, Gaussian, Inc.),
 the Gaussian(R) 94 system (copyright 1995, Gaussian, Inc.),
 the Gaussian 92(TM) system (copyright 1992, Gaussian, Inc.),
 the Gaussian 90(TM) system (copyright 1990, Gaussian, Inc.),
 the Gaussian 88(TM) system (copyright 1988, Gaussian, Inc.),
 the Gaussian 86(TM) system (copyright 1986, Carnegie Mellon
 University), and the Gaussian 82(TM) system (copyright 1983,
 Carnegie Mellon University). Gaussian is a federally registered
 trademark of Gaussian, Inc.
  
 This software contains proprietary and confidential information,
 including trade secrets, belonging to Gaussian, Inc.
  
 This software is provided under written license and may be
 used, copied, transmitted, or stored only in accord with that
 written license.
  
 The following legend is applicable only to US Government
 contracts under FAR:
  
                    RESTRICTED RIGHTS LEGEND
  
 Use, reproduction and disclosure by the US Government is
 subject to restrictions as set forth in subparagraphs (a)
 and (c) of the Commercial Computer Software - Restricted
 Rights clause in FAR 52.227-19.
  
 Gaussian, Inc.
 340 Quinnipiac St., Bldg. 40, Wallingford CT 06492
  
  
 ---------------------------------------------------------------
 Warning -- This program may not be used in any manner that
 competes with the business of Gaussian, Inc. or will provide
 assistance to any competitor of Gaussian, Inc.  The licensee
 of this program is prohibited from giving any competitor of
 Gaussian, Inc. access to this program.  By using this program,
 the user acknowledges that Gaussian, Inc. is engaged in the
 business of creating and licensing software in the field of
 computational chemistry and represents and warrants to the
 licensee that it is not a competitor of Gaussian, Inc. and that
 it will not use this program in any manner prohibited above.
 ---------------------------------------------------------------
  

 Cite this work as:
 Gaussian 16, Revision A.03,
 M. J. Frisch, G. W. Trucks, H. B. Schlegel, G. E. Scuseria, 
 M. A. Robb, J. R. Cheeseman, G. Scalmani, V. Barone, 
 G. A. Petersson, H. Nakatsuji, X. Li, M. Caricato, A. V. Marenich, 
 J. Bloino, B. G. Janesko, R. Gomperts, B. Mennucci, H. P. Hratchian, 
 J. V. Ortiz, A. F. Izmaylov, J. L. Sonnenberg, D. Williams-Young, 
 F. Ding, F. Lipparini, F. Egidi, J. Goings, B. Peng, A. Petrone, 
 T. Henderson, D. Ranasinghe, V. G. Zakrzewski, J. Gao, N. Rega, 
 G. Zheng, W. Liang, M. Hada, M. Ehara, K. Toyota, R. Fukuda, 
 J. Hasegawa, M. Ishida, T. Nakajima, Y. Honda, O. Kitao, H. Nakai, 
 T. Vreven, K. Throssell, J. A. Montgomery, Jr., J. E. Peralta, 
 F. Ogliaro, M. J. Bearpark, J. J. Heyd, E. N. Brothers, K. N. Kudin, 
 V. N. Staroverov, T. A. Keith, R. Kobayashi, J. Normand, 
 K. Raghavachari, A. P. Rendell, J. C. Burant, S. S. Iyengar, 
 J. Tomasi, M. Cossi, J. M. Millam, M. Klene, C. Adamo, R. Cammi, 
 J. W. Ochterski, R. L. Martin, K. Morokuma, O. Farkas, 
 J. B. Foresman, and D. J. Fox, Gaussian, Inc., Wallingford CT, 2016.
 
 ******************************************
 Gaussian 16:  ES64L-G16RevA.03 25-Dec-2016
                22-Jul-2024 
 ******************************************
 %nprocshared=9
 Will use up to    9 processors via shared memory.
 %mem=18GB
 %Chk=LIBPKBFUVQJULU-KPHUVODXSA-N_conf_1_0.chk
 -------------------------------------------------------
 # opt=CalcFc B3LYP/6-31G** SCRF=(Solvent=water) scf=xqc
 -------------------------------------------------------
 1/10=4,18=20,19=15,26=3,38=1/1,3;
 2/9=110,12=2,17=6,18=5,40=1/2;
 3/5=1,6=6,7=101,11=2,25=1,30=1,70=2201,71=2,72=1,74=-5,140=1/1,2,3;
 4//1;
 5/5=2,8=3,13=1,38=5,53=1/2,8;
 8/6=4,10=90,11=11/1;
 11/6=1,8=1,9=11,15=111,16=1/1,2,10;
 10/6=1,13=1/2;
 6/7=2,8=2,9=2,10=2,28=1/1;
 7/10=1,18=20,25=1/1,2,3,16;
 1/10=4,18=20,19=15,26=3/3(2);
 2/9=110/2;
 99//99;
 2/9=110/2;
 3/5=1,6=6,7=101,11=2,25=1,30=1,70=2205,71=1,72=1,74=-5/1,2,3;
 4/5=5,16=3,69=1/1;
 5/5=2,8=3,13=1,38=5,53=1/2,8;
 7//1,2,3,16;
 1/18=20,19=15,26=3/3(-5);
 2/9=110/2;
 6/7=2,8=2,9=2,10=2,19=2,28=1/1;
 99/9=1/99;
 ----------------------------------
 LIBPKBFUVQJULU-KPHUVODXSA-N_conf_1
 ----------------------------------
 Symbolic Z-matrix:
 Charge =  0 Multiplicity = 1
 O                     3.549     1.42079  -2.71252 
 C                     3.17562   0.18371  -2.08996 
 C                     1.91095   0.33218  -1.20408 
 N                     2.05924   1.48162  -0.29865 
 C                     0.96676   2.39766  -0.3808 
 C                     1.2035    3.63853  -0.98612 
 C                     0.18305   4.57901  -1.10252 
 C                    -1.07997   4.29156  -0.59819 
 C                    -1.32908   3.05416   0.00377 
 C                    -0.33525   2.06792   0.0849 
 N                    -0.57064   0.81679   0.72175 
 C                    -1.84955   0.15681   0.36998 
 C                    -1.72345  -1.35568   0.68074 
 C                    -3.00456  -2.08238   0.22395 
 C                    -4.23325  -1.15912   0.20754 
 C                    -4.12088  -0.00347   1.21972 
 C                    -4.41672  -0.46478   2.65293 
 O                    -5.76798  -0.9122    2.75076 
 O                    -2.88079   0.71529   1.18805 
 O                    -4.32995  -0.60502  -1.12084 
 O                    -3.24717  -3.26612   0.98612 
 O                    -1.46217  -1.52897   2.09039 
 O                     1.58593  -0.79618  -0.38876 
 C                     2.66191  -1.70575  -0.09347 
 C                     2.31409  -2.47687   1.1949 
 O                     3.25127  -3.51685   1.46553 
 C                     4.01339  -0.97912   0.02224 
 O                     5.06764  -1.83577   0.4619 
 C                     4.38186  -0.40175  -1.3465 
 O                     5.44391   0.55492  -1.16987 
 H                     3.39456   2.09483  -2.01535 
 H                     2.91917  -0.51908  -2.89497 
 H                     1.06014   0.49302  -1.88295 
 H                     2.00709   1.12129   0.65867 
 H                     2.19358   3.89145  -1.35326 
 H                     0.3784    5.54132  -1.56877 
 H                    -1.87313   5.03206  -0.65392 
 H                    -2.31791   2.88257   0.42354 
 H                     0.20042   0.18864   0.49517 
 H                    -2.06584   0.31407  -0.69732 
 H                    -0.86617  -1.79436   0.15919 
 H                    -2.82554  -2.41963  -0.80613 
 H                    -5.15157  -1.73495   0.36703 
 H                    -4.88613   0.73749   0.95638 
 H                    -3.75891  -1.2822    2.96734 
 H                    -4.27382   0.36494   3.35186 
 H                    -5.90446  -1.169     3.68486 
 H                    -5.14402  -0.07039  -1.15181 
 H                    -4.00421  -3.72522   0.58631 
 H                    -1.04388  -0.69136   2.38739 
 H                     2.71968  -2.44085  -0.90739 
 H                     1.31485  -2.92764   1.10893 
 H                     2.27855  -1.7985    2.05592 
 H                     4.14642  -3.11586   1.37579 
 H                     3.95182  -0.17443   0.76354 
 H                     5.88617  -1.30842   0.33828 
 H                     4.8162   -1.19243  -1.9705 
 H                     5.43185   1.10173  -1.97986 
 

 GradGradGradGradGradGradGradGradGradGradGradGradGradGradGradGradGradGrad
 Berny optimization.
 Initialization pass.
                           ----------------------------
                           !    Initial Parameters    !
                           ! (Angstroms and Degrees)  !
 --------------------------                            --------------------------
 ! Name  Definition              Value          Derivative Info.                !
 --------------------------------------------------------------------------------
 ! R1    R(1,2)                  1.4344         calculate D2E/DX2 analytically  !
 ! R2    R(1,31)                 0.9819         calculate D2E/DX2 analytically  !
 ! R3    R(2,3)                  1.5512         calculate D2E/DX2 analytically  !
 ! R4    R(2,29)                 1.5331         calculate D2E/DX2 analytically  !
 ! R5    R(2,32)                 1.099          calculate D2E/DX2 analytically  !
 ! R6    R(3,4)                  1.4707         calculate D2E/DX2 analytically  !
 ! R7    R(3,23)                 1.4295         calculate D2E/DX2 analytically  !
 ! R8    R(3,33)                 1.1003         calculate D2E/DX2 analytically  !
 ! R9    R(4,5)                  1.4281         calculate D2E/DX2 analytically  !
 ! R10   R(4,34)                 1.0242         calculate D2E/DX2 analytically  !
 ! R11   R(5,6)                  1.4008         calculate D2E/DX2 analytically  !
 ! R12   R(5,10)                 1.4216         calculate D2E/DX2 analytically  !
 ! R13   R(6,7)                  1.3926         calculate D2E/DX2 analytically  !
 ! R14   R(6,35)                 1.0858         calculate D2E/DX2 analytically  !
 ! R15   R(7,8)                  1.39           calculate D2E/DX2 analytically  !
 ! R16   R(7,36)                 1.087          calculate D2E/DX2 analytically  !
 ! R17   R(8,9)                  1.3984         calculate D2E/DX2 analytically  !
 ! R18   R(8,37)                 1.0865         calculate D2E/DX2 analytically  !
 ! R19   R(9,10)                 1.4025         calculate D2E/DX2 analytically  !
 ! R20   R(9,38)                 1.0879         calculate D2E/DX2 analytically  !
 ! R21   R(10,11)                1.4235         calculate D2E/DX2 analytically  !
 ! R22   R(11,12)                1.4815         calculate D2E/DX2 analytically  !
 ! R23   R(11,39)                1.02           calculate D2E/DX2 analytically  !
 ! R24   R(12,13)                1.5492         calculate D2E/DX2 analytically  !
 ! R25   R(12,19)                1.4299         calculate D2E/DX2 analytically  !
 ! R26   R(12,40)                1.1003         calculate D2E/DX2 analytically  !
 ! R27   R(13,14)                1.5421         calculate D2E/DX2 analytically  !
 ! R28   R(13,22)                1.4441         calculate D2E/DX2 analytically  !
 ! R29   R(13,41)                1.0952         calculate D2E/DX2 analytically  !
 ! R30   R(14,15)                1.537          calculate D2E/DX2 analytically  !
 ! R31   R(14,21)                1.4286         calculate D2E/DX2 analytically  !
 ! R32   R(14,42)                1.0986         calculate D2E/DX2 analytically  !
 ! R33   R(15,16)                1.5403         calculate D2E/DX2 analytically  !
 ! R34   R(15,20)                1.4426         calculate D2E/DX2 analytically  !
 ! R35   R(15,43)                1.0956         calculate D2E/DX2 analytically  !
 ! R36   R(16,17)                1.5344         calculate D2E/DX2 analytically  !
 ! R37   R(16,19)                1.4337         calculate D2E/DX2 analytically  !
 ! R38   R(16,44)                1.0973         calculate D2E/DX2 analytically  !
 ! R39   R(17,18)                1.4268         calculate D2E/DX2 analytically  !
 ! R40   R(17,45)                1.0953         calculate D2E/DX2 analytically  !
 ! R41   R(17,46)                1.0942         calculate D2E/DX2 analytically  !
 ! R42   R(18,47)                0.9783         calculate D2E/DX2 analytically  !
 ! R43   R(20,48)                0.9744         calculate D2E/DX2 analytically  !
 ! R44   R(21,49)                0.9715         calculate D2E/DX2 analytically  !
 ! R45   R(22,50)                0.9822         calculate D2E/DX2 analytically  !
 ! R46   R(23,24)                1.4395         calculate D2E/DX2 analytically  !
 ! R47   R(24,25)                1.5413         calculate D2E/DX2 analytically  !
 ! R48   R(24,27)                1.5388         calculate D2E/DX2 analytically  !
 ! R49   R(24,51)                1.0983         calculate D2E/DX2 analytically  !
 ! R50   R(25,26)                1.4259         calculate D2E/DX2 analytically  !
 ! R51   R(25,52)                1.0996         calculate D2E/DX2 analytically  !
 ! R52   R(25,53)                1.0967         calculate D2E/DX2 analytically  !
 ! R53   R(26,54)                0.9849         calculate D2E/DX2 analytically  !
 ! R54   R(27,28)                1.4278         calculate D2E/DX2 analytically  !
 ! R55   R(27,29)                1.5305         calculate D2E/DX2 analytically  !
 ! R56   R(27,55)                1.0958         calculate D2E/DX2 analytically  !
 ! R57   R(28,56)                0.9815         calculate D2E/DX2 analytically  !
 ! R58   R(29,30)                1.4403         calculate D2E/DX2 analytically  !
 ! R59   R(29,57)                1.0969         calculate D2E/DX2 analytically  !
 ! R60   R(30,58)                0.9774         calculate D2E/DX2 analytically  !
 ! A1    A(2,1,31)             104.0587         calculate D2E/DX2 analytically  !
 ! A2    A(1,2,3)              112.1824         calculate D2E/DX2 analytically  !
 ! A3    A(1,2,29)             109.5735         calculate D2E/DX2 analytically  !
 ! A4    A(1,2,32)             107.1186         calculate D2E/DX2 analytically  !
 ! A5    A(3,2,29)             113.6449         calculate D2E/DX2 analytically  !
 ! A6    A(3,2,32)             106.8154         calculate D2E/DX2 analytically  !
 ! A7    A(29,2,32)            107.1344         calculate D2E/DX2 analytically  !
 ! A8    A(2,3,4)              110.1322         calculate D2E/DX2 analytically  !
 ! A9    A(2,3,23)             115.8189         calculate D2E/DX2 analytically  !
 ! A10   A(2,3,33)             106.9819         calculate D2E/DX2 analytically  !
 ! A11   A(4,3,23)             106.7794         calculate D2E/DX2 analytically  !
 ! A12   A(4,3,33)             110.0946         calculate D2E/DX2 analytically  !
 ! A13   A(23,3,33)            106.946          calculate D2E/DX2 analytically  !
 ! A14   A(3,4,5)              112.8787         calculate D2E/DX2 analytically  !
 ! A15   A(3,4,34)             107.1783         calculate D2E/DX2 analytically  !
 ! A16   A(5,4,34)             103.9149         calculate D2E/DX2 analytically  !
 ! A17   A(4,5,6)              117.6321         calculate D2E/DX2 analytically  !
 ! A18   A(4,5,10)             122.2106         calculate D2E/DX2 analytically  !
 ! A19   A(6,5,10)             120.121          calculate D2E/DX2 analytically  !
 ! A20   A(5,6,7)              120.6981         calculate D2E/DX2 analytically  !
 ! A21   A(5,6,35)             120.4348         calculate D2E/DX2 analytically  !
 ! A22   A(7,6,35)             118.8535         calculate D2E/DX2 analytically  !
 ! A23   A(6,7,8)              119.7244         calculate D2E/DX2 analytically  !
 ! A24   A(6,7,36)             120.1343         calculate D2E/DX2 analytically  !
 ! A25   A(8,7,36)             120.131          calculate D2E/DX2 analytically  !
 ! A26   A(7,8,9)              120.067          calculate D2E/DX2 analytically  !
 ! A27   A(7,8,37)             120.2486         calculate D2E/DX2 analytically  !
 ! A28   A(9,8,37)             119.6761         calculate D2E/DX2 analytically  !
 ! A29   A(8,9,10)             121.3936         calculate D2E/DX2 analytically  !
 ! A30   A(8,9,38)             117.8776         calculate D2E/DX2 analytically  !
 ! A31   A(10,9,38)            120.7225         calculate D2E/DX2 analytically  !
 ! A32   A(5,10,9)             117.8376         calculate D2E/DX2 analytically  !
 ! A33   A(5,10,11)            120.125          calculate D2E/DX2 analytically  !
 ! A34   A(9,10,11)            121.7872         calculate D2E/DX2 analytically  !
 ! A35   A(10,11,12)           115.3442         calculate D2E/DX2 analytically  !
 ! A36   A(10,11,39)           108.4739         calculate D2E/DX2 analytically  !
 ! A37   A(12,11,39)           108.9943         calculate D2E/DX2 analytically  !
 ! A38   A(11,12,13)           108.4827         calculate D2E/DX2 analytically  !
 ! A39   A(11,12,19)           108.2243         calculate D2E/DX2 analytically  !
 ! A40   A(11,12,40)           109.654          calculate D2E/DX2 analytically  !
 ! A41   A(13,12,19)           108.981          calculate D2E/DX2 analytically  !
 ! A42   A(13,12,40)           110.494          calculate D2E/DX2 analytically  !
 ! A43   A(19,12,40)           110.9388         calculate D2E/DX2 analytically  !
 ! A44   A(12,13,14)           109.453          calculate D2E/DX2 analytically  !
 ! A45   A(12,13,22)           109.1282         calculate D2E/DX2 analytically  !
 ! A46   A(12,13,41)           111.0543         calculate D2E/DX2 analytically  !
 ! A47   A(14,13,22)           112.5146         calculate D2E/DX2 analytically  !
 ! A48   A(14,13,41)           108.6919         calculate D2E/DX2 analytically  !
 ! A49   A(22,13,41)           105.9726         calculate D2E/DX2 analytically  !
 ! A50   A(13,14,15)           112.5949         calculate D2E/DX2 analytically  !
 ! A51   A(13,14,21)           111.9323         calculate D2E/DX2 analytically  !
 ! A52   A(13,14,42)           106.681          calculate D2E/DX2 analytically  !
 ! A53   A(15,14,21)           111.5713         calculate D2E/DX2 analytically  !
 ! A54   A(15,14,42)           107.7383         calculate D2E/DX2 analytically  !
 ! A55   A(21,14,42)           105.8755         calculate D2E/DX2 analytically  !
 ! A56   A(14,15,16)           112.665          calculate D2E/DX2 analytically  !
 ! A57   A(14,15,20)           107.1063         calculate D2E/DX2 analytically  !
 ! A58   A(14,15,43)           110.6585         calculate D2E/DX2 analytically  !
 ! A59   A(16,15,20)           108.7724         calculate D2E/DX2 analytically  !
 ! A60   A(16,15,43)           111.0885         calculate D2E/DX2 analytically  !
 ! A61   A(20,15,43)           106.2448         calculate D2E/DX2 analytically  !
 ! A62   A(15,16,17)           111.9715         calculate D2E/DX2 analytically  !
 ! A63   A(15,16,19)           115.1323         calculate D2E/DX2 analytically  !
 ! A64   A(15,16,44)           107.3406         calculate D2E/DX2 analytically  !
 ! A65   A(17,16,19)           109.7628         calculate D2E/DX2 analytically  !
 ! A66   A(17,16,44)           107.0215         calculate D2E/DX2 analytically  !
 ! A67   A(19,16,44)           105.0345         calculate D2E/DX2 analytically  !
 ! A68   A(16,17,18)           109.933          calculate D2E/DX2 analytically  !
 ! A69   A(16,17,45)           112.129          calculate D2E/DX2 analytically  !
 ! A70   A(16,17,46)           110.088          calculate D2E/DX2 analytically  !
 ! A71   A(18,17,45)           108.3653         calculate D2E/DX2 analytically  !
 ! A72   A(18,17,46)           108.5219         calculate D2E/DX2 analytically  !
 ! A73   A(45,17,46)           107.7038         calculate D2E/DX2 analytically  !
 ! A74   A(17,18,47)           106.2543         calculate D2E/DX2 analytically  !
 ! A75   A(12,19,16)           116.1455         calculate D2E/DX2 analytically  !
 ! A76   A(15,20,48)           107.2186         calculate D2E/DX2 analytically  !
 ! A77   A(14,21,49)           107.7189         calculate D2E/DX2 analytically  !
 ! A78   A(13,22,50)           105.6574         calculate D2E/DX2 analytically  !
 ! A79   A(3,23,24)            116.4738         calculate D2E/DX2 analytically  !
 ! A80   A(23,24,25)           108.5973         calculate D2E/DX2 analytically  !
 ! A81   A(23,24,27)           111.9331         calculate D2E/DX2 analytically  !
 ! A82   A(23,24,51)           108.072          calculate D2E/DX2 analytically  !
 ! A83   A(25,24,27)           111.8144         calculate D2E/DX2 analytically  !
 ! A84   A(25,24,51)           107.2472         calculate D2E/DX2 analytically  !
 ! A85   A(27,24,51)           109.0015         calculate D2E/DX2 analytically  !
 ! A86   A(24,25,26)           112.0392         calculate D2E/DX2 analytically  !
 ! A87   A(24,25,52)           110.1715         calculate D2E/DX2 analytically  !
 ! A88   A(24,25,53)           110.7391         calculate D2E/DX2 analytically  !
 ! A89   A(26,25,52)           108.2483         calculate D2E/DX2 analytically  !
 ! A90   A(26,25,53)           108.8704         calculate D2E/DX2 analytically  !
 ! A91   A(52,25,53)           106.5888         calculate D2E/DX2 analytically  !
 ! A92   A(25,26,54)           106.4462         calculate D2E/DX2 analytically  !
 ! A93   A(24,27,28)           112.8511         calculate D2E/DX2 analytically  !
 ! A94   A(24,27,29)           108.8041         calculate D2E/DX2 analytically  !
 ! A95   A(24,27,55)           110.3816         calculate D2E/DX2 analytically  !
 ! A96   A(28,27,29)           108.9018         calculate D2E/DX2 analytically  !
 ! A97   A(28,27,55)           105.888          calculate D2E/DX2 analytically  !
 ! A98   A(29,27,55)           109.9663         calculate D2E/DX2 analytically  !
 ! A99   A(27,28,56)           104.7516         calculate D2E/DX2 analytically  !
 ! A100  A(2,29,27)            112.8486         calculate D2E/DX2 analytically  !
 ! A101  A(2,29,30)            112.7052         calculate D2E/DX2 analytically  !
 ! A102  A(2,29,57)            108.1157         calculate D2E/DX2 analytically  !
 ! A103  A(27,29,30)           108.5677         calculate D2E/DX2 analytically  !
 ! A104  A(27,29,57)           109.3986         calculate D2E/DX2 analytically  !
 ! A105  A(30,29,57)           104.8674         calculate D2E/DX2 analytically  !
 ! A106  A(29,30,58)           105.1226         calculate D2E/DX2 analytically  !
 ! D1    D(31,1,2,3)            39.7004         calculate D2E/DX2 analytically  !
 ! D2    D(31,1,2,29)          -87.5041         calculate D2E/DX2 analytically  !
 ! D3    D(31,1,2,32)          156.603          calculate D2E/DX2 analytically  !
 ! D4    D(1,2,3,4)            -49.6378         calculate D2E/DX2 analytically  !
 ! D5    D(1,2,3,23)          -170.8986         calculate D2E/DX2 analytically  !
 ! D6    D(1,2,3,33)            70.0031         calculate D2E/DX2 analytically  !
 ! D7    D(29,2,3,4)            75.3544         calculate D2E/DX2 analytically  !
 ! D8    D(29,2,3,23)          -45.9064         calculate D2E/DX2 analytically  !
 ! D9    D(29,2,3,33)         -165.0047         calculate D2E/DX2 analytically  !
 ! D10   D(32,2,3,4)          -166.7219         calculate D2E/DX2 analytically  !
 ! D11   D(32,2,3,23)           72.0172         calculate D2E/DX2 analytically  !
 ! D12   D(32,2,3,33)          -47.0811         calculate D2E/DX2 analytically  !
 ! D13   D(1,2,29,27)          138.0817         calculate D2E/DX2 analytically  !
 ! D14   D(1,2,29,30)           14.6551         calculate D2E/DX2 analytically  !
 ! D15   D(1,2,29,57)         -100.7826         calculate D2E/DX2 analytically  !
 ! D16   D(3,2,29,27)           11.7038         calculate D2E/DX2 analytically  !
 ! D17   D(3,2,29,30)         -111.7228         calculate D2E/DX2 analytically  !
 ! D18   D(3,2,29,57)          132.8395         calculate D2E/DX2 analytically  !
 ! D19   D(32,2,29,27)        -106.0353         calculate D2E/DX2 analytically  !
 ! D20   D(32,2,29,30)         130.538          calculate D2E/DX2 analytically  !
 ! D21   D(32,2,29,57)          15.1003         calculate D2E/DX2 analytically  !
 ! D22   D(2,3,4,5)            126.8206         calculate D2E/DX2 analytically  !
 ! D23   D(2,3,4,34)          -119.3727         calculate D2E/DX2 analytically  !
 ! D24   D(23,3,4,5)          -106.6644         calculate D2E/DX2 analytically  !
 ! D25   D(23,3,4,34)            7.1423         calculate D2E/DX2 analytically  !
 ! D26   D(33,3,4,5)             9.0876         calculate D2E/DX2 analytically  !
 ! D27   D(33,3,4,34)          122.8943         calculate D2E/DX2 analytically  !
 ! D28   D(2,3,23,24)           22.0446         calculate D2E/DX2 analytically  !
 ! D29   D(4,3,23,24)         -100.9968         calculate D2E/DX2 analytically  !
 ! D30   D(33,3,23,24)         141.1625         calculate D2E/DX2 analytically  !
 ! D31   D(3,4,5,6)           -108.797          calculate D2E/DX2 analytically  !
 ! D32   D(3,4,5,10)            69.0137         calculate D2E/DX2 analytically  !
 ! D33   D(34,4,5,6)           135.4302         calculate D2E/DX2 analytically  !
 ! D34   D(34,4,5,10)          -46.7591         calculate D2E/DX2 analytically  !
 ! D35   D(4,5,6,7)            179.8754         calculate D2E/DX2 analytically  !
 ! D36   D(4,5,6,35)            -1.4831         calculate D2E/DX2 analytically  !
 ! D37   D(10,5,6,7)             2.0169         calculate D2E/DX2 analytically  !
 ! D38   D(10,5,6,35)         -179.3415         calculate D2E/DX2 analytically  !
 ! D39   D(4,5,10,9)           177.7344         calculate D2E/DX2 analytically  !
 ! D40   D(4,5,10,11)            3.3777         calculate D2E/DX2 analytically  !
 ! D41   D(6,5,10,9)            -4.508          calculate D2E/DX2 analytically  !
 ! D42   D(6,5,10,11)         -178.8647         calculate D2E/DX2 analytically  !
 ! D43   D(5,6,7,8)              0.8146         calculate D2E/DX2 analytically  !
 ! D44   D(5,6,7,36)           179.6461         calculate D2E/DX2 analytically  !
 ! D45   D(35,6,7,8)          -177.8481         calculate D2E/DX2 analytically  !
 ! D46   D(35,6,7,36)            0.9834         calculate D2E/DX2 analytically  !
 ! D47   D(6,7,8,9)             -1.0405         calculate D2E/DX2 analytically  !
 ! D48   D(6,7,8,37)           177.9033         calculate D2E/DX2 analytically  !
 ! D49   D(36,7,8,9)          -179.872          calculate D2E/DX2 analytically  !
 ! D50   D(36,7,8,37)           -0.9282         calculate D2E/DX2 analytically  !
 ! D51   D(7,8,9,10)            -1.613          calculate D2E/DX2 analytically  !
 ! D52   D(7,8,9,38)           177.4814         calculate D2E/DX2 analytically  !
 ! D53   D(37,8,9,10)          179.4372         calculate D2E/DX2 analytically  !
 ! D54   D(37,8,9,38)           -1.4684         calculate D2E/DX2 analytically  !
 ! D55   D(8,9,10,5)             4.3352         calculate D2E/DX2 analytically  !
 ! D56   D(8,9,10,11)          178.5924         calculate D2E/DX2 analytically  !
 ! D57   D(38,9,10,5)         -174.7336         calculate D2E/DX2 analytically  !
 ! D58   D(38,9,10,11)          -0.4764         calculate D2E/DX2 analytically  !
 ! D59   D(5,10,11,12)        -140.2913         calculate D2E/DX2 analytically  !
 ! D60   D(5,10,11,39)         -17.7477         calculate D2E/DX2 analytically  !
 ! D61   D(9,10,11,12)          45.5804         calculate D2E/DX2 analytically  !
 ! D62   D(9,10,11,39)         168.124          calculate D2E/DX2 analytically  !
 ! D63   D(10,11,12,13)        158.7132         calculate D2E/DX2 analytically  !
 ! D64   D(10,11,12,19)        -83.1803         calculate D2E/DX2 analytically  !
 ! D65   D(10,11,12,40)         37.9583         calculate D2E/DX2 analytically  !
 ! D66   D(39,11,12,13)         36.4477         calculate D2E/DX2 analytically  !
 ! D67   D(39,11,12,19)        154.5541         calculate D2E/DX2 analytically  !
 ! D68   D(39,11,12,40)        -84.3073         calculate D2E/DX2 analytically  !
 ! D69   D(11,12,13,14)       -175.7633         calculate D2E/DX2 analytically  !
 ! D70   D(11,12,13,22)         60.7095         calculate D2E/DX2 analytically  !
 ! D71   D(11,12,13,41)        -55.7528         calculate D2E/DX2 analytically  !
 ! D72   D(19,12,13,14)         66.612          calculate D2E/DX2 analytically  !
 ! D73   D(19,12,13,22)        -56.9152         calculate D2E/DX2 analytically  !
 ! D74   D(19,12,13,41)       -173.3775         calculate D2E/DX2 analytically  !
 ! D75   D(40,12,13,14)        -55.5296         calculate D2E/DX2 analytically  !
 ! D76   D(40,12,13,22)       -179.0568         calculate D2E/DX2 analytically  !
 ! D77   D(40,12,13,41)         64.4809         calculate D2E/DX2 analytically  !
 ! D78   D(11,12,19,16)       -165.8974         calculate D2E/DX2 analytically  !
 ! D79   D(13,12,19,16)        -48.1095         calculate D2E/DX2 analytically  !
 ! D80   D(40,12,19,16)         73.763          calculate D2E/DX2 analytically  !
 ! D81   D(12,13,14,15)        -26.1235         calculate D2E/DX2 analytically  !
 ! D82   D(12,13,14,21)       -152.7688         calculate D2E/DX2 analytically  !
 ! D83   D(12,13,14,42)         91.8588         calculate D2E/DX2 analytically  !
 ! D84   D(22,13,14,15)         95.3832         calculate D2E/DX2 analytically  !
 ! D85   D(22,13,14,21)        -31.2621         calculate D2E/DX2 analytically  !
 ! D86   D(22,13,14,42)       -146.6345         calculate D2E/DX2 analytically  !
 ! D87   D(41,13,14,15)       -147.5706         calculate D2E/DX2 analytically  !
 ! D88   D(41,13,14,21)         85.7841         calculate D2E/DX2 analytically  !
 ! D89   D(41,13,14,42)        -29.5883         calculate D2E/DX2 analytically  !
 ! D90   D(12,13,22,50)        -24.8247         calculate D2E/DX2 analytically  !
 ! D91   D(14,13,22,50)       -146.5162         calculate D2E/DX2 analytically  !
 ! D92   D(41,13,22,50)         94.8312         calculate D2E/DX2 analytically  !
 ! D93   D(13,14,15,16)        -27.3277         calculate D2E/DX2 analytically  !
 ! D94   D(13,14,15,20)         92.2368         calculate D2E/DX2 analytically  !
 ! D95   D(13,14,15,43)       -152.3691         calculate D2E/DX2 analytically  !
 ! D96   D(21,14,15,16)         99.5105         calculate D2E/DX2 analytically  !
 ! D97   D(21,14,15,20)       -140.9249         calculate D2E/DX2 analytically  !
 ! D98   D(21,14,15,43)        -25.5308         calculate D2E/DX2 analytically  !
 ! D99   D(42,14,15,16)       -144.6854         calculate D2E/DX2 analytically  !
 ! D100  D(42,14,15,20)        -25.1209         calculate D2E/DX2 analytically  !
 ! D101  D(42,14,15,43)         90.2732         calculate D2E/DX2 analytically  !
 ! D102  D(13,14,21,49)       -173.7362         calculate D2E/DX2 analytically  !
 ! D103  D(15,14,21,49)         59.0658         calculate D2E/DX2 analytically  !
 ! D104  D(42,14,21,49)        -57.8733         calculate D2E/DX2 analytically  !
 ! D105  D(14,15,16,17)        -77.8158         calculate D2E/DX2 analytically  !
 ! D106  D(14,15,16,19)         48.4834         calculate D2E/DX2 analytically  !
 ! D107  D(14,15,16,44)        165.0123         calculate D2E/DX2 analytically  !
 ! D108  D(20,15,16,17)        163.5896         calculate D2E/DX2 analytically  !
 ! D109  D(20,15,16,19)        -70.1112         calculate D2E/DX2 analytically  !
 ! D110  D(20,15,16,44)         46.4178         calculate D2E/DX2 analytically  !
 ! D111  D(43,15,16,17)         46.9907         calculate D2E/DX2 analytically  !
 ! D112  D(43,15,16,19)        173.2899         calculate D2E/DX2 analytically  !
 ! D113  D(43,15,16,44)        -70.1812         calculate D2E/DX2 analytically  !
 ! D114  D(14,15,20,48)        176.0003         calculate D2E/DX2 analytically  !
 ! D115  D(16,15,20,48)        -61.9647         calculate D2E/DX2 analytically  !
 ! D116  D(43,15,20,48)         57.6962         calculate D2E/DX2 analytically  !
 ! D117  D(15,16,17,18)        -63.6573         calculate D2E/DX2 analytically  !
 ! D118  D(15,16,17,45)         56.9581         calculate D2E/DX2 analytically  !
 ! D119  D(15,16,17,46)        176.8428         calculate D2E/DX2 analytically  !
 ! D120  D(19,16,17,18)        167.1752         calculate D2E/DX2 analytically  !
 ! D121  D(19,16,17,45)        -72.2094         calculate D2E/DX2 analytically  !
 ! D122  D(19,16,17,46)         47.6753         calculate D2E/DX2 analytically  !
 ! D123  D(44,16,17,18)         53.706          calculate D2E/DX2 analytically  !
 ! D124  D(44,16,17,45)        174.3214         calculate D2E/DX2 analytically  !
 ! D125  D(44,16,17,46)        -65.7939         calculate D2E/DX2 analytically  !
 ! D126  D(15,16,19,12)         -8.6205         calculate D2E/DX2 analytically  !
 ! D127  D(17,16,19,12)        118.8018         calculate D2E/DX2 analytically  !
 ! D128  D(44,16,19,12)       -126.4532         calculate D2E/DX2 analytically  !
 ! D129  D(16,17,18,47)       -178.5151         calculate D2E/DX2 analytically  !
 ! D130  D(45,17,18,47)         58.6245         calculate D2E/DX2 analytically  !
 ! D131  D(46,17,18,47)        -58.064          calculate D2E/DX2 analytically  !
 ! D132  D(3,23,24,25)         156.974          calculate D2E/DX2 analytically  !
 ! D133  D(3,23,24,27)          33.0455         calculate D2E/DX2 analytically  !
 ! D134  D(3,23,24,51)         -86.9947         calculate D2E/DX2 analytically  !
 ! D135  D(23,24,25,26)        172.6934         calculate D2E/DX2 analytically  !
 ! D136  D(23,24,25,52)         52.122          calculate D2E/DX2 analytically  !
 ! D137  D(23,24,25,53)        -65.5449         calculate D2E/DX2 analytically  !
 ! D138  D(27,24,25,26)        -63.3073         calculate D2E/DX2 analytically  !
 ! D139  D(27,24,25,52)        176.1213         calculate D2E/DX2 analytically  !
 ! D140  D(27,24,25,53)         58.4543         calculate D2E/DX2 analytically  !
 ! D141  D(51,24,25,26)         56.1308         calculate D2E/DX2 analytically  !
 ! D142  D(51,24,25,52)        -64.4406         calculate D2E/DX2 analytically  !
 ! D143  D(51,24,25,53)        177.8924         calculate D2E/DX2 analytically  !
 ! D144  D(23,24,27,28)        173.3766         calculate D2E/DX2 analytically  !
 ! D145  D(23,24,27,29)        -65.6358         calculate D2E/DX2 analytically  !
 ! D146  D(23,24,27,55)         55.1161         calculate D2E/DX2 analytically  !
 ! D147  D(25,24,27,28)         51.2705         calculate D2E/DX2 analytically  !
 ! D148  D(25,24,27,29)        172.258          calculate D2E/DX2 analytically  !
 ! D149  D(25,24,27,55)        -66.99           calculate D2E/DX2 analytically  !
 ! D150  D(51,24,27,28)        -67.1282         calculate D2E/DX2 analytically  !
 ! D151  D(51,24,27,29)         53.8594         calculate D2E/DX2 analytically  !
 ! D152  D(51,24,27,55)        174.6113         calculate D2E/DX2 analytically  !
 ! D153  D(24,25,26,54)         48.318          calculate D2E/DX2 analytically  !
 ! D154  D(52,25,26,54)        169.9991         calculate D2E/DX2 analytically  !
 ! D155  D(53,25,26,54)        -74.5085         calculate D2E/DX2 analytically  !
 ! D156  D(24,27,28,56)        170.0692         calculate D2E/DX2 analytically  !
 ! D157  D(29,27,28,56)         49.1372         calculate D2E/DX2 analytically  !
 ! D158  D(55,27,28,56)        -69.0743         calculate D2E/DX2 analytically  !
 ! D159  D(24,27,29,2)          39.5842         calculate D2E/DX2 analytically  !
 ! D160  D(24,27,29,30)        165.2738         calculate D2E/DX2 analytically  !
 ! D161  D(24,27,29,57)        -80.8198         calculate D2E/DX2 analytically  !
 ! D162  D(28,27,29,2)         162.9656         calculate D2E/DX2 analytically  !
 ! D163  D(28,27,29,30)        -71.3448         calculate D2E/DX2 analytically  !
 ! D164  D(28,27,29,57)         42.5616         calculate D2E/DX2 analytically  !
 ! D165  D(55,27,29,2)         -81.4229         calculate D2E/DX2 analytically  !
 ! D166  D(55,27,29,30)         44.2667         calculate D2E/DX2 analytically  !
 ! D167  D(55,27,29,57)        158.1731         calculate D2E/DX2 analytically  !
 ! D168  D(2,29,30,58)         -35.3981         calculate D2E/DX2 analytically  !
 ! D169  D(27,29,30,58)       -161.1714         calculate D2E/DX2 analytically  !
 ! D170  D(57,29,30,58)         81.9768         calculate D2E/DX2 analytically  !
 --------------------------------------------------------------------------------
 Trust Radius=3.00D-01 FncErr=1.00D-07 GrdErr=1.00D-06 EigMax=2.50D+02 EigMin=1.00D-04
 Number of steps in this run=    346 maximum allowed number of steps=    348.
 GradGradGradGradGradGradGradGradGradGradGradGradGradGradGradGradGradGrad

 Stoichiometry    C18H28N2O10
 Framework group  C1[X(C18H28N2O10)]
 Deg. of freedom   168
 Full point group                 C1      NOp   1
 Largest Abelian subgroup         C1      NOp   1
 Largest concise Abelian subgroup C1      NOp   1
                         Standard orientation:                         
 ---------------------------------------------------------------------
 Center     Atomic      Atomic             Coordinates (Angstroms)
 Number     Number       Type             X           Y           Z
 ---------------------------------------------------------------------
      1          8           0       -4.192250    1.670759    1.415752
      2          6           0       -3.582875    0.375783    1.320506
      3          6           0       -2.154131    0.443556    0.720251
      4          7           0       -2.162603    1.236200   -0.518557
      5          6           0       -1.197919    2.289154   -0.510573
      6          6           0       -1.671326    3.603191   -0.403810
      7          6           0       -0.786550    4.678488   -0.387249
      8          6           0        0.580077    4.448258   -0.494622
      9          6           0        1.064337    3.140348   -0.596805
     10          6           0        0.200105    2.036394   -0.560429
     11          7           0        0.680776    0.703110   -0.693230
     12          6           0        1.880351    0.378169    0.113214
     13          6           0        1.951506   -1.159275    0.290153
     14          6           0        3.132446   -1.515615    1.215569
     15          6           0        4.244376   -0.454830    1.189120
     16          6           0        4.296448    0.317408   -0.142651
     17          6           0        4.971076   -0.498448   -1.253358
     18          8           0        6.335034   -0.745524   -0.915390
     19          8           0        3.035320    0.817463   -0.606261
     20          8           0        3.967672    0.476610    2.255339
     21          8           0        3.645801   -2.821471    0.946825
     22          8           0        2.059949   -1.780593   -1.008922
     23          8           0       -1.552324   -0.813433    0.401808
     24          6           0       -2.449020   -1.921071    0.198555
     25          6           0       -1.736041   -2.978203   -0.667259
     26          8           0       -2.494699   -4.180547   -0.776423
     27          6           0       -3.782028   -1.474146   -0.426919
     28          8           0       -4.626214   -2.571464   -0.775961
     29          6           0       -4.519864   -0.578951    0.571478
     30          8           0       -5.575934    0.110455   -0.124067
     31          1           0       -3.923029    2.122637    0.586564
     32          1           0       -3.479517   -0.009203    2.344629
     33          1           0       -1.511921    0.925108    1.472768
     34          1           0       -1.848487    0.620094   -1.274044
     35          1           0       -2.737786    3.801324   -0.354599
     36          1           0       -1.164256    5.694828   -0.309856
     37          1           0        1.275617    5.282683   -0.516869
     38          1           0        2.136314    3.003103   -0.721178
     39          1           0       -0.071662    0.061764   -0.442310
     40          1           0        1.814077    0.875950    1.092232
     41          1           0        1.028477   -1.547401    0.733739
     42          1           0        2.731495   -1.554804    2.237599
     43          1           0        5.215167   -0.906601    1.421060
     44          1           0        4.913801    1.209696    0.020630
     45          1           0        4.475985   -1.461786   -1.416458
     46          1           0        4.941501    0.054848   -2.196935
     47          1           0        6.716930   -1.244406   -1.665324
     48          1           0        4.705359    1.112727    2.281336
     49          1           0        4.313914   -3.021466    1.623114
     50          1           0        1.664631   -1.142074   -1.641989
     51          1           0       -2.648930   -2.381280    1.175500
     52          1           0       -0.757215   -3.226977   -0.232439
     53          1           0       -1.541627   -2.588820   -1.673930
     54          1           0       -3.412451   -3.910842   -1.011194
     55          1           0       -3.601699   -0.926176   -1.358618
     56          1           0       -5.488027   -2.160993   -1.004368
     57          1           0       -5.032469   -1.204763    1.312282
     58          1           0       -5.806049    0.868348    0.448544
 ---------------------------------------------------------------------
 Rotational constants (GHZ):           0.2185937           0.0984672           0.0751105
 Standard basis: 6-31G(d,p) (6D, 7F)
 There are   590 symmetry adapted cartesian basis functions of A   symmetry.
 There are   590 symmetry adapted basis functions of A   symmetry.
   590 basis functions,  1036 primitive gaussians,   590 cartesian basis functions
   115 alpha electrons      115 beta electrons
       nuclear repulsion energy      3338.1034342962 Hartrees.
 NAtoms=   58 NActive=   58 NUniq=   58 SFac= 1.00D+00 NAtFMM=   60 NAOKFM=F Big=F
 Integral buffers will be    131072 words long.
 Raffenetti 2 integral format.
 Two-electron integral symmetry is turned on.
 Force inversion solution in PCM.
 ------------------------------------------------------------------------------
 Polarizable Continuum Model (PCM)
 =================================
 Model                : PCM.
 Atomic radii         : UFF (Universal Force Field).
 Polarization charges : Total charges.
 Charge compensation  : None.
 Solution method      : Matrix inversion.
 Cavity type          : Scaled VdW (van der Waals Surface) (Alpha=1.100).
 Cavity algorithm     : GePol (No added spheres)
                        Default sphere list used, NSphG=   58.
                        Lebedev-Laikov grids with approx.  5.0 points / Ang**2.
                        Smoothing algorithm: York/Karplus (Gamma=1.0000).
                        Polarization charges: spherical gaussians, with
                                              point-specific exponents (IZeta= 3).
                        Self-potential: point-specific (ISelfS= 7).
                        Self-field    : sphere-specific E.n sum rule (ISelfD= 2).
 1st derivatives      : Analytical E(r).r(x)/FMM algorithm (CHGder, D1EAlg=3).
                        Cavity 1st derivative terms included.
 2nd derivatives      : Analytical E(r).r(xy)/FMM algorithm (CHGder, D2EAlg=3).
                        Cavity 2nd derivative terms included.
 Solvent              : Water, Eps=  78.355300 Eps(inf)=   1.777849
 ------------------------------------------------------------------------------
 One-electron integrals computed using PRISM.
 NBasis=   590 RedAO= T EigKep=  3.64D-04  NBF=   590
 NBsUse=   590 1.00D-06 EigRej= -1.00D+00 NBFU=   590
 ExpMin= 1.61D-01 ExpMax= 5.48D+03 ExpMxC= 8.25D+02 IAcc=3 IRadAn=         5 AccDes= 0.00D+00
 Harris functional with IExCor=  402 and IRadAn=       5 diagonalized for initial guess.
 HarFok:  IExCor=  402 AccDes= 0.00D+00 IRadAn=         5 IDoV= 1 UseB2=F ITyADJ=14
 ICtDFT=  3500011 ScaDFX=  1.000000  1.000000  1.000000  1.000000
 FoFCou: FMM=F IPFlag=           0 FMFlag=      100000 FMFlg1=           0
         NFxFlg=           0 DoJE=T BraDBF=F KetDBF=T FulRan=T
         wScrn=  0.000000 ICntrl=       500 IOpCl=  0 I1Cent=   200000004 NGrid=           0
         NMat0=    1 NMatS0=      1 NMatT0=    0 NMatD0=    1 NMtDS0=    0 NMtDT0=    0
 Petite list used in FoFCou.
 Requested convergence on RMS density matrix=1.00D-08 within  32 cycles.
 Requested convergence on MAX density matrix=1.00D-06.
 Requested convergence on             energy=1.00D-06.
 No special actions if energy rises.
 Inv3:  Mode=1 IEnd=    40804032.
 Iteration    1 A*A^-1 deviation from unit magnitude is 3.22D-15 for   2427.
 Iteration    1 A*A^-1 deviation from orthogonality  is 1.55D-15 for   2934   1169.
 Iteration    1 A^-1*A deviation from unit magnitude is 3.11D-15 for   2228.
 Iteration    1 A^-1*A deviation from orthogonality  is 4.05D-12 for   2598   2240.
 Error on total polarization charges =  0.00887
 SCF Done:  E(RB3LYP) =  -1564.45795323     A.U. after   12 cycles
            NFock= 12  Conv=0.71D-08     -V/T= 2.0090
 QCSCF skips out because SCF is already converged.
 DoSCS=F DFT=T ScalE2(SS,OS)=  1.000000  1.000000
 Range of M.O.s used for correlation:     1   590
 NBasis=   590 NAE=   115 NBE=   115 NFC=     0 NFV=     0
 NROrb=    590 NOA=   115 NOB=   115 NVA=   475 NVB=   475
 Symmetrizing basis deriv contribution to polar:
 IMax=3 JMax=2 DiffMx= 0.00D+00
 G2DrvN: will do    59 centers at a time, making    1 passes.
 Calling FoFCou, ICntrl=  3107 FMM=F I1Cent=   0 AccDes= 0.00D+00.
 NEqPCM:  Using equilibrium solvation (IEInf=0, Eps=  78.3553, EpsInf=   1.7778)
 G2PCM: DoFxE=T DoFxN=T DoGrad=T DoDP/DQ/DG/TGxP=FFFF NFrqRd=   0 IEInf=0 SqF1=F DoCFld=F IF1Alg=4.
 End of G2Drv F.D. properties file   721 does not exist.
 End of G2Drv F.D. properties file   722 does not exist.
 End of G2Drv F.D. properties file   788 does not exist.
          IDoAtm=11111111111111111111111111111111111111111111111111
          IDoAtm=11111111
 NEqPCM:  Using equilibrium solvation (IEInf=0, Eps=  78.3553, EpsInf=   1.7778)
          Differentiating once with respect to nuclear coordinates.
 CalDSu exits because no D1Ps are significant.
          There are   177 degrees of freedom in the 1st order CPHF.  IDoFFX=6 NUNeed=     0.
    171 vectors produced by pass  0 Test12= 5.46D-14 1.00D-09 XBig12= 1.20D-01 1.22D-01.
 AX will form   171 AO Fock derivatives at one time.
    171 vectors produced by pass  1 Test12= 5.46D-14 1.00D-09 XBig12= 1.47D-02 3.31D-02.
    171 vectors produced by pass  2 Test12= 5.46D-14 1.00D-09 XBig12= 1.80D-04 1.49D-03.
    171 vectors produced by pass  3 Test12= 5.46D-14 1.00D-09 XBig12= 7.70D-07 9.11D-05.
    171 vectors produced by pass  4 Test12= 5.46D-14 1.00D-09 XBig12= 1.09D-09 2.55D-06.
    120 vectors produced by pass  5 Test12= 5.46D-14 1.00D-09 XBig12= 1.17D-12 7.30D-08.
     14 vectors produced by pass  6 Test12= 5.46D-14 1.00D-09 XBig12= 9.74D-16 2.11D-09.
 InvSVY:  IOpt=1 It=  1 EMax= 3.89D-16
 Solved reduced A of dimension   989 with   177 vectors.
 End of Minotr F.D. properties file   721 does not exist.
 End of Minotr F.D. properties file   722 does not exist.
 End of Minotr F.D. properties file   788 does not exist.

 **********************************************************************

            Population analysis using the SCF density.

 **********************************************************************

 Orbital symmetries:
       Occupied  (A) (A) (A) (A) (A) (A) (A) (A) (A) (A) (A) (A)
                 (A) (A) (A) (A) (A) (A) (A) (A) (A) (A) (A) (A)
                 (A) (A) (A) (A) (A) (A) (A) (A) (A) (A) (A) (A)
                 (A) (A) (A) (A) (A) (A) (A) (A) (A) (A) (A) (A)
                 (A) (A) (A) (A) (A) (A) (A) (A) (A) (A) (A) (A)
                 (A) (A) (A) (A) (A) (A) (A) (A) (A) (A) (A) (A)
                 (A) (A) (A) (A) (A) (A) (A) (A) (A) (A) (A) (A)
                 (A) (A) (A) (A) (A) (A) (A) (A) (A) (A) (A) (A)
                 (A) (A) (A) (A) (A) (A) (A) (A) (A) (A) (A) (A)
                 (A) (A) (A) (A) (A) (A) (A)
       Virtual   (A) (A) (A) (A) (A) (A) (A) (A) (A) (A) (A) (A)
                 (A) (A) (A) (A) (A) (A) (A) (A) (A) (A) (A) (A)
                 (A) (A) (A) (A) (A) (A) (A) (A) (A) (A) (A) (A)
                 (A) (A) (A) (A) (A) (A) (A) (A) (A) (A) (A) (A)
                 (A) (A) (A) (A) (A) (A) (A) (A) (A) (A) (A) (A)
                 (A) (A) (A) (A) (A) (A) (A) (A) (A) (A) (A) (A)
                 (A) (A) (A) (A) (A) (A) (A) (A) (A) (A) (A) (A)
                 (A) (A) (A) (A) (A) (A) (A) (A) (A) (A) (A) (A)
                 (A) (A) (A) (A) (A) (A) (A) (A) (A) (A) (A) (A)
                 (A) (A) (A) (A) (A) (A) (A) (A) (A) (A) (A) (A)
                 (A) (A) (A) (A) (A) (A) (A) (A) (A) (A) (A) (A)
                 (A) (A) (A) (A) (A) (A) (A) (A) (A) (A) (A) (A)
                 (A) (A) (A) (A) (A) (A) (A) (A) (A) (A) (A) (A)
                 (A) (A) (A) (A) (A) (A) (A) (A) (A) (A) (A) (A)
                 (A) (A) (A) (A) (A) (A) (A) (A) (A) (A) (A) (A)
                 (A) (A) (A) (A) (A) (A) (A) (A) (A) (A) (A) (A)
                 (A) (A) (A) (A) (A) (A) (A) (A) (A) (A) (A) (A)
                 (A) (A) (A) (A) (A) (A) (A) (A) (A) (A) (A) (A)
                 (A) (A) (A) (A) (A) (A) (A) (A) (A) (A) (A) (A)
                 (A) (A) (A) (A) (A) (A) (A) (A) (A) (A) (A) (A)
                 (A) (A) (A) (A) (A) (A) (A) (A) (A) (A) (A) (A)
                 (A) (A) (A) (A) (A) (A) (A) (A) (A) (A) (A) (A)
                 (A) (A) (A) (A) (A) (A) (A) (A) (A) (A) (A) (A)
                 (A) (A) (A) (A) (A) (A) (A) (A) (A) (A) (A) (A)
                 (A) (A) (A) (A) (A) (A) (A) (A) (A) (A) (A) (A)
                 (A) (A) (A) (A) (A) (A) (A) (A) (A) (A) (A) (A)
                 (A) (A) (A) (A) (A) (A) (A) (A) (A) (A) (A) (A)
                 (A) (A) (A) (A) (A) (A) (A) (A) (A) (A) (A) (A)
                 (A) (A) (A) (A) (A) (A) (A) (A) (A) (A) (A) (A)
                 (A) (A) (A) (A) (A) (A) (A) (A) (A) (A) (A) (A)
                 (A) (A) (A) (A) (A) (A) (A) (A) (A) (A) (A) (A)
                 (A) (A) (A) (A) (A) (A) (A) (A) (A) (A) (A) (A)
                 (A) (A) (A) (A) (A) (A) (A) (A) (A) (A) (A) (A)
                 (A) (A) (A) (A) (A) (A) (A) (A) (A) (A) (A) (A)
                 (A) (A) (A) (A) (A) (A) (A) (A) (A) (A) (A) (A)
                 (A) (A) (A) (A) (A) (A) (A) (A) (A) (A) (A) (A)
                 (A) (A) (A) (A) (A) (A) (A) (A) (A) (A) (A) (A)
                 (A) (A) (A) (A) (A) (A) (A) (A) (A) (A) (A) (A)
                 (A) (A) (A) (A) (A) (A) (A) (A) (A) (A) (A) (A)
                 (A) (A) (A) (A) (A) (A) (A)
 The electronic state is 1-A.
 Alpha  occ. eigenvalues --  -19.18968 -19.17250 -19.17155 -19.16358 -19.15171
 Alpha  occ. eigenvalues --  -19.15163 -19.15014 -19.14938 -19.14505 -19.13822
 Alpha  occ. eigenvalues --  -14.35132 -14.34733 -10.28655 -10.27892 -10.25818
 Alpha  occ. eigenvalues --  -10.25401 -10.25356 -10.24602 -10.24570 -10.24391
 Alpha  occ. eigenvalues --  -10.24238 -10.24237 -10.23644 -10.23267 -10.22487
 Alpha  occ. eigenvalues --  -10.22312 -10.19169 -10.19019 -10.18665 -10.18498
 Alpha  occ. eigenvalues --   -1.07675  -1.05837  -1.04970  -1.04286  -1.02674
 Alpha  occ. eigenvalues --   -1.01942  -1.01337  -1.00896  -1.00572  -1.00446
 Alpha  occ. eigenvalues --   -0.94809  -0.91395  -0.83994  -0.79500  -0.78174
 Alpha  occ. eigenvalues --   -0.77750  -0.77031  -0.73744  -0.72299  -0.68970
 Alpha  occ. eigenvalues --   -0.67846  -0.65780  -0.65458  -0.63238  -0.62274
 Alpha  occ. eigenvalues --   -0.60332  -0.59707  -0.58097  -0.55767  -0.55451
 Alpha  occ. eigenvalues --   -0.55140  -0.53998  -0.53168  -0.52454  -0.52212
 Alpha  occ. eigenvalues --   -0.50856  -0.50567  -0.49711  -0.49352  -0.49088
 Alpha  occ. eigenvalues --   -0.48614  -0.47837  -0.47003  -0.46782  -0.45916
 Alpha  occ. eigenvalues --   -0.45728  -0.44596  -0.44478  -0.44263  -0.43098
 Alpha  occ. eigenvalues --   -0.42803  -0.42391  -0.41657  -0.41584  -0.41508
 Alpha  occ. eigenvalues --   -0.41065  -0.40643  -0.39863  -0.39120  -0.38441
 Alpha  occ. eigenvalues --   -0.37366  -0.36317  -0.35940  -0.35503  -0.35092
 Alpha  occ. eigenvalues --   -0.34936  -0.34327  -0.33931  -0.33258  -0.32796
 Alpha  occ. eigenvalues --   -0.31865  -0.31385  -0.30967  -0.30083  -0.28575
 Alpha  occ. eigenvalues --   -0.28405  -0.28300  -0.27831  -0.26763  -0.26482
 Alpha  occ. eigenvalues --   -0.26079  -0.25848  -0.25720  -0.24757  -0.21764
 Alpha virt. eigenvalues --   -0.00615   0.00021   0.04135   0.05629   0.06888
 Alpha virt. eigenvalues --    0.07125   0.07427   0.07724   0.08289   0.09141
 Alpha virt. eigenvalues --    0.10405   0.10603   0.11184   0.11531   0.11713
 Alpha virt. eigenvalues --    0.12915   0.13845   0.14073   0.14313   0.15068
 Alpha virt. eigenvalues --    0.15325   0.15696   0.16067   0.16780   0.17130
 Alpha virt. eigenvalues --    0.17234   0.17551   0.17604   0.17911   0.18099
 Alpha virt. eigenvalues --    0.18244   0.19064   0.19479   0.19750   0.20409
 Alpha virt. eigenvalues --    0.20777   0.20981   0.21400   0.22050   0.22425
 Alpha virt. eigenvalues --    0.22588   0.23798   0.23929   0.24738   0.25617
 Alpha virt. eigenvalues --    0.25965   0.26193   0.27445   0.27881   0.28351
 Alpha virt. eigenvalues --    0.29251   0.30439   0.31797   0.31958   0.32745
 Alpha virt. eigenvalues --    0.33352   0.33769   0.34396   0.35518   0.37067
 Alpha virt. eigenvalues --    0.37583   0.49074   0.50071   0.50974   0.51583
 Alpha virt. eigenvalues --    0.51981   0.52346   0.53158   0.53329   0.53683
 Alpha virt. eigenvalues --    0.54311   0.54623   0.54860   0.55221   0.56287
 Alpha virt. eigenvalues --    0.56595   0.57474   0.57705   0.58301   0.58669
 Alpha virt. eigenvalues --    0.59777   0.60519   0.60636   0.60976   0.61171
 Alpha virt. eigenvalues --    0.61405   0.61875   0.62860   0.63136   0.63250
 Alpha virt. eigenvalues --    0.64059   0.64739   0.65350   0.66334   0.67068
 Alpha virt. eigenvalues --    0.67425   0.68505   0.69098   0.69771   0.70707
 Alpha virt. eigenvalues --    0.71118   0.71891   0.72318   0.72817   0.73309
 Alpha virt. eigenvalues --    0.74690   0.74884   0.75559   0.75735   0.76029
 Alpha virt. eigenvalues --    0.76638   0.77180   0.77745   0.78064   0.78729
 Alpha virt. eigenvalues --    0.79758   0.79847   0.80494   0.80849   0.82432
 Alpha virt. eigenvalues --    0.82775   0.83137   0.83616   0.83905   0.84783
 Alpha virt. eigenvalues --    0.85013   0.85517   0.86301   0.86668   0.86840
 Alpha virt. eigenvalues --    0.87209   0.87410   0.88423   0.88605   0.89098
 Alpha virt. eigenvalues --    0.89557   0.90253   0.90778   0.91741   0.91919
 Alpha virt. eigenvalues --    0.92816   0.93589   0.94501   0.95170   0.95780
 Alpha virt. eigenvalues --    0.96218   0.96988   0.97202   0.98628   0.98793
 Alpha virt. eigenvalues --    0.99774   1.00050   1.00833   1.01679   1.02658
 Alpha virt. eigenvalues --    1.03331   1.04799   1.05579   1.06154   1.06396
 Alpha virt. eigenvalues --    1.06778   1.07784   1.09198   1.09466   1.10345
 Alpha virt. eigenvalues --    1.10551   1.11394   1.11523   1.12129   1.13357
 Alpha virt. eigenvalues --    1.13576   1.16711   1.17049   1.17586   1.18667
 Alpha virt. eigenvalues --    1.19158   1.20314   1.21174   1.22608   1.22975
 Alpha virt. eigenvalues --    1.23817   1.25076   1.27162   1.27844   1.28114
 Alpha virt. eigenvalues --    1.28703   1.29479   1.30849   1.31712   1.33304
 Alpha virt. eigenvalues --    1.34821   1.35366   1.36091   1.36400   1.37502
 Alpha virt. eigenvalues --    1.38334   1.39123   1.40263   1.40785   1.41114
 Alpha virt. eigenvalues --    1.42173   1.43693   1.44503   1.45338   1.47021
 Alpha virt. eigenvalues --    1.48383   1.48550   1.48949   1.50031   1.50330
 Alpha virt. eigenvalues --    1.51342   1.52084   1.52851   1.53898   1.54642
 Alpha virt. eigenvalues --    1.56041   1.56656   1.58096   1.59102   1.59468
 Alpha virt. eigenvalues --    1.59972   1.60248   1.61078   1.62006   1.63594
 Alpha virt. eigenvalues --    1.64725   1.65198   1.67080   1.68140   1.68332
 Alpha virt. eigenvalues --    1.69648   1.70036   1.71913   1.72691   1.73294
 Alpha virt. eigenvalues --    1.73751   1.74550   1.75874   1.77230   1.77553
 Alpha virt. eigenvalues --    1.78054   1.78758   1.79877   1.81085   1.81418
 Alpha virt. eigenvalues --    1.81873   1.82373   1.82721   1.83435   1.84628
 Alpha virt. eigenvalues --    1.85171   1.86092   1.87170   1.87602   1.88534
 Alpha virt. eigenvalues --    1.88921   1.89176   1.90048   1.90447   1.91050
 Alpha virt. eigenvalues --    1.91527   1.91920   1.92642   1.93437   1.93644
 Alpha virt. eigenvalues --    1.94879   1.95585   1.96589   1.96888   1.97470
 Alpha virt. eigenvalues --    1.97928   1.98506   1.99069   1.99817   2.00291
 Alpha virt. eigenvalues --    2.00549   2.01084   2.01349   2.03472   2.03631
 Alpha virt. eigenvalues --    2.04244   2.05608   2.05785   2.07130   2.07512
 Alpha virt. eigenvalues --    2.07827   2.08837   2.10142   2.10830   2.11897
 Alpha virt. eigenvalues --    2.13966   2.14565   2.15717   2.16813   2.18044
 Alpha virt. eigenvalues --    2.18657   2.19078   2.20428   2.20768   2.21923
 Alpha virt. eigenvalues --    2.22528   2.24508   2.24820   2.25531   2.25879
 Alpha virt. eigenvalues --    2.26652   2.27910   2.28986   2.29446   2.30285
 Alpha virt. eigenvalues --    2.30499   2.31624   2.32197   2.32504   2.34198
 Alpha virt. eigenvalues --    2.34415   2.35749   2.35952   2.37054   2.37635
 Alpha virt. eigenvalues --    2.37980   2.38818   2.39284   2.39765   2.39980
 Alpha virt. eigenvalues --    2.40146   2.41185   2.41797   2.42301   2.44043
 Alpha virt. eigenvalues --    2.44435   2.45125   2.45567   2.47335   2.47647
 Alpha virt. eigenvalues --    2.48426   2.49331   2.49947   2.51228   2.52569
 Alpha virt. eigenvalues --    2.53104   2.53671   2.54823   2.55419   2.55726
 Alpha virt. eigenvalues --    2.56863   2.58122   2.58635   2.59136   2.60296
 Alpha virt. eigenvalues --    2.61053   2.61341   2.61753   2.63148   2.63330
 Alpha virt. eigenvalues --    2.63677   2.63989   2.64267   2.65227   2.65781
 Alpha virt. eigenvalues --    2.67068   2.67468   2.68254   2.69025   2.69334
 Alpha virt. eigenvalues --    2.70169   2.70749   2.71332   2.71984   2.72572
 Alpha virt. eigenvalues --    2.72828   2.73473   2.74745   2.75668   2.75969
 Alpha virt. eigenvalues --    2.76280   2.76759   2.77835   2.78387   2.79018
 Alpha virt. eigenvalues --    2.80642   2.81763   2.81934   2.83033   2.83658
 Alpha virt. eigenvalues --    2.84367   2.84638   2.85689   2.86397   2.87940
 Alpha virt. eigenvalues --    2.88325   2.89524   2.90088   2.91301   2.91748
 Alpha virt. eigenvalues --    2.92017   2.94312   2.94833   2.95209   2.95353
 Alpha virt. eigenvalues --    2.97342   2.98655   2.99513   3.01817   3.02628
 Alpha virt. eigenvalues --    3.03869   3.05112   3.07952   3.08199   3.08578
 Alpha virt. eigenvalues --    3.12472   3.13923   3.14721   3.15489   3.18906
 Alpha virt. eigenvalues --    3.21554   3.24525   3.24830   3.29273   3.32474
 Alpha virt. eigenvalues --    3.33701   3.35610   3.35919   3.36537   3.37391
 Alpha virt. eigenvalues --    3.38130   3.39136   3.41362   3.41591   3.42076
 Alpha virt. eigenvalues --    3.42881   3.43387   3.44039   3.45943   3.46341
 Alpha virt. eigenvalues --    3.47825   3.48908   3.49777   3.51178   3.52296
 Alpha virt. eigenvalues --    3.52835   3.56958   3.57663   3.58144   3.85304
 Alpha virt. eigenvalues --    3.87200   3.88631   3.91254   3.97606   4.01242
 Alpha virt. eigenvalues --    4.03515   4.13350   4.14441   4.15384   4.17209
 Alpha virt. eigenvalues --    4.20304   4.22513   4.23370   4.28275   4.38002
 Alpha virt. eigenvalues --    4.39470   4.41577   4.44967   4.48778   4.51134
 Alpha virt. eigenvalues --    4.53757   4.58847   4.65323   4.69284   4.70445
 Alpha virt. eigenvalues --    4.74286   4.75641   4.84763   5.00581   5.06978
          Condensed to atoms (all electrons):
 Mulliken charges:
               1
     1  O   -0.582801
     2  C    0.151882
     3  C    0.244857
     4  N   -0.597117
     5  C    0.134243
     6  C   -0.109569
     7  C   -0.117524
     8  C   -0.100710
     9  C   -0.132450
    10  C    0.274271
    11  N   -0.653983
    12  C    0.294635
    13  C    0.112465
    14  C    0.189725
    15  C    0.104134
    16  C    0.173929
    17  C    0.037653
    18  O   -0.581610
    19  O   -0.534618
    20  O   -0.583220
    21  O   -0.579975
    22  O   -0.577337
    23  O   -0.547429
    24  C    0.141259
    25  C    0.044790
    26  O   -0.598759
    27  C    0.164457
    28  O   -0.592882
    29  C    0.135175
    30  O   -0.601017
    31  H    0.337566
    32  H    0.136476
    33  H    0.138846
    34  H    0.276883
    35  H    0.099101
    36  H    0.097227
    37  H    0.101819
    38  H    0.113948
    39  H    0.298202
    40  H    0.119815
    41  H    0.113560
    42  H    0.114385
    43  H    0.115990
    44  H    0.099982
    45  H    0.115374
    46  H    0.093594
    47  H    0.335226
    48  H    0.330501
    49  H    0.333555
    50  H    0.329480
    51  H    0.120936
    52  H    0.119348
    53  H    0.099081
    54  H    0.342282
    55  H    0.115622
    56  H    0.348980
    57  H    0.111479
    58  H    0.328269
 Sum of Mulliken charges =  -0.00000
 Mulliken charges with hydrogens summed into heavy atoms:
               1
     1  O   -0.245235
     2  C    0.288358
     3  C    0.383703
     4  N   -0.320234
     5  C    0.134243
     6  C   -0.010468
     7  C   -0.020297
     8  C    0.001109
     9  C   -0.018502
    10  C    0.274271
    11  N   -0.355781
    12  C    0.414450
    13  C    0.226025
    14  C    0.304109
    15  C    0.220124
    16  C    0.273911
    17  C    0.246621
    18  O   -0.246384
    19  O   -0.534618
    20  O   -0.252719
    21  O   -0.246419
    22  O   -0.247857
    23  O   -0.547429
    24  C    0.262195
    25  C    0.263219
    26  O   -0.256477
    27  C    0.280079
    28  O   -0.243902
    29  C    0.246654
    30  O   -0.272748
 APT charges:
               1
     1  O   -0.291518
     2  C   -0.174165
     3  C   -0.107695
     4  N   -0.333931
     5  C   -0.638584
     6  C   -0.454732
     7  C   -0.428258
     8  C   -0.406116
     9  C   -0.566109
    10  C   -0.465923
    11  N   -0.440207
    12  C   -0.052009
    13  C   -0.023050
    14  C   -0.021148
    15  C   -0.795343
    16  C   -0.669633
    17  C   -0.116149
    18  O   -1.407260
    19  O   -0.402938
    20  O   -1.174031
    21  O   -1.380920
    22  O   -0.487281
    23  O   -0.414811
    24  C   -0.567849
    25  C   -0.139967
    26  O   -0.813143
    27  C    0.209854
    28  O   -1.332489
    29  C   -0.570838
    30  O   -0.800210
    31  H    0.200975
    32  H    0.441626
    33  H    0.238472
    34  H    0.224002
    35  H    0.674526
    36  H    1.012888
    37  H    0.900161
    38  H    0.446292
    39  H    0.236757
    40  H    0.267158
    41  H    0.157474
    42  H    0.332559
    43  H    0.888867
    44  H    0.602591
    45  H    0.176930
    46  H    0.431523
    47  H    1.181791
    48  H    1.132378
    49  H    1.222191
    50  H    0.237115
    51  H    0.447208
    52  H    0.139645
    53  H    0.240102
    54  H    0.674984
    55  H    0.212717
    56  H    1.113444
    57  H    0.718446
    58  H    0.713629
 Sum of APT charges =  -0.00000
 APT charges with hydrogens summed into heavy atoms:
               1
     1  O   -0.090543
     2  C    0.267461
     3  C    0.130777
     4  N   -0.109928
     5  C   -0.638584
     6  C    0.219794
     7  C    0.584629
     8  C    0.494045
     9  C   -0.119817
    10  C   -0.465923
    11  N   -0.203450
    12  C    0.215149
    13  C    0.134424
    14  C    0.311411
    15  C    0.093524
    16  C   -0.067042
    17  C    0.492304
    18  O   -0.225469
    19  O   -0.402938
    20  O   -0.041653
    21  O   -0.158729
    22  O   -0.250165
    23  O   -0.414811
    24  C   -0.120641
    25  C    0.239780
    26  O   -0.138159
    27  C    0.422570
    28  O   -0.219045
    29  C    0.147608
    30  O   -0.086581
 Electronic spatial extent (au):  <R**2>=          14057.7295
 Charge=              0.0000 electrons
 Dipole moment (field-independent basis, Debye):
    X=              0.4409    Y=              3.4197    Z=              1.9573  Tot=              3.9648
 Quadrupole moment (field-independent basis, Debye-Ang):
   XX=           -149.7822   YY=           -193.3898   ZZ=           -169.5896
   XY=             -3.4865   XZ=              1.6052   YZ=             -4.1240
 Traceless Quadrupole moment (field-independent basis, Debye-Ang):
   XX=             21.1383   YY=            -22.4693   ZZ=              1.3310
   XY=             -3.4865   XZ=              1.6052   YZ=             -4.1240
 Octapole moment (field-independent basis, Debye-Ang**2):
  XXX=             81.9306  YYY=            117.1427  ZZZ=             -7.1491  XYY=             44.4919
  XXY=            -38.0736  XXZ=              1.2522  XZZ=             37.0304  YZZ=            -50.5152
  YYZ=             26.1351  XYZ=              7.8538
 Hexadecapole moment (field-independent basis, Debye-Ang**3):
 XXXX=         -10337.9907 YYYY=          -5272.4097 ZZZZ=          -1023.5065 XXXY=           -134.0342
 XXXZ=            -70.5662 YYYX=           -223.3025 YYYZ=            -78.8915 ZZZX=            -23.0597
 ZZZY=             35.7319 XXYY=          -2561.2599 XXZZ=          -1770.7469 YYZZ=          -1032.5890
 XXYZ=             69.1211 YYXZ=             77.1944 ZZXY=            -18.9956
 N-N= 3.338103434296D+03 E-N=-1.033424801893D+04  KE= 1.550537953383D+03
  Exact polarizability:   0.000   0.000   0.000   0.000   0.000   0.000
 Approx polarizability: 366.499 -10.212 381.097  -3.583   8.085 257.793
 D2PCM: PCM CHGder 2nd derivatives, FixD1E=F FixD2E=F DoIter=F DoCFld=F I1PDM=0
 Calling FoFJK, ICntrl=    100147 FMM=F ISym2X=0 I1Cent= 0 IOpClX= 0 NMat=1 NMatS=1 NMatT=0.
 ***** Axes restored to original set *****
 -------------------------------------------------------------------
 Center     Atomic                   Forces (Hartrees/Bohr)
 Number     Number              X              Y              Z
 -------------------------------------------------------------------
      1        8          -0.014778648   -0.001451950    0.010669076
      2        6          -0.004176098   -0.003914075   -0.007308712
      3        6           0.000843144    0.006266590   -0.002362305
      4        7          -0.007551763    0.001926931    0.007700053
      5        6          -0.005675316    0.016832196   -0.010508842
      6        6          -0.006646868   -0.000568292    0.003640956
      7        6           0.000748979    0.006743670   -0.003144486
      8        6           0.000504706   -0.004794184    0.001907258
      9        6          -0.008199621    0.005572351   -0.000994213
     10        6           0.004398222    0.006354972    0.009295485
     11        7          -0.010290963    0.002871702   -0.011410852
     12        6           0.010998022   -0.007447362    0.002409202
     13        6           0.008293658   -0.002439208    0.012590290
     14        6          -0.006010818   -0.013424005   -0.006751411
     15        6          -0.001313637    0.014120048   -0.011371545
     16        6          -0.015653458   -0.003149709    0.005030864
     17        6           0.001346262   -0.005466710    0.012902259
     18        8          -0.007873230   -0.001586059    0.003818162
     19        8           0.007231532   -0.004661601   -0.002345925
     20        8          -0.000403495    0.001363579   -0.002083464
     21        8           0.003871795    0.002988494    0.008928906
     22        8          -0.000868791    0.009661476   -0.003359417
     23        8           0.013602479   -0.008873554   -0.008015157
     24        6           0.005668436   -0.017402365    0.007343755
     25        6           0.001301361   -0.002088318    0.005749407
     26        8           0.003595085    0.002278106   -0.006988549
     27        6           0.005564689    0.010342193   -0.007792871
     28        8           0.007420756    0.000119270   -0.004187377
     29        6           0.021161067    0.005484950    0.002388395
     30        8          -0.007970053    0.000218467    0.002544631
     31        1           0.003351494   -0.004606396   -0.004490431
     32        1          -0.000112730    0.004734635    0.000365906
     33        1           0.001921357    0.000821600    0.003923927
     34        1           0.013082056   -0.002615117   -0.004796461
     35        1           0.001135419   -0.003163476    0.001426720
     36        1           0.000449904   -0.000794696    0.000181967
     37        1          -0.000132744   -0.000993806    0.000161026
     38        1           0.003418686   -0.004380186   -0.000983852
     39        1          -0.005442870   -0.003600223    0.004708719
     40        1          -0.003864465   -0.000380627    0.002650152
     41        1          -0.000825440    0.003138088   -0.006114099
     42        1          -0.000747959    0.009113772   -0.003371226
     43        1           0.002625514   -0.000870514    0.010349827
     44        1          -0.003243990   -0.001145402    0.000215398
     45        1           0.005873861    0.003175825   -0.004741484
     46        1           0.005492010    0.005283221   -0.002041902
     47        1           0.000858817    0.002566255   -0.012077815
     48        1           0.006047286   -0.003294306    0.000228411
     49        1           0.004303581    0.003524320    0.000196543
     50        1          -0.005296264   -0.009555984   -0.002749927
     51        1           0.002058662   -0.000832202    0.000095671
     52        1           0.003627499    0.000281699   -0.001563746
     53        1          -0.001862009    0.006950063   -0.001396756
     54        1          -0.010367334   -0.004293524    0.002117618
     55        1          -0.006680870    0.004986355   -0.002747762
     56        1          -0.008088321   -0.008611316    0.003969970
     57        1          -0.005989281   -0.007957017    0.002923446
     58        1          -0.000729303   -0.003358647    0.005266585
 -------------------------------------------------------------------
 Cartesian Forces:  Max     0.021161067 RMS     0.006307375
 FormGI is forming the generalized inverse of G from B-inverse, IUseBI=4.

 GradGradGradGradGradGradGradGradGradGradGradGradGradGradGradGradGradGrad
 Berny optimization.
 Internal  Forces:  Max     0.025442244 RMS     0.004757969
 Search for a local minimum.
 Step number   1 out of a maximum of  346
 All quantities printed in internal units (Hartrees-Bohrs-Radians)
 Mixed Optimization -- RFO/linear search
 Second derivative matrix not updated -- analytic derivatives used.
 ITU=  0
     Eigenvalues ---   -0.00103  -0.00051   0.00033   0.00068   0.00106
     Eigenvalues ---    0.00158   0.00202   0.00212   0.00240   0.00251
     Eigenvalues ---    0.00304   0.00329   0.00423   0.00491   0.00644
     Eigenvalues ---    0.00754   0.00896   0.01035   0.01232   0.01255
     Eigenvalues ---    0.01732   0.01817   0.02066   0.02182   0.02322
     Eigenvalues ---    0.02393   0.02463   0.02581   0.02598   0.02686
     Eigenvalues ---    0.02779   0.02792   0.02855   0.03897   0.04003
     Eigenvalues ---    0.04231   0.04320   0.04383   0.04767   0.04786
     Eigenvalues ---    0.04863   0.05011   0.05160   0.05179   0.05244
     Eigenvalues ---    0.05261   0.05411   0.05747   0.05809   0.05924
     Eigenvalues ---    0.06049   0.06105   0.06141   0.06371   0.06543
     Eigenvalues ---    0.06726   0.06861   0.06990   0.07084   0.07195
     Eigenvalues ---    0.07305   0.07364   0.07836   0.08333   0.08842
     Eigenvalues ---    0.09582   0.09896   0.10882   0.10968   0.11407
     Eigenvalues ---    0.11511   0.11740   0.12269   0.12390   0.12700
     Eigenvalues ---    0.13113   0.13470   0.13763   0.14292   0.14327
     Eigenvalues ---    0.14830   0.15058   0.15454   0.15666   0.16243
     Eigenvalues ---    0.16366   0.16492   0.16755   0.16965   0.17004
     Eigenvalues ---    0.17722   0.18408   0.19074   0.19245   0.19327
     Eigenvalues ---    0.19421   0.19674   0.20140   0.20480   0.20771
     Eigenvalues ---    0.21205   0.21587   0.22135   0.23071   0.23197
     Eigenvalues ---    0.23354   0.23771   0.24649   0.24728   0.24916
     Eigenvalues ---    0.25319   0.25967   0.26268   0.27784   0.28162
     Eigenvalues ---    0.28650   0.29403   0.29640   0.30137   0.31010
     Eigenvalues ---    0.31433   0.31725   0.31959   0.31993   0.32222
     Eigenvalues ---    0.32387   0.32488   0.32535   0.32585   0.32765
     Eigenvalues ---    0.32780   0.33026   0.33339   0.33503   0.33993
     Eigenvalues ---    0.34200   0.35339   0.35501   0.35619   0.35797
     Eigenvalues ---    0.35879   0.35983   0.36045   0.36089   0.37242
     Eigenvalues ---    0.37495   0.37832   0.38442   0.38794   0.39470
     Eigenvalues ---    0.40227   0.41571   0.42542   0.43408   0.45151
     Eigenvalues ---    0.46560   0.46666   0.46729   0.47129   0.47214
     Eigenvalues ---    0.47770   0.48156   0.48551   0.49504   0.50187
     Eigenvalues ---    0.50595   0.51062   0.84400
 RFO step:  Lambda=-3.20955577D-02 EMin=-1.02770951D-03
 Linear search not attempted -- first point.
 Maximum step size (   0.300) exceeded in Quadratic search.
    -- Step size scaled by   0.877
 Iteration  1 RMS(Cart)=  0.32552550 RMS(Int)=  0.02956215
 Iteration  2 RMS(Cart)=  0.23188425 RMS(Int)=  0.00846553
 Iteration  3 RMS(Cart)=  0.01929080 RMS(Int)=  0.00037975
 Iteration  4 RMS(Cart)=  0.00008601 RMS(Int)=  0.00037852
 Iteration  5 RMS(Cart)=  0.00000004 RMS(Int)=  0.00037852
 Variable       Old X    -DE/DX   Delta X   Delta X   Delta X     New X
                                 (Linear)    (Quad)   (Total)
    R1        2.71054  -0.01088   0.00000  -0.03161  -0.03161   2.67893
    R2        1.85562  -0.00688   0.00000  -0.00598  -0.00598   1.84963
    R3        2.93133  -0.00420   0.00000  -0.01163  -0.01172   2.91962
    R4        2.89721   0.01676   0.00000   0.04534   0.04521   2.94242
    R5        2.07674  -0.00327   0.00000  -0.00863  -0.00863   2.06811
    R6        2.77925   0.01504   0.00000   0.01732   0.01732   2.79657
    R7        2.70145   0.00474   0.00000   0.00047   0.00047   2.70192
    R8        2.07922  -0.00379   0.00000  -0.01236  -0.01236   2.06686
    R9        2.69867   0.02544   0.00000   0.02924   0.02924   2.72790
   R10        1.93549  -0.00423   0.00000  -0.00799  -0.00799   1.92750
   R11        2.64711  -0.00234   0.00000  -0.01134  -0.01133   2.63578
   R12        2.68637   0.00348   0.00000  -0.00433  -0.00429   2.68208
   R13        2.63165   0.00276   0.00000   0.00636   0.00634   2.63799
   R14        2.05191  -0.00018   0.00000  -0.00058  -0.00058   2.05133
   R15        2.62679   0.00205   0.00000   0.00679   0.00675   2.63354
   R16        2.05416  -0.00070   0.00000  -0.00277  -0.00277   2.05138
   R17        2.64263  -0.00328   0.00000  -0.00463  -0.00464   2.63798
   R18        2.05323  -0.00059   0.00000  -0.00063  -0.00063   2.05260
   R19        2.65029   0.00056   0.00000   0.00214   0.00215   2.65244
   R20        2.05576  -0.00280   0.00000  -0.00463  -0.00463   2.05113
   R21        2.69001  -0.00185   0.00000  -0.02502  -0.02502   2.66499
   R22        2.79968  -0.01055   0.00000  -0.05222  -0.05222   2.74746
   R23        1.92757  -0.00294   0.00000  -0.00145  -0.00145   1.92611
   R24        2.92761  -0.00753   0.00000  -0.02762  -0.02773   2.89989
   R25        2.70210  -0.00224   0.00000   0.00691   0.00692   2.70902
   R26        2.07926  -0.00186   0.00000  -0.00231  -0.00231   2.07695
   R27        2.91410  -0.00373   0.00000   0.00418   0.00426   2.91836
   R28        2.72893  -0.00709   0.00000  -0.02116  -0.02116   2.70777
   R29        2.06957   0.00101   0.00000   0.00484   0.00484   2.07441
   R30        2.90450   0.00353   0.00000   0.01375   0.01385   2.91835
   R31        2.69974  -0.00192   0.00000  -0.01291  -0.01291   2.68683
   R32        2.07598   0.00024   0.00000   0.00081   0.00081   2.07679
   R33        2.91084  -0.00315   0.00000  -0.01101  -0.01107   2.89977
   R34        2.72604   0.00059   0.00000  -0.00967  -0.00967   2.71636
   R35        2.07037  -0.00024   0.00000   0.00166   0.00166   2.07204
   R36        2.89961  -0.00430   0.00000  -0.00587  -0.00587   2.89375
   R37        2.70926   0.00166   0.00000   0.00944   0.00941   2.71867
   R38        2.07351   0.00144   0.00000   0.00253   0.00253   2.07604
   R39        2.69619   0.00577   0.00000   0.00277   0.00277   2.69896
   R40        2.06986  -0.00020   0.00000  -0.00024  -0.00024   2.06962
   R41        2.06780   0.00342   0.00000   0.00713   0.00713   2.07493
   R42        1.84878  -0.01233   0.00000  -0.01983  -0.01983   1.82894
   R43        1.84140  -0.00687   0.00000  -0.01081  -0.01081   1.83059
   R44        1.83580  -0.00510   0.00000  -0.00752  -0.00752   1.82827
   R45        1.85613  -0.01124   0.00000  -0.02242  -0.02242   1.83370
   R46        2.72031   0.00013   0.00000   0.00548   0.00559   2.72590
   R47        2.91257  -0.00246   0.00000  -0.00772  -0.00772   2.90485
   R48        2.90789  -0.00258   0.00000  -0.01554  -0.01542   2.89247
   R49        2.07541   0.00059   0.00000   0.00188   0.00188   2.07729
   R50        2.69451  -0.00391   0.00000  -0.01389  -0.01389   2.68062
   R51        2.07789  -0.00329   0.00000  -0.00977  -0.00977   2.06812
   R52        2.07251   0.00326   0.00000   0.00862   0.00862   2.08113
   R53        1.86129  -0.01136   0.00000  -0.02064  -0.02064   1.84065
   R54        2.69813   0.00454   0.00000   0.00073   0.00073   2.69887
   R55        2.89231  -0.00616   0.00000  -0.01492  -0.01493   2.87739
   R56        2.07083   0.00218   0.00000   0.00701   0.00701   2.07784
   R57        1.85480  -0.01187   0.00000  -0.02176  -0.02176   1.83304
   R58        2.72170  -0.00754   0.00000  -0.03110  -0.03110   2.69060
   R59        2.07285   0.00170   0.00000   0.00520   0.00520   2.07804
   R60        1.84695  -0.00624   0.00000  -0.00919  -0.00919   1.83776
    A1        1.81617   0.00099   0.00000  -0.01499  -0.01499   1.80118
    A2        1.95795  -0.01156   0.00000  -0.04964  -0.04982   1.90813
    A3        1.91242   0.00929   0.00000   0.01917   0.01932   1.93173
    A4        1.86957  -0.00032   0.00000   0.00989   0.00976   1.87934
    A5        1.98348   0.00111   0.00000   0.00490   0.00517   1.98864
    A6        1.86428   0.00347   0.00000   0.00979   0.00976   1.87404
    A7        1.86985  -0.00189   0.00000   0.00873   0.00794   1.87779
    A8        1.92217  -0.00292   0.00000  -0.00451  -0.00391   1.91826
    A9        2.02142  -0.01374   0.00000  -0.03696  -0.03716   1.98426
   A10        1.86719   0.00528   0.00000   0.02349   0.02284   1.89002
   A11        1.86365   0.01581   0.00000   0.06726   0.06707   1.93072
   A12        1.92151  -0.00505   0.00000  -0.04022  -0.04001   1.88151
   A13        1.86656   0.00042   0.00000  -0.01264  -0.01168   1.85488
   A14        1.97011   0.02127   0.00000   0.04240   0.04157   2.01167
   A15        1.87062  -0.00558   0.00000   0.00391   0.00219   1.87280
   A16        1.81366   0.00365   0.00000   0.04095   0.03993   1.85358
   A17        2.05307  -0.00257   0.00000   0.02501   0.02475   2.07782
   A18        2.13298   0.00873   0.00000  -0.01615  -0.01641   2.11657
   A19        2.09651  -0.00609   0.00000  -0.00764  -0.00771   2.08880
   A20        2.10658   0.00541   0.00000   0.00786   0.00790   2.11448
   A21        2.10198  -0.00643   0.00000  -0.02321  -0.02323   2.07876
   A22        2.07439   0.00102   0.00000   0.01541   0.01539   2.08977
   A23        2.08958  -0.00296   0.00000  -0.00922  -0.00924   2.08035
   A24        2.09674   0.00086   0.00000   0.00087   0.00087   2.09761
   A25        2.09668   0.00210   0.00000   0.00826   0.00826   2.10495
   A26        2.09556   0.00048   0.00000   0.00756   0.00754   2.10311
   A27        2.09873   0.00058   0.00000  -0.00056  -0.00057   2.09817
[...]
   414    O   28  pz     Val( 2p)     1.70794
   415    O   28  pz     Ryd( 3p)     0.00147
   416    O   28  dxy    Ryd( 3d)     0.00083
   417    O   28  dxz    Ryd( 3d)     0.00118
   418    O   28  dyz    Ryd( 3d)     0.00089
   419    O   28  dx2y2  Ryd( 3d)     0.00069
   420    O   28  dz2    Ryd( 3d)     0.00114

   421    C   29  S      Cor( 1S)     1.99903
   422    C   29  S      Val( 2S)     0.97034
   423    C   29  S      Ryd( 3S)     0.00271
   424    C   29  S      Ryd( 4S)     0.00006
   425    C   29  px     Val( 2p)     0.99379
   426    C   29  px     Ryd( 3p)     0.00731
   427    C   29  py     Val( 2p)     1.05119
   428    C   29  py     Ryd( 3p)     0.00377
   429    C   29  pz     Val( 2p)     0.92060
   430    C   29  pz     Ryd( 3p)     0.00472
   431    C   29  dxy    Ryd( 3d)     0.00105
   432    C   29  dxz    Ryd( 3d)     0.00177
   433    C   29  dyz    Ryd( 3d)     0.00127
   434    C   29  dx2y2  Ryd( 3d)     0.00113
   435    C   29  dz2    Ryd( 3d)     0.00122

   436    O   30  S      Cor( 1S)     1.99983
   437    O   30  S      Val( 2S)     1.69027
   438    O   30  S      Ryd( 3S)     0.00133
   439    O   30  S      Ryd( 4S)     0.00003
   440    O   30  px     Val( 2p)     1.71896
   441    O   30  px     Ryd( 3p)     0.00123
   442    O   30  py     Val( 2p)     1.74888
   443    O   30  py     Ryd( 3p)     0.00173
   444    O   30  pz     Val( 2p)     1.61703
   445    O   30  pz     Ryd( 3p)     0.00269
   446    O   30  dxy    Ryd( 3d)     0.00133
   447    O   30  dxz    Ryd( 3d)     0.00117
   448    O   30  dyz    Ryd( 3d)     0.00073
   449    O   30  dx2y2  Ryd( 3d)     0.00138
   450    O   30  dz2    Ryd( 3d)     0.00048

   451    H   31  S      Val( 1S)     0.49116
   452    H   31  S      Ryd( 2S)     0.00428
   453    H   31  px     Ryd( 2p)     0.00116
   454    H   31  py     Ryd( 2p)     0.00080
   455    H   31  pz     Ryd( 2p)     0.00078

   456    H   32  S      Val( 1S)     0.74982
   457    H   32  S      Ryd( 2S)     0.00178
   458    H   32  px     Ryd( 2p)     0.00036
   459    H   32  py     Ryd( 2p)     0.00007
   460    H   32  pz     Ryd( 2p)     0.00018

   461    H   33  S      Val( 1S)     0.75483
   462    H   33  S      Ryd( 2S)     0.00239
   463    H   33  px     Ryd( 2p)     0.00011
   464    H   33  py     Ryd( 2p)     0.00022
   465    H   33  pz     Ryd( 2p)     0.00027

   466    H   34  S      Val( 1S)     0.57549
   467    H   34  S      Ryd( 2S)     0.00442
   468    H   34  px     Ryd( 2p)     0.00031
   469    H   34  py     Ryd( 2p)     0.00048
   470    H   34  pz     Ryd( 2p)     0.00051

   471    H   35  S      Val( 1S)     0.76473
   472    H   35  S      Ryd( 2S)     0.00138
   473    H   35  px     Ryd( 2p)     0.00035
   474    H   35  py     Ryd( 2p)     0.00011
   475    H   35  pz     Ryd( 2p)     0.00021

   476    H   36  S      Val( 1S)     0.76040
   477    H   36  S      Ryd( 2S)     0.00081
   478    H   36  px     Ryd( 2p)     0.00009
   479    H   36  py     Ryd( 2p)     0.00040
   480    H   36  pz     Ryd( 2p)     0.00013

   481    H   37  S      Val( 1S)     0.76603
   482    H   37  S      Ryd( 2S)     0.00084
   483    H   37  px     Ryd( 2p)     0.00023
   484    H   37  py     Ryd( 2p)     0.00020
   485    H   37  pz     Ryd( 2p)     0.00022

   486    H   38  S      Val( 1S)     0.76512
   487    H   38  S      Ryd( 2S)     0.00130
   488    H   38  px     Ryd( 2p)     0.00036
   489    H   38  py     Ryd( 2p)     0.00011
   490    H   38  pz     Ryd( 2p)     0.00022

   491    H   39  S      Val( 1S)     0.54319
   492    H   39  S      Ryd( 2S)     0.00545
   493    H   39  px     Ryd( 2p)     0.00041
   494    H   39  py     Ryd( 2p)     0.00041
   495    H   39  pz     Ryd( 2p)     0.00040

   496    H   40  S      Val( 1S)     0.75488
   497    H   40  S      Ryd( 2S)     0.00435
   498    H   40  px     Ryd( 2p)     0.00012
   499    H   40  py     Ryd( 2p)     0.00018
   500    H   40  pz     Ryd( 2p)     0.00034

   501    H   41  S      Val( 1S)     0.74155
   502    H   41  S      Ryd( 2S)     0.00171
   503    H   41  px     Ryd( 2p)     0.00009
   504    H   41  py     Ryd( 2p)     0.00010
   505    H   41  pz     Ryd( 2p)     0.00040

   506    H   42  S      Val( 1S)     0.74518
   507    H   42  S      Ryd( 2S)     0.00194
   508    H   42  px     Ryd( 2p)     0.00012
   509    H   42  py     Ryd( 2p)     0.00034
   510    H   42  pz     Ryd( 2p)     0.00014

   511    H   43  S      Val( 1S)     0.75392
   512    H   43  S      Ryd( 2S)     0.00294
   513    H   43  px     Ryd( 2p)     0.00032
   514    H   43  py     Ryd( 2p)     0.00019
   515    H   43  pz     Ryd( 2p)     0.00009

   516    H   44  S      Val( 1S)     0.76906
   517    H   44  S      Ryd( 2S)     0.00320
   518    H   44  px     Ryd( 2p)     0.00010
   519    H   44  py     Ryd( 2p)     0.00027
   520    H   44  pz     Ryd( 2p)     0.00023

   521    H   45  S      Val( 1S)     0.77800
   522    H   45  S      Ryd( 2S)     0.00235
   523    H   45  px     Ryd( 2p)     0.00011
   524    H   45  py     Ryd( 2p)     0.00029
   525    H   45  pz     Ryd( 2p)     0.00022

   526    H   46  S      Val( 1S)     0.78259
   527    H   46  S      Ryd( 2S)     0.00217
   528    H   46  px     Ryd( 2p)     0.00007
   529    H   46  py     Ryd( 2p)     0.00036
   530    H   46  pz     Ryd( 2p)     0.00016

   531    H   47  S      Val( 1S)     0.49301
   532    H   47  S      Ryd( 2S)     0.00095
   533    H   47  px     Ryd( 2p)     0.00067
   534    H   47  py     Ryd( 2p)     0.00099
   535    H   47  pz     Ryd( 2p)     0.00106

   536    H   48  S      Val( 1S)     0.49259
   537    H   48  S      Ryd( 2S)     0.00123
   538    H   48  px     Ryd( 2p)     0.00109
   539    H   48  py     Ryd( 2p)     0.00101
   540    H   48  pz     Ryd( 2p)     0.00060

   541    H   49  S      Val( 1S)     0.47676
   542    H   49  S      Ryd( 2S)     0.00085
   543    H   49  px     Ryd( 2p)     0.00097
   544    H   49  py     Ryd( 2p)     0.00112
   545    H   49  pz     Ryd( 2p)     0.00060

   546    H   50  S      Val( 1S)     0.48348
   547    H   50  S      Ryd( 2S)     0.00338
   548    H   50  px     Ryd( 2p)     0.00078
   549    H   50  py     Ryd( 2p)     0.00089
   550    H   50  pz     Ryd( 2p)     0.00101

   551    H   51  S      Val( 1S)     0.76695
   552    H   51  S      Ryd( 2S)     0.00378
   553    H   51  px     Ryd( 2p)     0.00035
   554    H   51  py     Ryd( 2p)     0.00008
   555    H   51  pz     Ryd( 2p)     0.00020

   556    H   52  S      Val( 1S)     0.77039
   557    H   52  S      Ryd( 2S)     0.00162
   558    H   52  px     Ryd( 2p)     0.00010
   559    H   52  py     Ryd( 2p)     0.00017
   560    H   52  pz     Ryd( 2p)     0.00033

   561    H   53  S      Val( 1S)     0.78558
   562    H   53  S      Ryd( 2S)     0.00259
   563    H   53  px     Ryd( 2p)     0.00035
   564    H   53  py     Ryd( 2p)     0.00013
   565    H   53  pz     Ryd( 2p)     0.00015

   566    H   54  S      Val( 1S)     0.49484
   567    H   54  S      Ryd( 2S)     0.00251
   568    H   54  px     Ryd( 2p)     0.00086
   569    H   54  py     Ryd( 2p)     0.00067
   570    H   54  pz     Ryd( 2p)     0.00116

   571    H   55  S      Val( 1S)     0.75297
   572    H   55  S      Ryd( 2S)     0.00326
   573    H   55  px     Ryd( 2p)     0.00034
   574    H   55  py     Ryd( 2p)     0.00010
   575    H   55  pz     Ryd( 2p)     0.00015

   576    H   56  S      Val( 1S)     0.48274
   577    H   56  S      Ryd( 2S)     0.00116
   578    H   56  px     Ryd( 2p)     0.00079
   579    H   56  py     Ryd( 2p)     0.00079
   580    H   56  pz     Ryd( 2p)     0.00106

   581    H   57  S      Val( 1S)     0.75882
   582    H   57  S      Ryd( 2S)     0.00252
   583    H   57  px     Ryd( 2p)     0.00030
   584    H   57  py     Ryd( 2p)     0.00016
   585    H   57  pz     Ryd( 2p)     0.00014

   586    H   58  S      Val( 1S)     0.49412
   587    H   58  S      Ryd( 2S)     0.00363
   588    H   58  px     Ryd( 2p)     0.00082
   589    H   58  py     Ryd( 2p)     0.00107
   590    H   58  pz     Ryd( 2p)     0.00081

 WARNING:  1 low occupancy (<1.9990e) core orbital  found on  C    5
           1 low occupancy (<1.9990e) core orbital  found on  C   10


 Summary of Natural Population Analysis:                  
                                                          
                                       Natural Population 
                Natural  -----------------------------------------------
    Atom  No    Charge         Core      Valence    Rydberg      Total
 -----------------------------------------------------------------------
      O    1   -0.78308      1.99984     6.77132    0.01192     8.78308
      C    2    0.02675      1.99902     3.95020    0.02403     5.97325
      C    3    0.23865      1.99913     3.73397    0.02824     5.76135
      N    4   -0.70187      1.99945     5.68586    0.01656     7.70187
      C    5    0.06512      1.99892     3.91176    0.02421     5.93488
      C    6   -0.38000      1.99906     4.36045    0.02049     6.38000
      C    7   -0.16822      1.99911     4.15426    0.01485     6.16822
      C    8   -0.32795      1.99914     4.30968    0.01913     6.32795
      C    9   -0.36227      1.99909     4.34451    0.01867     6.36227
      C   10    0.17506      1.99893     3.80627    0.01974     5.82494
      N   11   -0.48913      1.99934     5.47832    0.01147     7.48913
      C   12    0.21475      1.99912     3.75803    0.02810     5.78525
      C   13    0.04776      1.99907     3.92862    0.02455     5.95224
      C   14    0.04932      1.99903     3.92722    0.02442     5.95068
      C   15    0.04130      1.99904     3.93808    0.02159     5.95870
      C   16    0.03779      1.99908     3.93913    0.02399     5.96221
      C   17   -0.11409      1.99920     4.09737    0.01753     6.11409
      O   18   -0.78455      1.99984     6.77312    0.01159     8.78455
      O   19   -0.60128      1.99977     6.58906    0.01244     8.60128
      O   20   -0.78556      1.99982     6.77367    0.01207     8.78556
      O   21   -0.78789      1.99981     6.77599    0.01208     8.78789
      O   22   -0.78511      1.99983     6.77370    0.01158     8.78511
      O   23   -0.61508      1.99977     6.60217    0.01315     8.61508
      C   24    0.03662      1.99908     3.94320    0.02111     5.96338
      C   25   -0.11799      1.99922     4.09791    0.02086     6.11799
      O   26   -0.79050      1.99985     6.77884    0.01181     8.79050
      C   27    0.04821      1.99901     3.93068    0.02210     5.95179
      O   28   -0.78757      1.99982     6.77597    0.01179     8.78757
      C   29    0.04004      1.99903     3.93592    0.02501     5.95996
      O   30   -0.78706      1.99983     6.77514    0.01209     8.78706
      H   31    0.50183      0.00000     0.49116    0.00701     0.49817
      H   32    0.24779      0.00000     0.74982    0.00239     0.75221
      H   33    0.24217      0.00000     0.75483    0.00300     0.75783
      H   34    0.41880      0.00000     0.57549    0.00572     0.58120
      H   35    0.23322      0.00000     0.76473    0.00205     0.76678
      H   36    0.23817      0.00000     0.76040    0.00143     0.76183
      H   37    0.23247      0.00000     0.76603    0.00150     0.76753
      H   38    0.23290      0.00000     0.76512    0.00198     0.76710
      H   39    0.45014      0.00000     0.54319    0.00667     0.54986
      H   40    0.24012      0.00000     0.75488    0.00499     0.75988
      H   41    0.25615      0.00000     0.74155    0.00230     0.74385
      H   42    0.25228      0.00000     0.74518    0.00254     0.74772
      H   43    0.24254      0.00000     0.75392    0.00354     0.75746
      H   44    0.22714      0.00000     0.76906    0.00380     0.77286
      H   45    0.21902      0.00000     0.77800    0.00297     0.78098
      H   46    0.21464      0.00000     0.78259    0.00276     0.78536
      H   47    0.50332      0.00000     0.49301    0.00366     0.49668
      H   48    0.50348      0.00000     0.49259    0.00393     0.49652
      H   49    0.51971      0.00000     0.47676    0.00353     0.48029
      H   50    0.51046      0.00000     0.48348    0.00606     0.48954
      H   51    0.22864      0.00000     0.76695    0.00441     0.77136
      H   52    0.22740      0.00000     0.77039    0.00222     0.77260
      H   53    0.21121      0.00000     0.78558    0.00322     0.78879
      H   54    0.49997      0.00000     0.49484    0.00519     0.50003
      H   55    0.24317      0.00000     0.75297    0.00385     0.75683
      H   56    0.51346      0.00000     0.48274    0.00380     0.48654
      H   57    0.23806      0.00000     0.75882    0.00312     0.76194
      H   58    0.49954      0.00000     0.49412    0.00634     0.50046
 =======================================================================
   * Total *   -0.00000     59.98023   169.36860    0.65116   230.00000

                                 Natural Population      
 --------------------------------------------------------
   Core                      59.98023 ( 99.9671% of  60)
   Valence                  169.36860 ( 99.6286% of 170)
   Natural Minimal Basis    229.34884 ( 99.7169% of 230)
   Natural Rydberg Basis      0.65116 (  0.2831% of 230)
 --------------------------------------------------------

    Atom  No          Natural Electron Configuration
 ----------------------------------------------------------------------------
      O    1      [core]2S( 1.68)2p( 5.09)3p( 0.01)3d( 0.01)
      C    2      [core]2S( 0.96)2p( 2.99)3p( 0.01)3d( 0.01)
      C    3      [core]2S( 0.94)2p( 2.80)3p( 0.02)3d( 0.01)
      N    4      [core]2S( 1.31)2p( 4.38)3p( 0.01)
      C    5      [core]2S( 0.83)2p( 3.08)3p( 0.02)
      C    6      [core]2S( 0.95)2p( 3.41)3p( 0.02)
      C    7      [core]2S( 0.97)2p( 3.18)3p( 0.01)
      C    8      [core]2S( 0.95)2p( 3.36)3p( 0.02)
      C    9      [core]2S( 0.94)2p( 3.40)3p( 0.02)
      C   10      [core]2S( 0.84)2p( 2.97)3p( 0.01)
      N   11      [core]2S( 1.25)2p( 4.23)3p( 0.01)
      C   12      [core]2S( 0.93)2p( 2.82)3p( 0.02)3d( 0.01)
      C   13      [core]2S( 0.96)2p( 2.97)3p( 0.02)3d( 0.01)
      C   14      [core]2S( 0.97)2p( 2.96)3p( 0.02)3d( 0.01)
      C   15      [core]2S( 0.97)2p( 2.97)3p( 0.01)3d( 0.01)
      C   16      [core]2S( 0.97)2p( 2.97)3p( 0.01)3d( 0.01)
      C   17      [core]2S( 1.03)2p( 3.07)3p( 0.01)3d( 0.01)
      O   18      [core]2S( 1.69)2p( 5.08)3p( 0.01)3d( 0.01)
      O   19      [core]2S( 1.63)2p( 4.96)3p( 0.01)3d( 0.01)
      O   20      [core]2S( 1.69)2p( 5.09)3p( 0.01)
      O   21      [core]2S( 1.69)2p( 5.09)3p( 0.01)
      O   22      [core]2S( 1.68)2p( 5.09)3p( 0.01)3d( 0.01)
      O   23      [core]2S( 1.62)2p( 4.98)3p( 0.01)
      C   24      [core]2S( 0.97)2p( 2.97)3p( 0.01)3d( 0.01)
      C   25      [core]2S( 1.02)2p( 3.07)3p( 0.01)3d( 0.01)
      O   26      [core]2S( 1.68)2p( 5.10)3p( 0.01)3d( 0.01)
      C   27      [core]2S( 0.97)2p( 2.96)3p( 0.01)3d( 0.01)
      O   28      [core]2S( 1.69)2p( 5.09)3p( 0.01)
      C   29      [core]2S( 0.97)2p( 2.97)3p( 0.02)3d( 0.01)
      O   30      [core]2S( 1.69)2p( 5.08)3p( 0.01)3d( 0.01)
      H   31            1S( 0.49)
      H   32            1S( 0.75)
      H   33            1S( 0.75)
      H   34            1S( 0.58)
      H   35            1S( 0.76)
      H   36            1S( 0.76)
      H   37            1S( 0.77)
      H   38            1S( 0.77)
      H   39            1S( 0.54)2S( 0.01)
      H   40            1S( 0.75)
      H   41            1S( 0.74)
      H   42            1S( 0.75)
      H   43            1S( 0.75)
      H   44            1S( 0.77)
      H   45            1S( 0.78)
      H   46            1S( 0.78)
      H   47            1S( 0.49)
      H   48            1S( 0.49)
      H   49            1S( 0.48)
      H   50            1S( 0.48)
      H   51            1S( 0.77)
      H   52            1S( 0.77)
      H   53            1S( 0.79)
      H   54            1S( 0.49)
      H   55            1S( 0.75)
      H   56            1S( 0.48)
      H   57            1S( 0.76)
      H   58            1S( 0.49)


 NBO analysis skipped by request.
 1\1\GINC-DRG2-W014\SP\RB3LYP TD-FC\6-31G(d,p)\C18H28N2O10\QDUEZ\22-Jul
 -2024\0\\# TD(NStates=10, Root=1) B3LYP/6-31G** SCRF=(Solvent=water) v
 olume pop=NPA density=current Geom=AllCheck Guess=Read\\LIBPKBFUVQJULU
 -KPHUVODXSA-N_conf_1\\0,1\O,0,4.6160396737,1.9322458361,-0.2344205245\
 C,0,4.1207608551,0.6925316034,-0.7202513885\C,0,2.6974783381,0.8889926
 539,-1.3034185533\N,0,1.9494268032,1.7806288024,-0.4454744149\C,0,0.76
 71890082,2.40639634,-0.9598985492\C,0,0.8916311373,3.5849676143,-1.696
 2222606\C,0,-0.2298916128,4.2643944672,-2.1752465771\C,0,-1.4977776923
 ,3.7709932417,-1.8663347845\C,0,-1.6447267216,2.5985660479,-1.12570253
 1\C,0,-0.5205104375,1.8699372155,-0.6934818678\N,0,-0.6299269868,0.675
 1465243,0.006599864\C,0,-1.8641205891,0.0229155379,0.2729605257\C,0,-1
 .6331867527,-1.4951067322,0.5187400002\C,0,-2.6594706494,-2.038024196,
 1.5474545921\C,0,-4.0014130672,-1.3112005286,1.4245474098\C,0,-3.82145
 069,0.2160004754,1.6266832309\C,0,-4.2018158436,0.677480379,3.03031691
 41\O,0,-5.6079485391,0.4928737098,3.1718556025\O,0,-2.474546201,0.6422
 180408,1.4224946404\O,0,-4.4798214419,-1.6329844081,0.1155702425\O,0,-
 2.1020774682,-1.8353085318,2.8532637026\O,0,-0.3186870876,-1.795759791
 1,0.962971396\O,0,2.0037714075,-0.3658360747,-1.4552827002\C,0,2.80308
 39232,-1.550808265,-1.4144006158\C,0,1.8859109794,-2.7299242271,-1.753
 0816688\O,0,2.6255135213,-3.9270921838,-1.9566053065\C,0,3.4248782797,
 -1.6686743565,-0.0164874103\O,0,4.3148869746,-2.7927399543,-0.04977700
 67\C,0,4.1366555673,-0.3623269759,0.4021059002\O,0,3.47954659,0.150772
 6436,1.5638330977\H,0,3.8167806525,2.4827266738,-0.1145375006\H,0,4.78
 49310953,0.3521148529,-1.5224900146\H,0,2.7660577678,1.3656520528,-2.2
 884046976\H,0,1.8089922628,1.3445320522,0.4642329311\H,0,1.8910711624,
 3.9727854541,-1.8726752521\H,0,-0.113089299,5.1785265355,-2.748299605\
 H,0,-2.3862466901,4.3012451511,-2.1973280612\H,0,-2.6398133939,2.24424
 72945,-0.8828400788\H,0,0.1787501094,0.0659109253,0.027482001\H,0,-2.5
 694490536,0.1227403404,-0.5668015041\H,0,-1.7729800601,-2.0105458863,-
 0.4351783967\H,0,-2.8101927943,-3.1062499898,1.3639044046\H,0,-4.69448
 51233,-1.6871320452,2.1877313896\H,0,-4.4867124592,0.7224610598,0.9060
 095862\H,0,-3.6371833553,0.0925180558,3.7660868875\H,0,-3.9184186463,1
 .7339771978,3.1391912268\H,0,-5.8255034214,0.5949397311,4.1072728463\H
 ,0,-5.3526673174,-1.2303761784,0.0107093898\H,0,-2.2791668727,-2.62166
 45957,3.3850137362\H,0,-0.3691486443,-1.7472371607,1.9352469308\H,0,3.
 5990416037,-1.5187855694,-2.1726351546\H,0,1.3582640813,-2.506281016,-
 2.6858683458\H,0,1.1352336959,-2.8383459258,-0.9561471607\H,0,3.261486
 4519,-3.9722689961,-1.2214418692\H,0,2.6109978245,-1.8405854961,0.6995
 059344\H,0,4.5125682896,-3.0518904091,0.86113603\H,0,5.1844863407,-0.6
 002893072,0.6338079896\H,0,3.9169945152,0.9960002903,1.7548739198\\Ver
 sion=ES64L-G16RevA.03\State=1-A\HF=-1564.5038283\RMSD=4.417e-09\Dipole
 =-1.3594155,-1.8138293,3.2190993\Quadrupole=12.0506529,-15.8589081,3.8
 082552,5.5723207,-5.8728865,-13.1477079\PG=C01 [X(C18H28N2O10)]\\@


 ON INDUCTION, OR "WHY DO YOU BELIEVE THE SUN WILL RISE TOMORROW?":

 ... THE FARMER WHO HAS FED THE CHICKEN EVERY DAY THROUGHOUT ITS
 LIFE AT LAST WRINGS ITS NECK INSTEAD, SHOWING THAT MORE REFINED VIEWS
 AS TO THE UNIFORMITY OF NATURE WOULD HAVE BEEN USEFUL TO THE CHICKEN.

                               -- BERTRAND RUSSELL
 Job cpu time:       0 days  4 hours 32 minutes 30.6 seconds.
 Elapsed time:       0 days  0 hours 30 minutes 22.6 seconds.
 File lengths (MBytes):  RWF=   2846 Int=      0 D2E=      0 Chk=    169 Scr=      1
 Normal termination of Gaussian 16 at Mon Jul 22 18:42:49 2024.
