 Entering Gaussian System, Link 0=g16
 Initial command:
 /opt/sw/arch/manual/gaussian/G16_A03/g16/l1.exe "/scratch/1380900/Gau-50199.inp" -scrdir="/scratch/1380900/"
 Entering Link 1 = /opt/sw/arch/manual/gaussian/G16_A03/g16/l1.exe PID=     50200.
  
 Copyright (c) 1988,1990,1992,1993,1995,1998,2003,2009,2016,
            Gaussian, Inc.  All Rights Reserved.
  
 This is part of the Gaussian(R) 16 program.  It is based on
 the Gaussian(R) 09 system (copyright 2009, Gaussian, Inc.),
 the Gaussian(R) 03 system (copyright 2003, Gaussian, Inc.),
 the Gaussian(R) 98 system (copyright 1998, Gaussian, Inc.),
 the Gaussian(R) 94 system (copyright 1995, Gaussian, Inc.),
 the Gaussian 92(TM) system (copyright 1992, Gaussian, Inc.),
 the Gaussian 90(TM) system (copyright 1990, Gaussian, Inc.),
 the Gaussian 88(TM) system (copyright 1988, Gaussian, Inc.),
 the Gaussian 86(TM) system (copyright 1986, Carnegie Mellon
 University), and the Gaussian 82(TM) system (copyright 1983,
 Carnegie Mellon University). Gaussian is a federally registered
 trademark of Gaussian, Inc.
  
 This software contains proprietary and confidential information,
 including trade secrets, belonging to Gaussian, Inc.
  
 This software is provided under written license and may be
 used, copied, transmitted, or stored only in accord with that
 written license.
  
 The following legend is applicable only to US Government
 contracts under FAR:
  
                    RESTRICTED RIGHTS LEGEND
  
 Use, reproduction and disclosure by the US Government is
 subject to restrictions as set forth in subparagraphs (a)
 and (c) of the Commercial Computer Software - Restricted
 Rights clause in FAR 52.227-19.
  
 Gaussian, Inc.
 340 Quinnipiac St., Bldg. 40, Wallingford CT 06492
  
  
 ---------------------------------------------------------------
 Warning -- This program may not be used in any manner that
 competes with the business of Gaussian, Inc. or will provide
 assistance to any competitor of Gaussian, Inc.  The licensee
 of this program is prohibited from giving any competitor of
 Gaussian, Inc. access to this program.  By using this program,
 the user acknowledges that Gaussian, Inc. is engaged in the
 business of creating and licensing software in the field of
 computational chemistry and represents and warrants to the
 licensee that it is not a competitor of Gaussian, Inc. and that
 it will not use this program in any manner prohibited above.
 ---------------------------------------------------------------
  

 Cite this work as:
 Gaussian 16, Revision A.03,
 M. J. Frisch, G. W. Trucks, H. B. Schlegel, G. E. Scuseria, 
 M. A. Robb, J. R. Cheeseman, G. Scalmani, V. Barone, 
 G. A. Petersson, H. Nakatsuji, X. Li, M. Caricato, A. V. Marenich, 
 J. Bloino, B. G. Janesko, R. Gomperts, B. Mennucci, H. P. Hratchian, 
 J. V. Ortiz, A. F. Izmaylov, J. L. Sonnenberg, D. Williams-Young, 
 F. Ding, F. Lipparini, F. Egidi, J. Goings, B. Peng, A. Petrone, 
 T. Henderson, D. Ranasinghe, V. G. Zakrzewski, J. Gao, N. Rega, 
 G. Zheng, W. Liang, M. Hada, M. Ehara, K. Toyota, R. Fukuda, 
 J. Hasegawa, M. Ishida, T. Nakajima, Y. Honda, O. Kitao, H. Nakai, 
 T. Vreven, K. Throssell, J. A. Montgomery, Jr., J. E. Peralta, 
 F. Ogliaro, M. J. Bearpark, J. J. Heyd, E. N. Brothers, K. N. Kudin, 
 V. N. Staroverov, T. A. Keith, R. Kobayashi, J. Normand, 
 K. Raghavachari, A. P. Rendell, J. C. Burant, S. S. Iyengar, 
 J. Tomasi, M. Cossi, J. M. Millam, M. Klene, C. Adamo, R. Cammi, 
 J. W. Ochterski, R. L. Martin, K. Morokuma, O. Farkas, 
 J. B. Foresman, and D. J. Fox, Gaussian, Inc., Wallingford CT, 2016.
 
 ******************************************
 Gaussian 16:  ES64L-G16RevA.03 25-Dec-2016
                18-Jul-2024 
 ******************************************
 %nprocshared=7
 Will use up to    7 processors via shared memory.
 %mem=14GB
 %Chk=KIFDSGGWDIVQGN-UHFFFAOYSA-N_conf_1_0.chk
 -------------------------------------------------------
 # opt=CalcFc B3LYP/6-31G** SCRF=(Solvent=water) scf=xqc
 -------------------------------------------------------
 1/10=4,18=20,19=15,26=3,38=1/1,3;
 2/9=110,12=2,17=6,18=5,40=1/2;
 3/5=1,6=6,7=101,11=2,25=1,30=1,70=2201,71=2,72=1,74=-5,140=1/1,2,3;
 4//1;
 5/5=2,8=3,13=1,38=5,53=1/2,8;
 8/6=4,10=90,11=11/1;
 11/6=1,8=1,9=11,15=111,16=1/1,2,10;
 10/6=1,13=1/2;
 6/7=2,8=2,9=2,10=2,28=1/1;
 7/10=1,18=20,25=1/1,2,3,16;
 1/10=4,18=20,19=15,26=3/3(2);
 2/9=110/2;
 99//99;
 2/9=110/2;
 3/5=1,6=6,7=101,11=2,25=1,30=1,70=2205,71=1,72=1,74=-5/1,2,3;
 4/5=5,16=3,69=1/1;
 5/5=2,8=3,13=1,38=5,53=1/2,8;
 7//1,2,3,16;
 1/18=20,19=15,26=3/3(-5);
 2/9=110/2;
 6/7=2,8=2,9=2,10=2,19=2,28=1/1;
 99/9=1/99;
 ----------------------------------
 KIFDSGGWDIVQGN-UHFFFAOYSA-N_conf_1
 ----------------------------------
 Symbolic Z-matrix:
 Charge =  0 Multiplicity = 1
 N                     0.3987    5.68401   0.35639 
 C                     0.31763   4.28713   0.35406 
 C                     1.21803   3.53007  -0.39225 
 C                     1.07501   2.14114  -0.49435 
 C                    -0.79123   3.64404   0.90094 
 C                    -0.93957   2.25433   0.80375 
 C                     0.00944   1.46381   0.13119 
 C                    -0.15449  -0.07719  -0.0214 
 C                     1.18726  -0.86554   0.03426 
 C                     1.41     -2.01912  -0.73873 
 C                     2.61146  -2.7341   -0.64919 
 C                     3.63761  -2.30996   0.19303 
 N                     4.78528  -3.09264   0.36072 
 C                     3.39717  -1.22298   1.03059 
 C                     2.19831  -0.5048    0.94704 
 C                    -1.11742  -0.70147   1.03114 
 C                    -2.27086  -1.22239   0.40491 
 C                    -3.26849  -1.82737   1.15474 
 C                    -3.10811  -1.9122    2.54077 
 C                    -1.96172  -1.39648   3.1635 
 C                    -0.95627  -0.78652   2.41144 
 C                    -2.18284  -1.00399  -1.02093 
 C                    -0.97157  -0.34275  -1.3201 
 C                    -0.64491  -0.0138   -2.63294 
 C                    -1.54069  -0.3543   -3.64794 
 C                    -2.74303  -1.01278  -3.35005 
 C                    -3.07067  -1.34159  -2.03152 
 H                     1.34126   6.03912   0.23266 
 H                    -0.0786    6.11891   1.13949 
 H                     2.04242   4.01346  -0.90944 
 H                     1.80678   1.59278  -1.0849 
 H                    -1.56268   4.21884   1.40658 
 H                    -1.82886   1.80901   1.24477 
 H                     0.64305  -2.40171  -1.40884 
 H                     2.73015  -3.63521  -1.24511 
 H                     5.58102  -2.57887   0.72496 
 H                     5.02369  -3.64699  -0.4554 
 H                     4.14012  -0.92289   1.76457 
 H                     2.0591    0.33978   1.61952 
 H                    -4.15897  -2.23152   0.68518 
 H                    -3.8792   -2.38564   3.14399 
 H                    -1.85457  -1.47558   4.24284 
 H                    -0.07299  -0.38947   2.90056 
 H                     0.28328   0.49474  -2.87152 
 H                    -1.30603  -0.10432  -4.68 
 H                    -3.42869  -1.26761  -4.15475 
 H                    -4.00433  -1.84939  -1.81424 
 

 GradGradGradGradGradGradGradGradGradGradGradGradGradGradGradGradGradGrad
 Berny optimization.
 Initialization pass.
                           ----------------------------
                           !    Initial Parameters    !
                           ! (Angstroms and Degrees)  !
 --------------------------                            --------------------------
 ! Name  Definition              Value          Derivative Info.                !
 --------------------------------------------------------------------------------
 ! R1    R(1,2)                  1.3992         calculate D2E/DX2 analytically  !
 ! R2    R(1,28)                 1.0148         calculate D2E/DX2 analytically  !
 ! R3    R(1,29)                 1.015          calculate D2E/DX2 analytically  !
 ! R4    R(2,3)                  1.3931         calculate D2E/DX2 analytically  !
 ! R5    R(2,5)                  1.3936         calculate D2E/DX2 analytically  !
 ! R6    R(3,4)                  1.4            calculate D2E/DX2 analytically  !
 ! R7    R(3,30)                 1.0866         calculate D2E/DX2 analytically  !
 ! R8    R(4,7)                  1.4091         calculate D2E/DX2 analytically  !
 ! R9    R(4,31)                 1.0886         calculate D2E/DX2 analytically  !
 ! R10   R(5,6)                  1.401          calculate D2E/DX2 analytically  !
 ! R11   R(5,32)                 1.0868         calculate D2E/DX2 analytically  !
 ! R12   R(6,7)                  1.4064         calculate D2E/DX2 analytically  !
 ! R13   R(6,33)                 1.088          calculate D2E/DX2 analytically  !
 ! R14   R(7,8)                  1.5572         calculate D2E/DX2 analytically  !
 ! R15   R(8,9)                  1.5572         calculate D2E/DX2 analytically  !
 ! R16   R(8,16)                 1.5572         calculate D2E/DX2 analytically  !
 ! R17   R(8,23)                 1.5572         calculate D2E/DX2 analytically  !
 ! R18   R(9,10)                 1.4064         calculate D2E/DX2 analytically  !
 ! R19   R(9,15)                 1.4091         calculate D2E/DX2 analytically  !
 ! R20   R(10,11)                1.401          calculate D2E/DX2 analytically  !
 ! R21   R(10,34)                1.088          calculate D2E/DX2 analytically  !
 ! R22   R(11,12)                1.3936         calculate D2E/DX2 analytically  !
 ! R23   R(11,35)                1.0868         calculate D2E/DX2 analytically  !
 ! R24   R(12,13)                1.3992         calculate D2E/DX2 analytically  !
 ! R25   R(12,14)                1.3931         calculate D2E/DX2 analytically  !
 ! R26   R(13,36)                1.0148         calculate D2E/DX2 analytically  !
 ! R27   R(13,37)                1.015          calculate D2E/DX2 analytically  !
 ! R28   R(14,15)                1.4            calculate D2E/DX2 analytically  !
 ! R29   R(14,38)                1.0866         calculate D2E/DX2 analytically  !
 ! R30   R(15,39)                1.0885         calculate D2E/DX2 analytically  !
 ! R31   R(16,17)                1.4121         calculate D2E/DX2 analytically  !
 ! R32   R(16,21)                1.3923         calculate D2E/DX2 analytically  !
 ! R33   R(17,18)                1.3869         calculate D2E/DX2 analytically  !
 ! R34   R(17,22)                1.4452         calculate D2E/DX2 analytically  !
 ! R35   R(18,19)                1.3978         calculate D2E/DX2 analytically  !
 ! R36   R(18,40)                1.0848         calculate D2E/DX2 analytically  !
 ! R37   R(19,20)                1.4028         calculate D2E/DX2 analytically  !
 ! R38   R(19,41)                1.0875         calculate D2E/DX2 analytically  !
 ! R39   R(20,21)                1.3959         calculate D2E/DX2 analytically  !
 ! R40   R(20,42)                1.0875         calculate D2E/DX2 analytically  !
 ! R41   R(21,43)                1.0849         calculate D2E/DX2 analytically  !
 ! R42   R(22,23)                1.4121         calculate D2E/DX2 analytically  !
 ! R43   R(22,27)                1.3869         calculate D2E/DX2 analytically  !
 ! R44   R(23,24)                1.3923         calculate D2E/DX2 analytically  !
 ! R45   R(24,25)                1.3959         calculate D2E/DX2 analytically  !
 ! R46   R(24,44)                1.0849         calculate D2E/DX2 analytically  !
 ! R47   R(25,26)                1.4028         calculate D2E/DX2 analytically  !
 ! R48   R(25,45)                1.0875         calculate D2E/DX2 analytically  !
 ! R49   R(26,27)                1.3978         calculate D2E/DX2 analytically  !
 ! R50   R(26,46)                1.0875         calculate D2E/DX2 analytically  !
 ! R51   R(27,47)                1.0848         calculate D2E/DX2 analytically  !
 ! A1    A(2,1,28)             113.763          calculate D2E/DX2 analytically  !
 ! A2    A(2,1,29)             113.6906         calculate D2E/DX2 analytically  !
 ! A3    A(28,1,29)            112.39           calculate D2E/DX2 analytically  !
 ! A4    A(1,2,3)              120.3942         calculate D2E/DX2 analytically  !
 ! A5    A(1,2,5)              120.4058         calculate D2E/DX2 analytically  !
 ! A6    A(3,2,5)              118.2751         calculate D2E/DX2 analytically  !
 ! A7    A(2,3,4)              120.8077         calculate D2E/DX2 analytically  !
 ! A8    A(2,3,30)             120.2363         calculate D2E/DX2 analytically  !
 ! A9    A(4,3,30)             118.9554         calculate D2E/DX2 analytically  !
 ! A10   A(3,4,7)              121.4508         calculate D2E/DX2 analytically  !
 ! A11   A(3,4,31)             118.0769         calculate D2E/DX2 analytically  !
 ! A12   A(7,4,31)             120.4678         calculate D2E/DX2 analytically  !
 ! A13   A(2,5,6)              120.9813         calculate D2E/DX2 analytically  !
 ! A14   A(2,5,32)             120.2179         calculate D2E/DX2 analytically  !
 ! A15   A(6,5,32)             118.7993         calculate D2E/DX2 analytically  !
 ! A16   A(5,6,7)              121.2858         calculate D2E/DX2 analytically  !
 ! A17   A(5,6,33)             117.6748         calculate D2E/DX2 analytically  !
 ! A18   A(7,6,33)             121.0207         calculate D2E/DX2 analytically  !
 ! A19   A(4,7,6)              116.8974         calculate D2E/DX2 analytically  !
 ! A20   A(4,7,8)              120.7836         calculate D2E/DX2 analytically  !
 ! A21   A(6,7,8)              122.1462         calculate D2E/DX2 analytically  !
 ! A22   A(7,8,9)              114.0032         calculate D2E/DX2 analytically  !
 ! A23   A(7,8,16)             113.3034         calculate D2E/DX2 analytically  !
 ! A24   A(7,8,23)             107.8017         calculate D2E/DX2 analytically  !
 ! A25   A(9,8,16)             107.8007         calculate D2E/DX2 analytically  !
 ! A26   A(9,8,23)             113.3033         calculate D2E/DX2 analytically  !
 ! A27   A(16,8,23)             99.8392         calculate D2E/DX2 analytically  !
 ! A28   A(8,9,10)             122.1461         calculate D2E/DX2 analytically  !
 ! A29   A(8,9,15)             120.7837         calculate D2E/DX2 analytically  !
 ! A30   A(10,9,15)            116.8973         calculate D2E/DX2 analytically  !
 ! A31   A(9,10,11)            121.2861         calculate D2E/DX2 analytically  !
 ! A32   A(9,10,34)            121.0205         calculate D2E/DX2 analytically  !
 ! A33   A(11,10,34)           117.6748         calculate D2E/DX2 analytically  !
 ! A34   A(10,11,12)           120.9812         calculate D2E/DX2 analytically  !
 ! A35   A(10,11,35)           118.7995         calculate D2E/DX2 analytically  !
 ! A36   A(12,11,35)           120.2179         calculate D2E/DX2 analytically  !
 ! A37   A(11,12,13)           120.4056         calculate D2E/DX2 analytically  !
 ! A38   A(11,12,14)           118.2752         calculate D2E/DX2 analytically  !
 ! A39   A(13,12,14)           120.3943         calculate D2E/DX2 analytically  !
 ! A40   A(12,13,36)           113.764          calculate D2E/DX2 analytically  !
 ! A41   A(12,13,37)           113.6911         calculate D2E/DX2 analytically  !
 ! A42   A(36,13,37)           112.3912         calculate D2E/DX2 analytically  !
 ! A43   A(12,14,15)           120.8078         calculate D2E/DX2 analytically  !
 ! A44   A(12,14,38)           120.236          calculate D2E/DX2 analytically  !
 ! A45   A(15,14,38)           118.9556         calculate D2E/DX2 analytically  !
 ! A46   A(9,15,14)            121.4509         calculate D2E/DX2 analytically  !
 ! A47   A(9,15,39)            120.4678         calculate D2E/DX2 analytically  !
 ! A48   A(14,15,39)           118.0768         calculate D2E/DX2 analytically  !
 ! A49   A(8,16,17)            110.687          calculate D2E/DX2 analytically  !
 ! A50   A(8,16,21)            128.5374         calculate D2E/DX2 analytically  !
 ! A51   A(17,16,21)           120.7756         calculate D2E/DX2 analytically  !
 ! A52   A(16,17,18)           120.579          calculate D2E/DX2 analytically  !
 ! A53   A(16,17,22)           109.3934         calculate D2E/DX2 analytically  !
 ! A54   A(18,17,22)           130.0276         calculate D2E/DX2 analytically  !
 ! A55   A(17,18,19)           118.6864         calculate D2E/DX2 analytically  !
 ! A56   A(17,18,40)           121.2623         calculate D2E/DX2 analytically  !
 ! A57   A(19,18,40)           120.0512         calculate D2E/DX2 analytically  !
 ! A58   A(18,19,20)           120.7707         calculate D2E/DX2 analytically  !
 ! A59   A(18,19,41)           119.6743         calculate D2E/DX2 analytically  !
 ! A60   A(20,19,41)           119.5547         calculate D2E/DX2 analytically  !
 ! A61   A(19,20,21)           120.6697         calculate D2E/DX2 analytically  !
 ! A62   A(19,20,42)           119.6268         calculate D2E/DX2 analytically  !
 ! A63   A(21,20,42)           119.7033         calculate D2E/DX2 analytically  !
 ! A64   A(16,21,20)           118.5186         calculate D2E/DX2 analytically  !
 ! A65   A(16,21,43)           121.2537         calculate D2E/DX2 analytically  !
 ! A66   A(20,21,43)           120.2277         calculate D2E/DX2 analytically  !
 ! A67   A(17,22,23)           109.3935         calculate D2E/DX2 analytically  !
 ! A68   A(17,22,27)           130.0275         calculate D2E/DX2 analytically  !
 ! A69   A(23,22,27)           120.579          calculate D2E/DX2 analytically  !
 ! A70   A(8,23,22)            110.6869         calculate D2E/DX2 analytically  !
 ! A71   A(8,23,24)            128.5375         calculate D2E/DX2 analytically  !
 ! A72   A(22,23,24)           120.7755         calculate D2E/DX2 analytically  !
 ! A73   A(23,24,25)           118.5187         calculate D2E/DX2 analytically  !
 ! A74   A(23,24,44)           121.2536         calculate D2E/DX2 analytically  !
 ! A75   A(25,24,44)           120.2277         calculate D2E/DX2 analytically  !
 ! A76   A(24,25,26)           120.6696         calculate D2E/DX2 analytically  !
 ! A77   A(24,25,45)           119.7034         calculate D2E/DX2 analytically  !
 ! A78   A(26,25,45)           119.6267         calculate D2E/DX2 analytically  !
 ! A79   A(25,26,27)           120.7707         calculate D2E/DX2 analytically  !
 ! A80   A(25,26,46)           119.5548         calculate D2E/DX2 analytically  !
 ! A81   A(27,26,46)           119.6743         calculate D2E/DX2 analytically  !
 ! A82   A(22,27,26)           118.6863         calculate D2E/DX2 analytically  !
 ! A83   A(22,27,47)           121.2622         calculate D2E/DX2 analytically  !
 ! A84   A(26,27,47)           120.0514         calculate D2E/DX2 analytically  !
 ! D1    D(28,1,2,3)           -30.6238         calculate D2E/DX2 analytically  !
 ! D2    D(28,1,2,5)           160.5707         calculate D2E/DX2 analytically  !
 ! D3    D(29,1,2,3)          -160.9907         calculate D2E/DX2 analytically  !
 ! D4    D(29,1,2,5)            30.2038         calculate D2E/DX2 analytically  !
 ! D5    D(1,2,3,4)           -174.4206         calculate D2E/DX2 analytically  !
 ! D6    D(1,2,3,30)             5.2872         calculate D2E/DX2 analytically  !
 ! D7    D(5,2,3,4)             -5.3806         calculate D2E/DX2 analytically  !
 ! D8    D(5,2,3,30)           174.3272         calculate D2E/DX2 analytically  !
 ! D9    D(1,2,5,6)            174.4945         calculate D2E/DX2 analytically  !
 ! D10   D(1,2,5,32)            -5.0629         calculate D2E/DX2 analytically  !
 ! D11   D(3,2,5,6)              5.4558         calculate D2E/DX2 analytically  !
 ! D12   D(3,2,5,32)          -174.1016         calculate D2E/DX2 analytically  !
 ! D13   D(2,3,4,7)              1.0694         calculate D2E/DX2 analytically  !
 ! D14   D(2,3,4,31)          -179.7            calculate D2E/DX2 analytically  !
 ! D15   D(30,3,4,7)          -178.6422         calculate D2E/DX2 analytically  !
 ! D16   D(30,3,4,31)            0.5885         calculate D2E/DX2 analytically  !
 ! D17   D(3,4,7,6)              3.1681         calculate D2E/DX2 analytically  !
 ! D18   D(3,4,7,8)            178.4909         calculate D2E/DX2 analytically  !
 ! D19   D(31,4,7,6)          -176.0443         calculate D2E/DX2 analytically  !
 ! D20   D(31,4,7,8)            -0.7215         calculate D2E/DX2 analytically  !
 ! D21   D(2,5,6,7)             -1.2063         calculate D2E/DX2 analytically  !
 ! D22   D(2,5,6,33)          -179.6519         calculate D2E/DX2 analytically  !
 ! D23   D(32,5,6,7)           178.3573         calculate D2E/DX2 analytically  !
 ! D24   D(32,5,6,33)           -0.0884         calculate D2E/DX2 analytically  !
 ! D25   D(5,6,7,4)             -3.097          calculate D2E/DX2 analytically  !
 ! D26   D(5,6,7,8)           -178.3512         calculate D2E/DX2 analytically  !
 ! D27   D(33,6,7,4)           175.2967         calculate D2E/DX2 analytically  !
 ! D28   D(33,6,7,8)             0.0426         calculate D2E/DX2 analytically  !
 ! D29   D(4,7,8,9)             40.073          calculate D2E/DX2 analytically  !
 ! D30   D(4,7,8,16)           163.8647         calculate D2E/DX2 analytically  !
 ! D31   D(4,7,8,23)           -86.6401         calculate D2E/DX2 analytically  !
 ! D32   D(6,7,8,9)           -144.854          calculate D2E/DX2 analytically  !
 ! D33   D(6,7,8,16)           -21.0623         calculate D2E/DX2 analytically  !
 ! D34   D(6,7,8,23)            88.4329         calculate D2E/DX2 analytically  !
 ! D35   D(7,8,9,10)          -144.855          calculate D2E/DX2 analytically  !
 ! D36   D(7,8,9,15)            40.074          calculate D2E/DX2 analytically  !
 ! D37   D(16,8,9,10)           88.4327         calculate D2E/DX2 analytically  !
 ! D38   D(16,8,9,15)          -86.6383         calculate D2E/DX2 analytically  !
 ! D39   D(23,8,9,10)          -21.0619         calculate D2E/DX2 analytically  !
 ! D40   D(23,8,9,15)          163.8671         calculate D2E/DX2 analytically  !
 ! D41   D(7,8,16,17)          114.387          calculate D2E/DX2 analytically  !
 ! D42   D(7,8,16,21)          -65.7249         calculate D2E/DX2 analytically  !
 ! D43   D(9,8,16,17)         -118.4926         calculate D2E/DX2 analytically  !
 ! D44   D(9,8,16,21)           61.3955         calculate D2E/DX2 analytically  !
 ! D45   D(23,8,16,17)           0.0217         calculate D2E/DX2 analytically  !
 ! D46   D(23,8,16,21)         179.9098         calculate D2E/DX2 analytically  !
 ! D47   D(7,8,23,22)         -118.4952         calculate D2E/DX2 analytically  !
 ! D48   D(7,8,23,24)           61.3935         calculate D2E/DX2 analytically  !
 ! D49   D(9,8,23,22)          114.3837         calculate D2E/DX2 analytically  !
 ! D50   D(9,8,23,24)          -65.7276         calculate D2E/DX2 analytically  !
 ! D51   D(16,8,23,22)           0.0196         calculate D2E/DX2 analytically  !
 ! D52   D(16,8,23,24)         179.9083         calculate D2E/DX2 analytically  !
 ! D53   D(8,9,10,11)         -178.3486         calculate D2E/DX2 analytically  !
 ! D54   D(8,9,10,34)            0.0459         calculate D2E/DX2 analytically  !
 ! D55   D(15,9,10,11)          -3.0964         calculate D2E/DX2 analytically  !
 ! D56   D(15,9,10,34)         175.2981         calculate D2E/DX2 analytically  !
 ! D57   D(8,9,15,14)          178.4871         calculate D2E/DX2 analytically  !
 ! D58   D(8,9,15,39)           -0.7247         calculate D2E/DX2 analytically  !
 ! D59   D(10,9,15,14)           3.1662         calculate D2E/DX2 analytically  !
 ! D60   D(10,9,15,39)        -176.0457         calculate D2E/DX2 analytically  !
 ! D61   D(9,10,11,12)          -1.2047         calculate D2E/DX2 analytically  !
 ! D62   D(9,10,11,35)         178.3575         calculate D2E/DX2 analytically  !
 ! D63   D(34,10,11,12)       -179.6511         calculate D2E/DX2 analytically  !
 ! D64   D(34,10,11,35)         -0.0889         calculate D2E/DX2 analytically  !
 ! D65   D(10,11,12,13)        174.4923         calculate D2E/DX2 analytically  !
 ! D66   D(10,11,12,14)          5.4533         calculate D2E/DX2 analytically  !
 ! D67   D(35,11,12,13)         -5.0637         calculate D2E/DX2 analytically  !
 ! D68   D(35,11,12,14)       -174.1027         calculate D2E/DX2 analytically  !
 ! D69   D(11,12,13,36)        160.5741         calculate D2E/DX2 analytically  !
 ! D70   D(11,12,13,37)         30.2041         calculate D2E/DX2 analytically  !
 ! D71   D(14,12,13,36)        -30.62           calculate D2E/DX2 analytically  !
 ! D72   D(14,12,13,37)       -160.99           calculate D2E/DX2 analytically  !
 ! D73   D(11,12,14,15)         -5.3793         calculate D2E/DX2 analytically  !
 ! D74   D(11,12,14,38)        174.3291         calculate D2E/DX2 analytically  !
 ! D75   D(13,12,14,15)       -174.4196         calculate D2E/DX2 analytically  !
 ! D76   D(13,12,14,38)          5.2888         calculate D2E/DX2 analytically  !
 ! D77   D(12,14,15,9)           1.0703         calculate D2E/DX2 analytically  !
 ! D78   D(12,14,15,39)       -179.6996         calculate D2E/DX2 analytically  !
 ! D79   D(38,14,15,9)        -178.6418         calculate D2E/DX2 analytically  !
 ! D80   D(38,14,15,39)          0.5883         calculate D2E/DX2 analytically  !
 ! D81   D(8,16,17,18)        -179.9645         calculate D2E/DX2 analytically  !
 ! D82   D(8,16,17,22)          -0.0549         calculate D2E/DX2 analytically  !
 ! D83   D(21,16,17,18)          0.1374         calculate D2E/DX2 analytically  !
 ! D84   D(21,16,17,22)       -179.953          calculate D2E/DX2 analytically  !
 ! D85   D(8,16,21,20)        -179.9848         calculate D2E/DX2 analytically  !
 ! D86   D(8,16,21,43)           0.0843         calculate D2E/DX2 analytically  !
 ! D87   D(17,16,21,20)         -0.1067         calculate D2E/DX2 analytically  !
 ! D88   D(17,16,21,43)        179.9624         calculate D2E/DX2 analytically  !
 ! D89   D(16,17,18,19)         -0.0804         calculate D2E/DX2 analytically  !
 ! D90   D(16,17,18,40)       -179.9818         calculate D2E/DX2 analytically  !
 ! D91   D(22,17,18,19)       -179.9691         calculate D2E/DX2 analytically  !
 ! D92   D(22,17,18,40)          0.1295         calculate D2E/DX2 analytically  !
 ! D93   D(16,17,22,23)          0.0675         calculate D2E/DX2 analytically  !
 ! D94   D(16,17,22,27)        179.966          calculate D2E/DX2 analytically  !
 ! D95   D(18,17,22,23)        179.966          calculate D2E/DX2 analytically  !
 ! D96   D(18,17,22,27)         -0.1356         calculate D2E/DX2 analytically  !
 ! D97   D(17,18,19,20)         -0.0022         calculate D2E/DX2 analytically  !
 ! D98   D(17,18,19,41)       -179.841          calculate D2E/DX2 analytically  !
 ! D99   D(40,18,19,20)        179.9004         calculate D2E/DX2 analytically  !
 ! D100  D(40,18,19,41)          0.0617         calculate D2E/DX2 analytically  !
 ! D101  D(18,19,20,21)          0.0308         calculate D2E/DX2 analytically  !
 ! D102  D(18,19,20,42)       -179.7919         calculate D2E/DX2 analytically  !
 ! D103  D(41,19,20,21)        179.8697         calculate D2E/DX2 analytically  !
 ! D104  D(41,19,20,42)          0.047          calculate D2E/DX2 analytically  !
 ! D105  D(19,20,21,16)          0.0239         calculate D2E/DX2 analytically  !
 ! D106  D(19,20,21,43)        179.9556         calculate D2E/DX2 analytically  !
 ! D107  D(42,20,21,16)        179.8465         calculate D2E/DX2 analytically  !
 ! D108  D(42,20,21,43)         -0.2218         calculate D2E/DX2 analytically  !
 ! D109  D(17,22,23,8)          -0.0534         calculate D2E/DX2 analytically  !
 ! D110  D(17,22,23,24)       -179.9521         calculate D2E/DX2 analytically  !
 ! D111  D(27,22,23,8)        -179.9631         calculate D2E/DX2 analytically  !
 ! D112  D(27,22,23,24)          0.1382         calculate D2E/DX2 analytically  !
 ! D113  D(17,22,27,26)       -179.9694         calculate D2E/DX2 analytically  !
 ! D114  D(17,22,27,47)          0.1281         calculate D2E/DX2 analytically  !
 ! D115  D(23,22,27,26)         -0.0807         calculate D2E/DX2 analytically  !
 ! D116  D(23,22,27,47)       -179.9831         calculate D2E/DX2 analytically  !
 ! D117  D(8,23,24,25)        -179.9862         calculate D2E/DX2 analytically  !
 ! D118  D(8,23,24,44)           0.0832         calculate D2E/DX2 analytically  !
 ! D119  D(22,23,24,25)         -0.1073         calculate D2E/DX2 analytically  !
 ! D120  D(22,23,24,44)        179.9621         calculate D2E/DX2 analytically  !
 ! D121  D(23,24,25,26)          0.0238         calculate D2E/DX2 analytically  !
 ! D122  D(23,24,25,45)        179.847          calculate D2E/DX2 analytically  !
 ! D123  D(44,24,25,26)        179.9551         calculate D2E/DX2 analytically  !
 ! D124  D(44,24,25,45)         -0.2217         calculate D2E/DX2 analytically  !
 ! D125  D(24,25,26,27)          0.0315         calculate D2E/DX2 analytically  !
 ! D126  D(24,25,26,46)        179.8705         calculate D2E/DX2 analytically  !
 ! D127  D(45,25,26,27)       -179.7918         calculate D2E/DX2 analytically  !
 ! D128  D(45,25,26,46)          0.0471         calculate D2E/DX2 analytically  !
 ! D129  D(25,26,27,22)         -0.0027         calculate D2E/DX2 analytically  !
 ! D130  D(25,26,27,47)        179.901          calculate D2E/DX2 analytically  !
 ! D131  D(46,26,27,22)       -179.8415         calculate D2E/DX2 analytically  !
 ! D132  D(46,26,27,47)          0.0622         calculate D2E/DX2 analytically  !
 --------------------------------------------------------------------------------
 Trust Radius=3.00D-01 FncErr=1.00D-07 GrdErr=1.00D-06 EigMax=2.50D+02 EigMin=1.00D-04
 Number of steps in this run=    277 maximum allowed number of steps=    282.
 GradGradGradGradGradGradGradGradGradGradGradGradGradGradGradGradGradGrad

                          Input orientation:                          
 ---------------------------------------------------------------------
 Center     Atomic      Atomic             Coordinates (Angstroms)
 Number     Number       Type             X           Y           Z
 ---------------------------------------------------------------------
      1          7           0        0.398701    5.684013    0.356395
      2          6           0        0.317627    4.287129    0.354060
      3          6           0        1.218034    3.530074   -0.392249
      4          6           0        1.075009    2.141141   -0.494347
      5          6           0       -0.791232    3.644037    0.900941
      6          6           0       -0.939568    2.254330    0.803748
      7          6           0        0.009439    1.463812    0.131192
      8          6           0       -0.154488   -0.077195   -0.021396
      9          6           0        1.187259   -0.865541    0.034265
     10          6           0        1.409998   -2.019117   -0.738725
     11          6           0        2.611463   -2.734100   -0.649191
     12          6           0        3.637611   -2.309959    0.193035
     13          7           0        4.785283   -3.092641    0.360720
     14          6           0        3.397169   -1.222982    1.030591
     15          6           0        2.198313   -0.504804    0.947035
     16          6           0       -1.117423   -0.701470    1.031136
     17          6           0       -2.270859   -1.222388    0.404914
     18          6           0       -3.268492   -1.827368    1.154745
     19          6           0       -3.108105   -1.912204    2.540768
     20          6           0       -1.961724   -1.396484    3.163498
     21          6           0       -0.956269   -0.786525    2.411441
     22          6           0       -2.182840   -1.003993   -1.020928
     23          6           0       -0.971571   -0.342746   -1.320103
     24          6           0       -0.644914   -0.013805   -2.632940
     25          6           0       -1.540686   -0.354303   -3.647941
     26          6           0       -2.743028   -1.012775   -3.350050
     27          6           0       -3.070669   -1.341593   -2.031524
     28          1           0        1.341264    6.039124    0.232664
     29          1           0       -0.078600    6.118912    1.139490
     30          1           0        2.042420    4.013464   -0.909440
     31          1           0        1.806781    1.592780   -1.084901
     32          1           0       -1.562680    4.218836    1.406584
     33          1           0       -1.828860    1.809007    1.244765
     34          1           0        0.643047   -2.401706   -1.408844
     35          1           0        2.730148   -3.635207   -1.245110
     36          1           0        5.581021   -2.578865    0.724962
     37          1           0        5.023694   -3.646987   -0.455396
     38          1           0        4.140123   -0.922890    1.764573
     39          1           0        2.059103    0.339781    1.619518
     40          1           0       -4.158971   -2.231523    0.685177
     41          1           0       -3.879204   -2.385639    3.143990
     42          1           0       -1.854568   -1.475579    4.242836
     43          1           0       -0.072986   -0.389471    2.900560
     44          1           0        0.283276    0.494741   -2.871525
     45          1           0       -1.306030   -0.104322   -4.680004
     46          1           0       -3.428688   -1.267614   -4.154748
     47          1           0       -4.004328   -1.849387   -1.814242
 ---------------------------------------------------------------------
                    Distance matrix (angstroms):
                    1          2          3          4          5
     1  N    0.000000
     2  C    1.399237   0.000000
     3  C    2.423061   1.393141   0.000000
     4  C    3.705820   2.428722   1.400006   0.000000
     5  C    2.423628   1.393633   2.392170   2.772794   0.000000
     6  C    3.708614   2.432083   2.777261   2.399247   1.400977
     7  C    4.244095   2.848819   2.450333   1.409083   2.446829
     8  C    5.800022   4.405812   3.877336   2.579992   3.886350
     9  C    6.604714   5.235316   4.416366   3.054859   5.000185
    10  C    7.846032   6.492780   5.563310   4.180871   6.293269
    11  C    8.761971   7.454250   6.422424   5.113965   7.393367
    12  C    8.626750   7.387137   6.348456   5.181863   7.454251
    13  N    9.811818   8.626761   7.559933   6.472228   8.761974
    14  C    7.559889   6.348432   5.418915   4.362932   6.422413
    15  C    6.472165   5.181816   4.362897   3.215652   5.113941
    16  C    6.597598   5.234875   5.038486   3.900550   4.359677
    17  C    7.404544   6.087497   5.949263   4.828750   5.110521
    18  C    8.396816   7.133612   7.157115   6.110202   6.011448
    19  C    8.647063   7.412763   7.545625   6.568103   6.239291
    20  C    7.974012   6.737346   6.857490   5.925907   5.647661
    21  C    6.922934   5.621173   5.587602   4.597926   4.683879
    22  C    7.300054   6.011563   5.702538   4.558808   5.218653
    23  C    6.403914   5.089262   4.544669   3.322658   4.567275
    24  C    6.518465   5.324160   4.588066   3.489342   5.088176
    25  C    7.500479   6.404079   5.770481   4.797318   6.102518
    26  C    8.273764   7.153812   6.713872   5.716610   6.600480
    27  C    8.191326   6.989568   6.694276   5.628409   6.217048
    28  H    1.014809   2.032746   2.588636   3.974130   3.275755
    29  H    1.014984   2.032074   3.275602   4.452292   2.586456
    30  H    2.663622   2.155513   1.086630   2.147971   3.382830
    31  H    4.560505   3.398191   2.139976   1.088551   3.860168
    32  H    2.663955   2.155928   3.382686   3.858466   1.086830
    33  H    4.557072   3.397330   3.863347   3.401070   2.135936
    34  H    8.279772   6.924900   6.045667   4.654068   6.628972
    35  H    9.739010   8.434513   7.372592   6.055519   8.366185
    36  H    9.760504   8.659258   7.589661   6.638472   8.908484
    37  H   10.445914   9.260263   8.123869   7.006857   9.424015
    38  H    7.722200   6.614025   5.746249   4.887323   6.776500
    39  H    5.737005   4.496185   3.864269   2.946483   4.422541
    40  H    9.139813   7.914695   7.954183   6.921417   6.775724
    41  H    9.549368   8.361992   8.572192   7.633705   7.136093
    42  H    8.452301   7.283530   7.482075   6.641083   6.205595
    43  H    6.601702   5.339272   5.279408   4.387172   4.558897
    44  H    6.112391   4.978733   4.029122   2.998074   5.030321
    45  H    7.859786   6.874802   6.161540   5.313301   6.742563
    46  H    9.128222   8.075853   7.665914   6.730634   7.525987
    47  H    8.991687   7.812660   7.631102   6.592883   6.919097
                    6          7          8          9         10
     6  C    0.000000
     7  C    1.406366   0.000000
     8  C    2.594845   1.557195   0.000000
     9  C    3.853452   2.611999   1.557200   0.000000
    10  C    5.114884   3.853455   2.594849   1.406366   0.000000
    11  C    6.293273   5.000199   3.886355   2.446831   1.400976
    12  C    6.492786   5.235342   4.405817   2.848820   2.432082
    13  N    7.846037   6.604743   5.800023   4.244093   3.708609
    14  C    5.563313   4.416389   3.877340   2.450333   2.777257
    15  C    4.180867   3.054868   2.579996   1.409081   2.399244
    16  C    2.969864   2.601569   1.557173   2.516393   3.355065
    17  C    3.744192   3.534169   2.443816   3.496184   3.935912
    18  C    4.712467   4.756507   3.760776   4.694071   5.050769
    19  C    5.007973   5.188701   4.319236   5.082147   5.583884
    20  C    4.465609   4.611036   3.892323   4.471029   5.194567
    21  C    3.439731   3.346063   2.657950   3.201863   4.128202
    22  C    3.935967   3.496216   2.443815   3.534143   3.744142
    23  C    3.355082   2.516404   1.557171   2.601572   2.969864
    24  C    4.128206   3.201867   2.657950   3.346086   3.439766
    25  C    5.194598   4.471049   3.892322   4.611040   4.465611
    26  C    5.583949   5.082185   4.319235   5.188682   5.007930
    27  C    5.050843   4.694113   3.760775   4.756476   4.712403
    28  H    4.455670   4.766292   6.301680   6.909231   8.116870
    29  H    3.973535   4.763861   6.304375   7.183766   8.483580
    30  H    3.862877   3.422960   4.727421   5.042476   6.068042
    31  H    3.398099   2.173926   2.786833   2.771224   3.650079
    32  H    2.147315   3.418822   4.741098   5.941070   7.235415
    33  H    1.087956   2.176820   2.822134   4.208977   5.392492
    34  H    5.392486   4.208966   2.822131   2.176817   1.087956
    35  H    7.235419   5.941082   4.741102   3.418824   2.147316
    36  H    8.116900   6.909292   6.301703   4.766307   4.455685
    37  H    8.483601   7.183808   6.304391   4.763868   3.973542
    38  H    6.068046   5.042502   4.727427   3.422961   3.862874
    39  H    3.650070   2.771224   2.786836   2.173923   3.398095
    40  H    5.522816   5.598039   4.601767   5.556238   5.752046
    41  H    5.970552   6.246340   5.405746   6.135971   6.571566
    42  H    5.155266   5.387035   4.798898   5.228473   5.980700
    43  H    3.483858   3.333294   2.939725   3.167098   4.254337
    44  H    4.254307   3.167080   2.939725   3.333341   3.483937
    45  H    5.980725   5.228490   4.798897   5.387047   5.155281
    46  H    6.571643   6.136016   5.405745   6.246316   5.970498
    47  H    5.752140   5.556287   4.601764   5.597992   5.522723
                   11         12         13         14         15
    11  C    0.000000
    12  C    1.393635   0.000000
    13  N    2.423627   1.399236   0.000000
    14  C    2.392170   1.393137   2.423059   0.000000
    15  C    2.772795   2.428720   3.705817   1.400006   0.000000
    16  C    4.567239   5.089204   6.403834   4.544614   3.322628
    17  C    5.218571   6.011466   7.299928   5.702457   4.558763
    18  C    6.216930   6.989423   8.191134   6.694156   5.628345
    19  C    6.600364   7.153652   8.273549   6.713736   5.716540
    20  C    6.102446   6.403955   7.500307   5.770366   4.797260
    21  C    5.088146   5.324088   6.518363   4.587992   3.489304
    22  C    5.110459   6.087437   7.404467   5.949217   4.828723
    23  C    4.359682   5.234889   6.597610   5.038498   3.900557
    24  C    4.683936   5.621252   6.923025   5.587665   4.597961
    25  C    5.647679   6.737392   7.974067   6.857527   5.925924
    26  C    6.239244   7.412738   8.647029   7.545609   6.568091
    27  C    6.011368   7.133541   8.396724   7.157062   6.110172
    28  H    8.908453   8.659213   9.760472   7.589573   6.638362
    29  H    9.423992   9.260230  10.445887   8.123806   7.006781
    30  H    6.776515   6.614058   7.722262   5.746253   4.887284
    31  H    4.422584   4.496268   5.737113   3.864344   2.946510
    32  H    8.366182   8.434506   9.739002   7.372575   6.055496
    33  H    6.628978   6.924905   8.279769   6.045676   4.654082
    34  H    2.135936   3.397329   4.557068   3.863343   3.401067
    35  H    1.086830   2.155928   2.663953   3.382685   3.858467
    36  H    3.275770   2.032757   1.014809   2.588636   3.974136
    37  H    2.586461   2.032076   1.014980   3.275598   4.452292
    38  H    3.382830   2.155508   2.663617   1.086631   2.147974
    39  H    3.860167   3.398186   4.560499   2.139973   1.088548
    40  H    6.918952   7.812493   8.991467   7.630971   6.592814
    41  H    7.525849   8.075665   9.127966   7.665757   6.730554
    42  H    6.742494   6.874671   7.859601   6.161417   5.313243
    43  H    5.030336   4.978704   6.112339   4.029082   2.998059
    44  H    4.559017   5.339422   6.601877   5.279527   4.387238
    45  H    6.205637   7.283606   8.452399   7.482137   6.641112
    46  H    7.136031   8.361954   9.549319   8.572167   7.633689
    47  H    6.775600   7.914576   9.139661   7.954094   6.921366
                   16         17         18         19         20
    16  C    0.000000
    17  C    1.412064   0.000000
    18  C    2.431054   1.386910   0.000000
    19  C    2.776271   2.395558   1.397848   0.000000
    20  C    2.396426   2.781305   2.434829   1.402837   0.000000
    21  C    1.392281   2.438088   2.830020   2.431929   1.395915
    22  C    2.331866   1.445153   2.567127   3.790335   4.208605
    23  C    2.382914   2.331867   3.688472   4.683407   4.710992
    24  C    3.757871   3.651428   4.951639   6.036429   6.102826
    25  C    4.710991   4.208605   5.312347   6.571452   6.903558
    26  C    4.683406   3.790334   4.607912   5.970258   6.571451
    27  C    3.688470   2.567126   3.229151   4.607911   5.312346
    28  H    7.219301   8.112130   9.164157   9.399354   8.647993
    29  H    6.899891   7.696770   8.562652   8.697143   8.007742
    30  H    5.998420   6.909851   8.159777   8.575860   7.866990
    31  H    4.276934   5.174154   6.517041   7.041768   6.417649
    32  H    4.954657   5.577793   6.287273   6.423735   5.897271
    33  H    2.618066   3.176486   3.912016   4.142886   3.738229
    34  H    3.455945   3.629236   4.711898   5.469020   5.357388
    35  H    5.347140   5.792612   6.709043   7.168459   6.816257
    36  H    6.963297   7.974615   8.891756   8.901826   8.014829
    37  H    6.971310   7.734942   8.640828   8.838135   8.182739
    38  H    5.313073   6.560417   7.488494   7.356496   6.278042
    39  H    3.394218   4.760694   5.770253   5.711408   4.643871
    40  H    3.422246   2.159136   1.084799   2.156270   3.415737
    41  H    3.863678   3.382671   2.154468   1.087479   2.157669
    42  H    3.384914   3.868727   3.414563   2.158479   1.087524
    43  H    2.164010   3.428213   3.914930   3.414692   2.156512
    44  H    4.315511   4.495241   5.849623   6.825523   6.711055
    45  H    5.745370   5.295031   6.392530   7.658685   7.976223
    46  H    5.705774   4.704586   5.341320   6.734107   7.464939
    47  H    4.212850   2.884908   3.058892   4.446714   5.399559
                   21         22         23         24         25
    21  C    0.000000
    22  C    3.651427   0.000000
    23  C    3.757871   1.412065   0.000000
    24  C    5.112711   2.438088   1.392281   0.000000
    25  C    6.102825   2.781305   2.396426   1.395914   0.000000
    26  C    6.036429   2.395558   2.776271   2.431927   1.402837
    27  C    4.951638   1.386910   2.431055   2.830019   2.434829
    28  H    7.524308   7.974728   6.963372   6.985308   8.015026
    29  H    7.076243   7.735050   6.971371   7.222337   8.182891
    30  H    6.562033   6.560497   5.313130   5.139174   6.278171
    31  H    5.051727   4.760714   3.394234   3.314868   4.643905
    32  H    5.141119   5.792698   5.347173   5.922440   6.816326
    33  H    2.976462   3.629274   3.455942   4.445331   5.357381
    34  H    4.445357   3.176431   2.618049   2.976462   3.738196
    35  H    5.922417   5.577723   4.954659   5.141174   5.897284
    36  H    6.985189   8.112082   7.219347   7.524447   8.648102
    37  H    7.222255   7.696712   6.899922   7.076357   8.007822
    38  H    5.139090   6.909808   5.998434   6.562099   7.867033
    39  H    3.314842   5.174144   4.276939   5.051746   6.417661
    40  H    3.914755   2.884912   4.212855   5.317591   5.399563
    41  H    3.411354   4.704586   5.705775   7.032719   7.464939
    42  H    2.153077   5.295032   5.745371   7.132765   7.976223
    43  H    1.084933   4.495240   4.315511   5.575648   6.711054
    44  H    5.575647   3.428212   2.164008   1.084933   2.156511
    45  H    7.132764   3.868726   3.384914   2.153076   1.087523
    46  H    7.032719   3.382671   3.863679   3.411354   2.157670
    47  H    5.317587   2.159134   3.422245   3.914753   3.415737
                   26         27         28         29         30
    26  C    0.000000
    27  C    1.397849   0.000000
    28  H    8.902054   8.891944   0.000000
    29  H    8.838331   8.641003   1.686628   0.000000
    30  H    7.356641   7.488617   2.428851   3.623499   0.000000
    31  H    5.711443   5.770283   4.660757   5.384092   2.438446
    32  H    7.168580   6.709171   3.622765   2.425720   4.289859
    33  H    5.469048   4.711946   5.382186   4.652931   4.948438
    34  H    4.142814   3.911937   8.627263   8.922763   6.584987
    35  H    6.423673   6.287177   9.884609  10.426802   7.686859
    36  H    9.399369   9.164103   9.617049  10.385300   7.658444
    37  H    8.697130   8.562578  10.385300  11.133276   8.232658
    38  H    8.575851   8.159729   7.658329   8.232577   5.993188
    39  H    7.041767   6.517031   5.909413   6.180497   4.460028
    40  H    4.446717   3.058895   9.942885   9.305138   8.944267
    41  H    6.734107   5.341320  10.329846   9.528377   9.614803
    42  H    7.658685   6.392530   9.097559   8.394111   8.477148
    43  H    6.825522   5.849623   7.102436   6.742436   6.194907
    44  H    3.414690   3.914929   6.441700   6.917405   4.396109
    45  H    2.158478   3.414563   8.299662   8.608236   6.510409
    46  H    1.087479   2.154468   9.766793   9.685701   8.267698
    47  H    2.156271   1.084798   9.746475   9.361071   8.470823
                   31         32         33         34         35
    31  H    0.000000
    32  H    4.945395   0.000000
    33  H    4.323423   2.429880   0.000000
    34  H    4.173145   7.524855   5.557163   0.000000
    35  H    5.311320   9.335194   7.524858   2.429882   0.000000
    36  H    5.909578   9.884625   8.627279   5.382202   3.622777
    37  H    6.180612  10.426815   8.922775   4.652941   2.425725
    38  H    4.460110   7.686837   6.584999   4.948436   4.289858
    39  H    2.991246   5.311283   4.173166   4.323418   4.945394
    40  H    7.304018   6.990586   4.697706   5.241494   7.290837
    41  H    8.126608   7.211376   5.040438   6.417110   8.031759
    42  H    7.155773   6.368350   4.447200   6.247981   7.470017
    43  H    4.831846   5.068298   3.264667   4.809652   5.964808
    44  H    2.592061   5.964784   4.809600   3.264701   5.068420
    45  H    5.049209   7.470081   6.247965   4.447174   6.368389
    46  H    6.709393   8.031907   6.417148   5.040355   7.211293
    47  H    6.793338   7.291000   5.241567   4.697605   6.990439
                   36         37         38         39         40
    36  H    0.000000
    37  H    1.686635   0.000000
    38  H    2.428833   3.623488   0.000000
    39  H    4.660754   5.384087   2.438447   0.000000
    40  H    9.746264   9.360865   8.470689   6.793309   0.000000
    41  H    9.766518   9.685462   8.267528   6.709353   2.479472
    42  H    8.299437   8.608070   6.510266   5.049173   4.305655
    43  H    6.441620   6.917369   4.396053   2.592041   4.999636
    44  H    7.102666   6.742637   6.195026   4.831878   6.310008
    45  H    9.097718   8.394236   8.477217   7.155790   6.438123
    46  H   10.329850   9.528347   9.614785   8.126606   4.988717
    47  H    9.942766   9.305000   8.944182   7.303996   2.533187
                   41         42         43         44         45
    41  H    0.000000
    42  H    2.476857   0.000000
    43  H    4.304793   2.481002   0.000000
    44  H    7.861885   7.685484   5.850274   0.000000
    45  H    8.546374   9.044241   7.685483   2.481001   0.000000
    46  H    7.397602   8.546374   7.861885   4.304792   2.476857
    47  H    4.988715   6.438120   6.310005   4.999633   4.305654
                   46         47
    46  H    0.000000
    47  H    2.479474   0.000000
 Stoichiometry    C25H20N2
 Framework group  C1[X(C25H20N2)]
 Deg. of freedom   135
 Full point group                 C1      NOp   1
 Largest Abelian subgroup         C1      NOp   1
 Largest concise Abelian subgroup C1      NOp   1
                         Standard orientation:                         
 ---------------------------------------------------------------------
 Center     Atomic      Atomic             Coordinates (Angstroms)
 Number     Number       Type             X           Y           Z
 ---------------------------------------------------------------------
      1          7           0        4.905600   -2.994077    0.078480
      2          6           0        3.691100   -2.302092    0.141807
      3          6           0        2.624648   -2.673911   -0.673836
      4          6           0        1.446471   -1.918207   -0.702564
      5          6           0        3.600049   -1.099559    0.840259
      6          6           0        2.423464   -0.339398    0.817052
      7          6           0        1.304214   -0.748573    0.070244
      8          6           0        0.000014    0.099355   -0.000024
      9          6           0       -1.303999   -0.748865   -0.070334
     10          6           0       -2.423346   -0.339893   -0.817106
     11          6           0       -3.599781   -1.100286   -0.840314
     12          6           0       -3.690588   -2.302844   -0.141868
     13          7           0       -4.904962   -2.995045   -0.078502
     14          6           0       -2.624039   -2.674482    0.673724
     15          6           0       -1.446003   -1.918558    0.702430
     16          6           0       -0.147396    1.101902    1.182329
     17          6           0       -0.090092    2.433869    0.717028
     18          6           0       -0.199846    3.495831    1.602302
     19          6           0       -0.369800    3.220876    2.962263
     20          6           0       -0.428561    1.897907    3.425135
     21          6           0       -0.317794    0.827065    2.536536
     22          6           0        0.089505    2.433938   -0.716922
     23          6           0        0.147182    1.102016   -1.182308
     24          6           0        0.317674    0.827316   -2.536530
     25          6           0        0.428146    1.898243   -3.425060
     26          6           0        0.368999    3.221166   -2.962107
     27          6           0        0.198963    3.495987   -1.602128
     28          1           0        4.805952   -3.973184   -0.169021
     29          1           0        5.494673   -2.859463    0.893995
     30          1           0        2.698873   -3.556700   -1.303074
     31          1           0        0.639395   -2.252035   -1.352279
     32          1           0        4.449843   -0.731810    1.409304
     33          1           0        2.413456    0.593477    1.376779
     34          1           0       -2.413530    0.592994   -1.376813
     35          1           0       -4.449659   -0.732693   -1.409332
     36          1           0       -4.805154   -3.974125    0.169039
     37          1           0       -5.494092   -2.860537   -0.893988
     38          1           0       -2.698074   -3.557309    1.302932
     39          1           0       -0.638840   -2.252256    1.352101
     40          1           0       -0.157618    4.523319    1.256942
     41          1           0       -0.460235    4.041377    3.670225
     42          1           0       -0.564677    1.705322    4.486781
     43          1           0       -0.363496   -0.193286    2.902424
     44          1           0        0.363667   -0.192999   -2.902482
     45          1           0        0.564322    1.705765   -4.486717
     46          1           0        0.459196    4.041738   -3.670017
     47          1           0        0.156425    4.523440   -1.256703
 ---------------------------------------------------------------------
 Rotational constants (GHZ):           0.1958041           0.1797334           0.1418434
 Standard basis: 6-31G(d,p) (6D, 7F)
 There are   505 symmetry adapted cartesian basis functions of A   symmetry.
 There are   505 symmetry adapted basis functions of A   symmetry.
   505 basis functions,   896 primitive gaussians,   505 cartesian basis functions
    92 alpha electrons       92 beta electrons
       nuclear repulsion energy      2295.8845950333 Hartrees.
 NAtoms=   47 NActive=   47 NUniq=   47 SFac= 1.00D+00 NAtFMM=   60 NAOKFM=F Big=F
 Integral buffers will be    131072 words long.
 Raffenetti 2 integral format.
 Two-electron integral symmetry is turned on.
 Force inversion solution in PCM.
 ------------------------------------------------------------------------------
 Polarizable Continuum Model (PCM)
 =================================
 Model                : PCM.
 Atomic radii         : UFF (Universal Force Field).
 Polarization charges : Total charges.
 Charge compensation  : None.
 Solution method      : Matrix inversion.
 Cavity type          : Scaled VdW (van der Waals Surface) (Alpha=1.100).
 Cavity algorithm     : GePol (No added spheres)
                        Default sphere list used, NSphG=   47.
                        Lebedev-Laikov grids with approx.  5.0 points / Ang**2.
                        Smoothing algorithm: York/Karplus (Gamma=1.0000).
                        Polarization charges: spherical gaussians, with
                                              point-specific exponents (IZeta= 3).
                        Self-potential: point-specific (ISelfS= 7).
                        Self-field    : sphere-specific E.n sum rule (ISelfD= 2).
 1st derivatives      : Analytical E(r).r(x)/FMM algorithm (CHGder, D1EAlg=3).
                        Cavity 1st derivative terms included.
 2nd derivatives      : Analytical E(r).r(xy)/FMM algorithm (CHGder, D2EAlg=3).
                        Cavity 2nd derivative terms included.
 Solvent              : Water, Eps=  78.355300 Eps(inf)=   1.777849
 ------------------------------------------------------------------------------
 One-electron integrals computed using PRISM.
 NBasis=   505 RedAO= T EigKep=  3.33D-04  NBF=   505
 NBsUse=   505 1.00D-06 EigRej= -1.00D+00 NBFU=   505
 ExpMin= 1.61D-01 ExpMax= 4.17D+03 ExpMxC= 6.27D+02 IAcc=3 IRadAn=         5 AccDes= 0.00D+00
 Harris functional with IExCor=  402 and IRadAn=       5 diagonalized for initial guess.
 HarFok:  IExCor=  402 AccDes= 0.00D+00 IRadAn=         5 IDoV= 1 UseB2=F ITyADJ=14
 ICtDFT=  3500011 ScaDFX=  1.000000  1.000000  1.000000  1.000000
 FoFCou: FMM=F IPFlag=           0 FMFlag=      100000 FMFlg1=           0
         NFxFlg=           0 DoJE=T BraDBF=F KetDBF=T FulRan=T
         wScrn=  0.000000 ICntrl=       500 IOpCl=  0 I1Cent=   200000004 NGrid=           0
         NMat0=    1 NMatS0=      1 NMatT0=    0 NMatD0=    1 NMtDS0=    0 NMtDT0=    0
 Petite list used in FoFCou.
 Requested convergence on RMS density matrix=1.00D-08 within  32 cycles.
 Requested convergence on MAX density matrix=1.00D-06.
 Requested convergence on             energy=1.00D-06.
 No special actions if energy rises.
 Inv3:  Mode=1 IEnd=    33206787.
 Iteration    1 A*A^-1 deviation from unit magnitude is 4.22D-15 for   1088.
 Iteration    1 A*A^-1 deviation from orthogonality  is 1.84D-15 for   3075   3018.
 Iteration    1 A^-1*A deviation from unit magnitude is 4.66D-15 for   1088.
 Iteration    1 A^-1*A deviation from orthogonality  is 5.43D-15 for   3304   3293.
 Error on total polarization charges =  0.01178
 SCF Done:  E(RB3LYP) =  -1074.26855463     A.U. after   12 cycles
            NFock= 12  Conv=0.73D-08     -V/T= 2.0098
 QCSCF skips out because SCF is already converged.
 DoSCS=F DFT=T ScalE2(SS,OS)=  1.000000  1.000000
 Range of M.O.s used for correlation:     1   505
 NBasis=   505 NAE=    92 NBE=    92 NFC=     0 NFV=     0
 NROrb=    505 NOA=    92 NOB=    92 NVA=   413 NVB=   413

 **** Warning!!: The largest alpha MO coefficient is  0.10380504D+02

 Symmetrizing basis deriv contribution to polar:
 IMax=3 JMax=2 DiffMx= 0.00D+00
 G2DrvN: will do    48 centers at a time, making    1 passes.
 Calling FoFCou, ICntrl=  3107 FMM=F I1Cent=   0 AccDes= 0.00D+00.
 NEqPCM:  Using equilibrium solvation (IEInf=0, Eps=  78.3553, EpsInf=   1.7778)
 G2PCM: DoFxE=T DoFxN=T DoGrad=T DoDP/DQ/DG/TGxP=FFFF NFrqRd=   0 IEInf=0 SqF1=F DoCFld=F IF1Alg=4.
 End of G2Drv F.D. properties file   721 does not exist.
 End of G2Drv F.D. properties file   722 does not exist.
 End of G2Drv F.D. properties file   788 does not exist.
          IDoAtm=11111111111111111111111111111111111111111111111
 NEqPCM:  Using equilibrium solvation (IEInf=0, Eps=  78.3553, EpsInf=   1.7778)
          Differentiating once with respect to nuclear coordinates.
 CalDSu exits because no D1Ps are significant.
          There are   144 degrees of freedom in the 1st order CPHF.  IDoFFX=6 NUNeed=     0.
    138 vectors produced by pass  0 Test12= 3.80D-14 1.00D-09 XBig12= 1.55D-01 1.41D-01.
 AX will form   138 AO Fock derivatives at one time.
    138 vectors produced by pass  1 Test12= 3.80D-14 1.00D-09 XBig12= 1.79D-02 2.70D-02.
    138 vectors produced by pass  2 Test12= 3.80D-14 1.00D-09 XBig12= 1.52D-04 2.07D-03.
    138 vectors produced by pass  3 Test12= 3.80D-14 1.00D-09 XBig12= 4.27D-07 6.97D-05.
    138 vectors produced by pass  4 Test12= 3.80D-14 1.00D-09 XBig12= 5.73D-10 2.93D-06.
    103 vectors produced by pass  5 Test12= 3.80D-14 1.00D-09 XBig12= 6.08D-13 8.56D-08.
     25 vectors produced by pass  6 Test12= 3.80D-14 1.00D-09 XBig12= 7.11D-16 2.66D-09.
 InvSVY:  IOpt=1 It=  1 EMax= 4.44D-16
 Solved reduced A of dimension   818 with   144 vectors.
 End of Minotr F.D. properties file   721 does not exist.
 End of Minotr F.D. properties file   722 does not exist.
 End of Minotr F.D. properties file   788 does not exist.

 **********************************************************************

            Population analysis using the SCF density.

 **********************************************************************

 Orbital symmetries:
       Occupied  (A) (A) (A) (A) (A) (A) (A) (A) (A) (A) (A) (A)
                 (A) (A) (A) (A) (A) (A) (A) (A) (A) (A) (A) (A)
                 (A) (A) (A) (A) (A) (A) (A) (A) (A) (A) (A) (A)
                 (A) (A) (A) (A) (A) (A) (A) (A) (A) (A) (A) (A)
                 (A) (A) (A) (A) (A) (A) (A) (A) (A) (A) (A) (A)
                 (A) (A) (A) (A) (A) (A) (A) (A) (A) (A) (A) (A)
                 (A) (A) (A) (A) (A) (A) (A) (A) (A) (A) (A) (A)
                 (A) (A) (A) (A) (A) (A) (A) (A)
       Virtual   (A) (A) (A) (A) (A) (A) (A) (A) (A) (A) (A) (A)
                 (A) (A) (A) (A) (A) (A) (A) (A) (A) (A) (A) (A)
                 (A) (A) (A) (A) (A) (A) (A) (A) (A) (A) (A) (A)
                 (A) (A) (A) (A) (A) (A) (A) (A) (A) (A) (A) (A)
                 (A) (A) (A) (A) (A) (A) (A) (A) (A) (A) (A) (A)
                 (A) (A) (A) (A) (A) (A) (A) (A) (A) (A) (A) (A)
                 (A) (A) (A) (A) (A) (A) (A) (A) (A) (A) (A) (A)
                 (A) (A) (A) (A) (A) (A) (A) (A) (A) (A) (A) (A)
                 (A) (A) (A) (A) (A) (A) (A) (A) (A) (A) (A) (A)
                 (A) (A) (A) (A) (A) (A) (A) (A) (A) (A) (A) (A)
                 (A) (A) (A) (A) (A) (A) (A) (A) (A) (A) (A) (A)
                 (A) (A) (A) (A) (A) (A) (A) (A) (A) (A) (A) (A)
                 (A) (A) (A) (A) (A) (A) (A) (A) (A) (A) (A) (A)
                 (A) (A) (A) (A) (A) (A) (A) (A) (A) (A) (A) (A)
                 (A) (A) (A) (A) (A) (A) (A) (A) (A) (A) (A) (A)
                 (A) (A) (A) (A) (A) (A) (A) (A) (A) (A) (A) (A)
                 (A) (A) (A) (A) (A) (A) (A) (A) (A) (A) (A) (A)
                 (A) (A) (A) (A) (A) (A) (A) (A) (A) (A) (A) (A)
                 (A) (A) (A) (A) (A) (A) (A) (A) (A) (A) (A) (A)
                 (A) (A) (A) (A) (A) (A) (A) (A) (A) (A) (A) (A)
                 (A) (A) (A) (A) (A) (A) (A) (A) (A) (A) (A) (A)
                 (A) (A) (A) (A) (A) (A) (A) (A) (A) (A) (A) (A)
                 (A) (A) (A) (A) (A) (A) (A) (A) (A) (A) (A) (A)
                 (A) (A) (A) (A) (A) (A) (A) (A) (A) (A) (A) (A)
                 (A) (A) (A) (A) (A) (A) (A) (A) (A) (A) (A) (A)
                 (A) (A) (A) (A) (A) (A) (A) (A) (A) (A) (A) (A)
                 (A) (A) (A) (A) (A) (A) (A) (A) (A) (A) (A) (A)
                 (A) (A) (A) (A) (A) (A) (A) (A) (A) (A) (A) (A)
                 (A) (A) (A) (A) (A) (A) (A) (A) (A) (A) (A) (A)
                 (A) (A) (A) (A) (A) (A) (A) (A) (A) (A) (A) (A)
                 (A) (A) (A) (A) (A) (A) (A) (A) (A) (A) (A) (A)
                 (A) (A) (A) (A) (A) (A) (A) (A) (A) (A) (A) (A)
                 (A) (A) (A) (A) (A) (A) (A) (A) (A) (A) (A) (A)
                 (A) (A) (A) (A) (A) (A) (A) (A) (A) (A) (A) (A)
                 (A) (A) (A) (A) (A)
 The electronic state is 1-A.
 Alpha  occ. eigenvalues --  -14.33546 -14.33546 -10.22377 -10.22377 -10.22045
 Alpha  occ. eigenvalues --  -10.19544 -10.19544 -10.19345 -10.19345 -10.19283
 Alpha  occ. eigenvalues --  -10.19246 -10.19122 -10.19122 -10.19082 -10.19082
 Alpha  occ. eigenvalues --  -10.19039 -10.19039 -10.19027 -10.19027 -10.18773
 Alpha  occ. eigenvalues --  -10.18772 -10.18742 -10.18742 -10.18147 -10.18147
 Alpha  occ. eigenvalues --  -10.18100 -10.18100  -0.91362  -0.91326  -0.89150
 Alpha  occ. eigenvalues --   -0.84417  -0.84301  -0.83050  -0.79683  -0.77337
 Alpha  occ. eigenvalues --   -0.74421  -0.74161  -0.73784  -0.73314  -0.72013
 Alpha  occ. eigenvalues --   -0.71309  -0.66885  -0.63221  -0.61389  -0.60975
 Alpha  occ. eigenvalues --   -0.59783  -0.59062  -0.58101  -0.57292  -0.55964
 Alpha  occ. eigenvalues --   -0.51902  -0.51682  -0.50727  -0.50238  -0.50236
 Alpha  occ. eigenvalues --   -0.48696  -0.47438  -0.46725  -0.45514  -0.44044
 Alpha  occ. eigenvalues --   -0.43945  -0.43413  -0.43055  -0.42951  -0.41974
 Alpha  occ. eigenvalues --   -0.41971  -0.41307  -0.41171  -0.40814  -0.39934
 Alpha  occ. eigenvalues --   -0.38723  -0.38009  -0.37764  -0.37516  -0.35666
 Alpha  occ. eigenvalues --   -0.35165  -0.34724  -0.34688  -0.34039  -0.33657
 Alpha  occ. eigenvalues --   -0.32867  -0.32728  -0.30500  -0.29519  -0.28589
 Alpha  occ. eigenvalues --   -0.25304  -0.24902  -0.24838  -0.24386  -0.21973
 Alpha  occ. eigenvalues --   -0.20073  -0.19834
 Alpha virt. eigenvalues --   -0.03515  -0.01801  -0.00941   0.00000   0.00722
 Alpha virt. eigenvalues --    0.01814   0.02050   0.04161   0.09202   0.09458
 Alpha virt. eigenvalues --    0.10035   0.10172   0.11195   0.11419   0.12686
 Alpha virt. eigenvalues --    0.13188   0.13677   0.13864   0.15229   0.15312
 Alpha virt. eigenvalues --    0.15800   0.16217   0.16986   0.17351   0.17648
 Alpha virt. eigenvalues --    0.17756   0.19483   0.19538   0.20165   0.21065
 Alpha virt. eigenvalues --    0.21237   0.22215   0.22614   0.23245   0.24547
 Alpha virt. eigenvalues --    0.25257   0.25942   0.26475   0.26734   0.29590
 Alpha virt. eigenvalues --    0.30009   0.30656   0.32088   0.32281   0.33151
 Alpha virt. eigenvalues --    0.34015   0.34178   0.34823   0.35528   0.36673
 Alpha virt. eigenvalues --    0.37255   0.37762   0.38702   0.40161   0.41059
 Alpha virt. eigenvalues --    0.46542   0.47651   0.48166   0.49720   0.50035
 Alpha virt. eigenvalues --    0.51713   0.51923   0.52141   0.52502   0.53161
 Alpha virt. eigenvalues --    0.53922   0.54380   0.54682   0.54922   0.55922
 Alpha virt. eigenvalues --    0.56170   0.56227   0.56506   0.56867   0.57594
 Alpha virt. eigenvalues --    0.57617   0.58153   0.58659   0.58897   0.59531
 Alpha virt. eigenvalues --    0.59953   0.59956   0.60235   0.60280   0.60540
 Alpha virt. eigenvalues --    0.60602   0.61032   0.61364   0.61506   0.61851
 Alpha virt. eigenvalues --    0.62133   0.62826   0.62912   0.63791   0.64376
 Alpha virt. eigenvalues --    0.64497   0.65017   0.65658   0.67966   0.68040
 Alpha virt. eigenvalues --    0.69553   0.69991   0.70425   0.72664   0.73896
 Alpha virt. eigenvalues --    0.75140   0.76142   0.76536   0.77403   0.77437
 Alpha virt. eigenvalues --    0.78636   0.78930   0.78977   0.79571   0.80970
 Alpha virt. eigenvalues --    0.82127   0.82517   0.82550   0.82872   0.83112
 Alpha virt. eigenvalues --    0.83572   0.84507   0.84604   0.85209   0.85662
 Alpha virt. eigenvalues --    0.85865   0.86603   0.87075   0.87111   0.87972
 Alpha virt. eigenvalues --    0.88856   0.89191   0.89273   0.89361   0.90866
 Alpha virt. eigenvalues --    0.91581   0.91872   0.92238   0.93178   0.94198
 Alpha virt. eigenvalues --    0.95576   0.97990   0.98044   0.99329   0.99536
 Alpha virt. eigenvalues --    0.99659   1.00570   1.00864   1.01212   1.01548
 Alpha virt. eigenvalues --    1.02554   1.02604   1.05394   1.05588   1.09287
 Alpha virt. eigenvalues --    1.09821   1.10691   1.11121   1.12334   1.13125
 Alpha virt. eigenvalues --    1.13978   1.14812   1.15163   1.15411   1.16868
 Alpha virt. eigenvalues --    1.17812   1.18578   1.19261   1.19479   1.24354
 Alpha virt. eigenvalues --    1.24490   1.25603   1.27145   1.27275   1.27791
 Alpha virt. eigenvalues --    1.29912   1.30737   1.31151   1.33128   1.35129
 Alpha virt. eigenvalues --    1.35984   1.36567   1.38292   1.38607   1.39145
 Alpha virt. eigenvalues --    1.39762   1.40479   1.40648   1.40922   1.41259
 Alpha virt. eigenvalues --    1.41876   1.42152   1.42216   1.43080   1.43464
 Alpha virt. eigenvalues --    1.44999   1.45226   1.48954   1.49744   1.52133
 Alpha virt. eigenvalues --    1.52798   1.54203   1.55986   1.58029   1.59639
 Alpha virt. eigenvalues --    1.62996   1.66950   1.70476   1.71728   1.73880
 Alpha virt. eigenvalues --    1.75072   1.75681   1.76955   1.77533   1.77578
 Alpha virt. eigenvalues --    1.78450   1.78500   1.79173   1.80186   1.80221
 Alpha virt. eigenvalues --    1.80945   1.81067   1.82716   1.82862   1.84055
 Alpha virt. eigenvalues --    1.86774   1.86869   1.87070   1.87860   1.88161
 Alpha virt. eigenvalues --    1.89944   1.91046   1.91272   1.91595   1.93215
 Alpha virt. eigenvalues --    1.93598   1.93913   1.94062   1.94317   1.96879
 Alpha virt. eigenvalues --    1.97086   1.97326   1.97855   1.98283   1.98387
 Alpha virt. eigenvalues --    1.99437   1.99579   1.99664   2.00456   2.00552
 Alpha virt. eigenvalues --    2.01701   2.02650   2.05617   2.07756   2.08786
 Alpha virt. eigenvalues --    2.09981   2.10288   2.11208   2.12689   2.13452
 Alpha virt. eigenvalues --    2.14411   2.15168   2.16812   2.17096   2.19209
 Alpha virt. eigenvalues --    2.21178   2.22304   2.23814   2.24642   2.25046
 Alpha virt. eigenvalues --    2.25936   2.26419   2.26602   2.28649   2.29704
 Alpha virt. eigenvalues --    2.30951   2.31235   2.32850   2.32992   2.33941
 Alpha virt. eigenvalues --    2.34649   2.34963   2.35705   2.36383   2.36702
 Alpha virt. eigenvalues --    2.37020   2.37169   2.37433   2.39181   2.39463
 Alpha virt. eigenvalues --    2.40558   2.41671   2.41717   2.43968   2.44364
 Alpha virt. eigenvalues --    2.44388   2.45263   2.45844   2.46416   2.46678
 Alpha virt. eigenvalues --    2.47275   2.47328   2.48261   2.48729   2.49350
 Alpha virt. eigenvalues --    2.49518   2.49906   2.52270   2.52694   2.53144
 Alpha virt. eigenvalues --    2.53976   2.56283   2.56325   2.57160   2.57640
 Alpha virt. eigenvalues --    2.57919   2.59091   2.59844   2.59859   2.60752
 Alpha virt. eigenvalues --    2.61752   2.62600   2.62955   2.65357   2.65658
 Alpha virt. eigenvalues --    2.66117   2.67341   2.69274   2.69949   2.70776
 Alpha virt. eigenvalues --    2.72752   2.73945   2.75749   2.76799   2.77392
 Alpha virt. eigenvalues --    2.77830   2.77885   2.80573   2.81856   2.83562
 Alpha virt. eigenvalues --    2.84535   2.84537   2.87464   2.87684   2.90011
 Alpha virt. eigenvalues --    2.90149   2.91910   2.95051   2.98207   2.98745
 Alpha virt. eigenvalues --    2.99318   3.01770   3.03772   3.06029   3.08011
 Alpha virt. eigenvalues --    3.08405   3.09073   3.17757   3.18259   3.20058
 Alpha virt. eigenvalues --    3.21088   3.24378   3.24629   3.26000   3.26147
 Alpha virt. eigenvalues --    3.26714   3.28652   3.28830   3.29368   3.30032
 Alpha virt. eigenvalues --    3.31942   3.32526   3.37327   3.38258   3.38676
 Alpha virt. eigenvalues --    3.40390   3.47038   3.48625   3.48700   3.51224
 Alpha virt. eigenvalues --    3.53705   3.53875   3.79835   3.82310   3.82651
 Alpha virt. eigenvalues --    3.89887   4.04120   4.04418   4.12583   4.13676
 Alpha virt. eigenvalues --    4.14100   4.14173   4.14265   4.16400   4.17220
 Alpha virt. eigenvalues --    4.19594   4.20857   4.22464   4.25374   4.25618
 Alpha virt. eigenvalues --    4.39066   4.43270   4.44087   4.45334   4.47169
 Alpha virt. eigenvalues --    4.48439   4.53556   4.54810   4.68609   4.83359
 Alpha virt. eigenvalues --    4.83747   4.89977   4.92101
          Condensed to atoms (all electrons):
               1          2          3          4          5          6
     1  N    6.832870   0.297455  -0.070610   0.004423  -0.070614   0.004450
     2  C    0.297455   4.577376   0.536008  -0.023464   0.536952  -0.023314
     3  C   -0.070610   0.536008   4.959241   0.508780  -0.049294  -0.043498
     4  C    0.004423  -0.023464   0.508780   4.946320  -0.045758  -0.054532
     5  C   -0.070614   0.536952  -0.049294  -0.045758   4.961413   0.507230
     6  C    0.004450  -0.023314  -0.043498  -0.054532   0.507230   4.938718
     7  C    0.000607  -0.030209  -0.033414   0.518541  -0.033258   0.528298
     8  C    0.000002   0.000353   0.005183  -0.051108   0.005879  -0.042565
     9  C   -0.000000  -0.000018   0.000459  -0.010314  -0.000076   0.004175
    10  C   -0.000000   0.000000   0.000003   0.000724   0.000000  -0.000166
    11  C    0.000000  -0.000000  -0.000000  -0.000008   0.000000   0.000000
    12  C   -0.000000   0.000000  -0.000000  -0.000009  -0.000000   0.000000
    13  N   -0.000000  -0.000000   0.000000   0.000000   0.000000  -0.000000
    14  C    0.000000  -0.000000  -0.000022  -0.000094  -0.000000   0.000003
    15  C    0.000000  -0.000009  -0.000094  -0.003279  -0.000008   0.000724
    16  C   -0.000000  -0.000037  -0.000120   0.005555   0.000420  -0.012990
    17  C    0.000000  -0.000001   0.000002  -0.000194   0.000060   0.001198
    18  C    0.000000   0.000000  -0.000000   0.000003  -0.000000  -0.000040
    19  C   -0.000000   0.000000  -0.000000   0.000000  -0.000001  -0.000034
    20  C    0.000000   0.000000  -0.000000   0.000002  -0.000007  -0.000177
    21  C    0.000000  -0.000003  -0.000005   0.000115   0.000017  -0.000564
    22  C   -0.000000   0.000000   0.000006  -0.000227  -0.000034   0.000787
    23  C    0.000000   0.000050   0.000134  -0.009385  -0.000021   0.000056
    24  C   -0.000000   0.000007  -0.000197   0.001516  -0.000030  -0.000336
    25  C    0.000000   0.000000  -0.000005   0.000002  -0.000001  -0.000010
    26  C    0.000000  -0.000000   0.000000   0.000006   0.000000  -0.000002
    27  C   -0.000000   0.000000  -0.000000  -0.000004  -0.000001  -0.000060
    28  H    0.343566  -0.024902  -0.009370  -0.000024   0.005502  -0.000172
    29  H    0.343606  -0.025107   0.005526  -0.000177  -0.009296  -0.000031
    30  H   -0.007299  -0.043622   0.363815  -0.032534   0.005362   0.000638
    31  H   -0.000117   0.004065  -0.036919   0.366055   0.000589   0.005328
    32  H   -0.007337  -0.044221   0.005309   0.000664   0.364067  -0.032541
    33  H   -0.000117   0.004158   0.000479   0.005830  -0.039847   0.364049
    34  H   -0.000000  -0.000000   0.000000  -0.000011   0.000000   0.000002
    35  H    0.000000   0.000000  -0.000000  -0.000000   0.000000  -0.000000
    36  H    0.000000  -0.000000   0.000000   0.000000   0.000000  -0.000000
    37  H   -0.000000  -0.000000   0.000000   0.000000   0.000000  -0.000000
    38  H    0.000000  -0.000000  -0.000001   0.000000  -0.000000   0.000000
    39  H    0.000000   0.000008  -0.000088   0.003164  -0.000050   0.000184
    40  H    0.000000   0.000000   0.000000  -0.000000  -0.000000  -0.000000
    41  H    0.000000   0.000000  -0.000000   0.000000   0.000000  -0.000000
    42  H    0.000000  -0.000000   0.000000  -0.000000  -0.000000  -0.000001
    43  H    0.000000  -0.000001  -0.000002  -0.000131  -0.000002   0.000890
    44  H    0.000000  -0.000008   0.000216   0.003713  -0.000014   0.000038
    45  H    0.000000  -0.000000  -0.000000   0.000001   0.000000   0.000000
    46  H   -0.000000  -0.000000   0.000000   0.000000  -0.000000  -0.000000
    47  H    0.000000  -0.000000  -0.000000   0.000000   0.000000   0.000001
               7          8          9         10         11         12
     1  N    0.000607   0.000002  -0.000000  -0.000000   0.000000  -0.000000
     2  C   -0.030209   0.000353  -0.000018   0.000000  -0.000000   0.000000
     3  C   -0.033414   0.005183   0.000459   0.000003  -0.000000  -0.000000
     4  C    0.518541  -0.051108  -0.010314   0.000724  -0.000008  -0.000009
     5  C   -0.033258   0.005879  -0.000076   0.000000   0.000000  -0.000000
     6  C    0.528298  -0.042565   0.004175  -0.000166   0.000000   0.000000
     7  C    4.852562   0.297281  -0.031975   0.004175  -0.000076  -0.000018
     8  C    0.297281   5.502690   0.297286  -0.042565   0.005879   0.000353
     9  C   -0.031975   0.297286   4.852561   0.528296  -0.033258  -0.030210
    10  C    0.004175  -0.042565   0.528296   4.938717   0.507232  -0.023314
    11  C   -0.000076   0.005879  -0.033258   0.507232   4.961416   0.536949
    12  C   -0.000018   0.000353  -0.030210  -0.023314   0.536949   4.577367
    13  N   -0.000000   0.000002   0.000607   0.004450  -0.070615   0.297456
    14  C    0.000458   0.005183  -0.033415  -0.043497  -0.049295   0.536011
    15  C   -0.010314  -0.051109   0.518543  -0.054531  -0.045758  -0.023463
    16  C   -0.037052   0.280629  -0.062891   0.000056  -0.000021   0.000050
    17  C   -0.001470  -0.058609   0.001691   0.000787  -0.000034   0.000000
    18  C   -0.000163   0.013122  -0.000108  -0.000060  -0.000001   0.000000
    19  C    0.000043  -0.000488   0.000026  -0.000002   0.000000  -0.000000
    20  C    0.000052   0.005910   0.000081  -0.000010  -0.000001   0.000000
    21  C   -0.003109  -0.075821  -0.004745  -0.000336  -0.000030   0.000007
    22  C    0.001692  -0.058609  -0.001471   0.001198   0.000060  -0.000001
    23  C   -0.062889   0.280628  -0.037052  -0.012990   0.000420  -0.000037
    24  C   -0.004745  -0.075821  -0.003109  -0.000564   0.000017  -0.000003
    25  C    0.000081   0.005910   0.000052  -0.000177  -0.000007   0.000000
    26  C    0.000026  -0.000488   0.000043  -0.000034  -0.000001   0.000000
    27  C   -0.000108   0.013122  -0.000163  -0.000040  -0.000000   0.000000
    28  H   -0.000003  -0.000000  -0.000000  -0.000000   0.000000  -0.000000
    29  H    0.000003  -0.000000  -0.000000  -0.000000   0.000000  -0.000000
    30  H    0.003675  -0.000146   0.000006   0.000000  -0.000000  -0.000000
    31  H   -0.043492  -0.009035   0.006381   0.000184  -0.000050   0.000008
    32  H    0.003820  -0.000151   0.000001  -0.000000   0.000000   0.000000
    33  H   -0.037872  -0.013126   0.000181   0.000002   0.000000  -0.000000
    34  H    0.000181  -0.013127  -0.037872   0.364049  -0.039847   0.004158
    35  H    0.000001  -0.000151   0.003820  -0.032541   0.364067  -0.044221
    36  H   -0.000000  -0.000000  -0.000003  -0.000172   0.005502  -0.024902
    37  H   -0.000000  -0.000000   0.000003  -0.000031  -0.009296  -0.025107
    38  H    0.000006  -0.000146   0.003675   0.000638   0.005362  -0.043622
    39  H    0.006380  -0.009035  -0.043492   0.005328   0.000589   0.004065
    40  H    0.000001  -0.000184   0.000002   0.000001   0.000000  -0.000000
    41  H    0.000000   0.000009   0.000000  -0.000000  -0.000000  -0.000000
    42  H    0.000001  -0.000146   0.000001   0.000000   0.000000  -0.000000
    43  H    0.001300  -0.006520   0.000978   0.000038  -0.000014  -0.000008
    44  H    0.000978  -0.006520   0.001299   0.000889  -0.000002  -0.000001
    45  H    0.000001  -0.000146   0.000001  -0.000001  -0.000000  -0.000000
    46  H    0.000000   0.000009   0.000000  -0.000000   0.000000   0.000000
    47  H    0.000002  -0.000184   0.000001  -0.000000  -0.000000   0.000000
              13         14         15         16         17         18
     1  N   -0.000000   0.000000   0.000000  -0.000000   0.000000   0.000000
     2  C   -0.000000  -0.000000  -0.000009  -0.000037  -0.000001   0.000000
     3  C    0.000000  -0.000022  -0.000094  -0.000120   0.000002  -0.000000
     4  C    0.000000  -0.000094  -0.003279   0.005555  -0.000194   0.000003
     5  C    0.000000  -0.000000  -0.000008   0.000420   0.000060  -0.000000
     6  C   -0.000000   0.000003   0.000724  -0.012990   0.001198  -0.000040
     7  C   -0.000000   0.000458  -0.010314  -0.037052  -0.001470  -0.000163
     8  C    0.000002   0.005183  -0.051109   0.280629  -0.058609   0.013122
     9  C    0.000607  -0.033415   0.518543  -0.062891   0.001691  -0.000108
    10  C    0.004450  -0.043497  -0.054531   0.000056   0.000787  -0.000060
    11  C   -0.070615  -0.049295  -0.045758  -0.000021  -0.000034  -0.000001
    12  C    0.297456   0.536011  -0.023463   0.000050   0.000000   0.000000
    13  N    6.832868  -0.070610   0.004423   0.000000  -0.000000  -0.000000
    14  C   -0.070610   4.959240   0.508781   0.000134   0.000006  -0.000000
    15  C    0.004423   0.508781   4.946318  -0.009386  -0.000227  -0.000004
    16  C    0.000000   0.000134  -0.009386   5.039342   0.469806  -0.078796
    17  C   -0.000000   0.000006  -0.000227   0.469806   4.950676   0.480055
    18  C   -0.000000  -0.000000  -0.000004  -0.078796   0.480055   5.102294
    19  C    0.000000   0.000000   0.000006  -0.041444  -0.002729   0.485840
    20  C    0.000000  -0.000005   0.000002  -0.017620  -0.039715  -0.032439
    21  C   -0.000000  -0.000197   0.001516   0.487069  -0.034385  -0.058897
    22  C    0.000000   0.000002  -0.000194   0.000605   0.272386  -0.096617
    23  C   -0.000000  -0.000120   0.005555  -0.078794   0.000605   0.011358
    24  C    0.000000  -0.000005   0.000115   0.007629   0.012859  -0.000312
    25  C    0.000000  -0.000000   0.000002  -0.000295   0.000285   0.000027
    26  C   -0.000000  -0.000000   0.000000  -0.000346   0.008835   0.000127
[...]
   300    C   20  dz2    Ryd( 3d)     0.00064

   301    C   21  S      Cor( 1S)     1.99899
   302    C   21  S      Val( 2S)     0.93983
   303    C   21  S      Ryd( 3S)     0.00071
   304    C   21  S      Ryd( 4S)     0.00004
   305    C   21  px     Val( 2p)     1.03195
   306    C   21  px     Ryd( 3p)     0.00146
   307    C   21  py     Val( 2p)     1.18734
   308    C   21  py     Ryd( 3p)     0.00433
   309    C   21  pz     Val( 2p)     1.08281
   310    C   21  pz     Ryd( 3p)     0.00410
   311    C   21  dxy    Ryd( 3d)     0.00033
   312    C   21  dxz    Ryd( 3d)     0.00077
   313    C   21  dyz    Ryd( 3d)     0.00061
   314    C   21  dx2y2  Ryd( 3d)     0.00052
   315    C   21  dz2    Ryd( 3d)     0.00060

   316    C   22  S      Cor( 1S)     1.99896
   317    C   22  S      Val( 2S)     0.84800
   318    C   22  S      Ryd( 3S)     0.00064
   319    C   22  S      Ryd( 4S)     0.00007
   320    C   22  px     Val( 2p)     1.08204
   321    C   22  px     Ryd( 3p)     0.00179
   322    C   22  py     Val( 2p)     1.09028
   323    C   22  py     Ryd( 3p)     0.00576
   324    C   22  pz     Val( 2p)     1.07363
   325    C   22  pz     Ryd( 3p)     0.00479
   326    C   22  dxy    Ryd( 3d)     0.00052
   327    C   22  dxz    Ryd( 3d)     0.00085
   328    C   22  dyz    Ryd( 3d)     0.00067
   329    C   22  dx2y2  Ryd( 3d)     0.00042
   330    C   22  dz2    Ryd( 3d)     0.00062

   331    C   23  S      Cor( 1S)     1.99899
   332    C   23  S      Val( 2S)     0.85133
   333    C   23  S      Ryd( 3S)     0.00144
   334    C   23  S      Ryd( 4S)     0.00005
   335    C   23  px     Val( 2p)     1.07228
   336    C   23  px     Ryd( 3p)     0.00287
   337    C   23  py     Val( 2p)     1.03571
   338    C   23  py     Ryd( 3p)     0.00541
   339    C   23  pz     Val( 2p)     1.06526
   340    C   23  pz     Ryd( 3p)     0.00413
   341    C   23  dxy    Ryd( 3d)     0.00063
   342    C   23  dxz    Ryd( 3d)     0.00059
   343    C   23  dyz    Ryd( 3d)     0.00074
   344    C   23  dx2y2  Ryd( 3d)     0.00043
   345    C   23  dz2    Ryd( 3d)     0.00069

   346    C   24  S      Cor( 1S)     1.99899
   347    C   24  S      Val( 2S)     0.93983
   348    C   24  S      Ryd( 3S)     0.00071
   349    C   24  S      Ryd( 4S)     0.00004
   350    C   24  px     Val( 2p)     1.03195
   351    C   24  px     Ryd( 3p)     0.00146
   352    C   24  py     Val( 2p)     1.18734
   353    C   24  py     Ryd( 3p)     0.00433
   354    C   24  pz     Val( 2p)     1.08281
   355    C   24  pz     Ryd( 3p)     0.00410
   356    C   24  dxy    Ryd( 3d)     0.00033
   357    C   24  dxz    Ryd( 3d)     0.00077
   358    C   24  dyz    Ryd( 3d)     0.00061
   359    C   24  dx2y2  Ryd( 3d)     0.00052
   360    C   24  dz2    Ryd( 3d)     0.00060

   361    C   25  S      Cor( 1S)     1.99913
   362    C   25  S      Val( 2S)     0.94665
   363    C   25  S      Ryd( 3S)     0.00058
   364    C   25  S      Ryd( 4S)     0.00003
   365    C   25  px     Val( 2p)     1.15435
   366    C   25  px     Ryd( 3p)     0.00351
   367    C   25  py     Val( 2p)     1.06129
   368    C   25  py     Ryd( 3p)     0.00504
   369    C   25  pz     Val( 2p)     1.18029
   370    C   25  pz     Ryd( 3p)     0.00457
   371    C   25  dxy    Ryd( 3d)     0.00044
   372    C   25  dxz    Ryd( 3d)     0.00030
   373    C   25  dyz    Ryd( 3d)     0.00061
   374    C   25  dx2y2  Ryd( 3d)     0.00038
   375    C   25  dz2    Ryd( 3d)     0.00064

   376    C   26  S      Cor( 1S)     1.99913
   377    C   26  S      Val( 2S)     0.95840
   378    C   26  S      Ryd( 3S)     0.00051
   379    C   26  S      Ryd( 4S)     0.00003
   380    C   26  px     Val( 2p)     1.01355
   381    C   26  px     Ryd( 3p)     0.00102
   382    C   26  py     Val( 2p)     1.14002
   383    C   26  py     Ryd( 3p)     0.00490
   384    C   26  pz     Val( 2p)     1.11786
   385    C   26  pz     Ryd( 3p)     0.00453
   386    C   26  dxy    Ryd( 3d)     0.00053
   387    C   26  dxz    Ryd( 3d)     0.00060
   388    C   26  dyz    Ryd( 3d)     0.00077
   389    C   26  dx2y2  Ryd( 3d)     0.00043
   390    C   26  dz2    Ryd( 3d)     0.00053

   391    C   27  S      Cor( 1S)     1.99904
   392    C   27  S      Val( 2S)     0.93788
   393    C   27  S      Ryd( 3S)     0.00064
   394    C   27  S      Ryd( 4S)     0.00005
   395    C   27  px     Val( 2p)     1.09660
   396    C   27  px     Ryd( 3p)     0.00261
   397    C   27  py     Val( 2p)     1.17587
   398    C   27  py     Ryd( 3p)     0.00450
   399    C   27  pz     Val( 2p)     1.07597
   400    C   27  pz     Ryd( 3p)     0.00361
   401    C   27  dxy    Ryd( 3d)     0.00031
   402    C   27  dxz    Ryd( 3d)     0.00053
   403    C   27  dyz    Ryd( 3d)     0.00071
   404    C   27  dx2y2  Ryd( 3d)     0.00049
   405    C   27  dz2    Ryd( 3d)     0.00051

   406    H   28  S      Val( 1S)     0.56575
   407    H   28  S      Ryd( 2S)     0.00090
   408    H   28  px     Ryd( 2p)     0.00026
   409    H   28  py     Ryd( 2p)     0.00063
   410    H   28  pz     Ryd( 2p)     0.00034

   411    H   29  S      Val( 1S)     0.56553
   412    H   29  S      Ryd( 2S)     0.00088
   413    H   29  px     Ryd( 2p)     0.00040
   414    H   29  py     Ryd( 2p)     0.00023
   415    H   29  pz     Ryd( 2p)     0.00060

   416    H   30  S      Val( 1S)     0.73980
   417    H   30  S      Ryd( 2S)     0.00078
   418    H   30  px     Ryd( 2p)     0.00006
   419    H   30  py     Ryd( 2p)     0.00031
   420    H   30  pz     Ryd( 2p)     0.00021

   421    H   31  S      Val( 1S)     0.73863
   422    H   31  S      Ryd( 2S)     0.00081
   423    H   31  px     Ryd( 2p)     0.00027
   424    H   31  py     Ryd( 2p)     0.00011
   425    H   31  pz     Ryd( 2p)     0.00021

   426    H   32  S      Val( 1S)     0.74010
   427    H   32  S      Ryd( 2S)     0.00077
   428    H   32  px     Ryd( 2p)     0.00026
   429    H   32  py     Ryd( 2p)     0.00011
   430    H   32  pz     Ryd( 2p)     0.00021

   431    H   33  S      Val( 1S)     0.73195
   432    H   33  S      Ryd( 2S)     0.00088
   433    H   33  px     Ryd( 2p)     0.00009
   434    H   33  py     Ryd( 2p)     0.00031
   435    H   33  pz     Ryd( 2p)     0.00021

   436    H   34  S      Val( 1S)     0.73195
   437    H   34  S      Ryd( 2S)     0.00088
   438    H   34  px     Ryd( 2p)     0.00009
   439    H   34  py     Ryd( 2p)     0.00031
   440    H   34  pz     Ryd( 2p)     0.00021

   441    H   35  S      Val( 1S)     0.74010
   442    H   35  S      Ryd( 2S)     0.00077
   443    H   35  px     Ryd( 2p)     0.00026
   444    H   35  py     Ryd( 2p)     0.00011
   445    H   35  pz     Ryd( 2p)     0.00021

   446    H   36  S      Val( 1S)     0.56575
   447    H   36  S      Ryd( 2S)     0.00090
   448    H   36  px     Ryd( 2p)     0.00026
   449    H   36  py     Ryd( 2p)     0.00063
   450    H   36  pz     Ryd( 2p)     0.00034

   451    H   37  S      Val( 1S)     0.56553
   452    H   37  S      Ryd( 2S)     0.00088
   453    H   37  px     Ryd( 2p)     0.00040
   454    H   37  py     Ryd( 2p)     0.00023
   455    H   37  pz     Ryd( 2p)     0.00060

   456    H   38  S      Val( 1S)     0.73980
   457    H   38  S      Ryd( 2S)     0.00078
   458    H   38  px     Ryd( 2p)     0.00006
   459    H   38  py     Ryd( 2p)     0.00031
   460    H   38  pz     Ryd( 2p)     0.00021

   461    H   39  S      Val( 1S)     0.73863
   462    H   39  S      Ryd( 2S)     0.00081
   463    H   39  px     Ryd( 2p)     0.00027
   464    H   39  py     Ryd( 2p)     0.00011
   465    H   39  pz     Ryd( 2p)     0.00021

   466    H   40  S      Val( 1S)     0.77214
   467    H   40  S      Ryd( 2S)     0.00084
   468    H   40  px     Ryd( 2p)     0.00016
   469    H   40  py     Ryd( 2p)     0.00037
   470    H   40  pz     Ryd( 2p)     0.00009

   471    H   41  S      Val( 1S)     0.76992
   472    H   41  S      Ryd( 2S)     0.00074
   473    H   41  px     Ryd( 2p)     0.00013
   474    H   41  py     Ryd( 2p)     0.00027
   475    H   41  pz     Ryd( 2p)     0.00022

   476    H   42  S      Val( 1S)     0.77416
   477    H   42  S      Ryd( 2S)     0.00063
   478    H   42  px     Ryd( 2p)     0.00019
   479    H   42  py     Ryd( 2p)     0.00007
   480    H   42  pz     Ryd( 2p)     0.00038

   481    H   43  S      Val( 1S)     0.76822
   482    H   43  S      Ryd( 2S)     0.00096
   483    H   43  px     Ryd( 2p)     0.00014
   484    H   43  py     Ryd( 2p)     0.00037
   485    H   43  pz     Ryd( 2p)     0.00011

   486    H   44  S      Val( 1S)     0.76822
   487    H   44  S      Ryd( 2S)     0.00096
   488    H   44  px     Ryd( 2p)     0.00014
   489    H   44  py     Ryd( 2p)     0.00037
   490    H   44  pz     Ryd( 2p)     0.00011

   491    H   45  S      Val( 1S)     0.77416
   492    H   45  S      Ryd( 2S)     0.00063
   493    H   45  px     Ryd( 2p)     0.00019
   494    H   45  py     Ryd( 2p)     0.00007
   495    H   45  pz     Ryd( 2p)     0.00038

   496    H   46  S      Val( 1S)     0.76992
   497    H   46  S      Ryd( 2S)     0.00074
   498    H   46  px     Ryd( 2p)     0.00013
   499    H   46  py     Ryd( 2p)     0.00027
   500    H   46  pz     Ryd( 2p)     0.00022

   501    H   47  S      Val( 1S)     0.77214
   502    H   47  S      Ryd( 2S)     0.00084
   503    H   47  px     Ryd( 2p)     0.00016
   504    H   47  py     Ryd( 2p)     0.00037
   505    H   47  pz     Ryd( 2p)     0.00009

 WARNING:  1 low occupancy (<1.9990e) core orbital  found on  C    2
           1 low occupancy (<1.9990e) core orbital  found on  C    7
           1 low occupancy (<1.9990e) core orbital  found on  C    8
           1 low occupancy (<1.9990e) core orbital  found on  C    9
           1 low occupancy (<1.9990e) core orbital  found on  C   12
           1 low occupancy (<1.9990e) core orbital  found on  C   16
           1 low occupancy (<1.9990e) core orbital  found on  C   17
           1 low occupancy (<1.9990e) core orbital  found on  C   21
           1 low occupancy (<1.9990e) core orbital  found on  C   22
           1 low occupancy (<1.9990e) core orbital  found on  C   23
           1 low occupancy (<1.9990e) core orbital  found on  C   24


 Summary of Natural Population Analysis:                  
                                                          
                                       Natural Population 
                Natural  -----------------------------------------------
    Atom  No    Charge         Core      Valence    Rydberg      Total
 -----------------------------------------------------------------------
      N    1   -0.76817      1.99949     5.75818    0.01050     7.76817
      C    2    0.19741      1.99897     3.78688    0.01674     5.80259
      C    3   -0.25552      1.99904     4.24337    0.01311     6.25552
      C    4   -0.21553      1.99905     4.20338    0.01310     6.21553
      C    5   -0.24208      1.99905     4.23017    0.01287     6.24208
      C    6   -0.21404      1.99904     4.20196    0.01304     6.21404
      C    7    0.03441      1.99900     3.94934    0.01725     5.96559
      C    8   -0.10165      1.99894     4.08402    0.01869     6.10165
      C    9    0.03441      1.99900     3.94935    0.01725     5.96559
      C   10   -0.21404      1.99904     4.20196    0.01304     6.21404
      C   11   -0.24208      1.99905     4.23017    0.01287     6.24208
      C   12    0.19741      1.99897     3.78688    0.01674     5.80259
      N   13   -0.76817      1.99949     5.75818    0.01050     7.76817
      C   14   -0.25552      1.99904     4.24337    0.01311     6.25552
      C   15   -0.21553      1.99905     4.20338    0.01310     6.21553
      C   16   -0.04056      1.99899     4.02458    0.01699     6.04056
      C   17   -0.10906      1.99896     4.09395    0.01615     6.10906
      C   18   -0.29931      1.99904     4.28632    0.01395     6.29931
      C   19   -0.24282      1.99913     4.22983    0.01387     6.24282
      C   20   -0.35780      1.99913     4.34258    0.01609     6.35780
      C   21   -0.25439      1.99899     4.24193    0.01347     6.25439
      C   22   -0.10906      1.99896     4.09395    0.01615     6.10906
      C   23   -0.04056      1.99899     4.02458    0.01699     6.04056
      C   24   -0.25439      1.99899     4.24193    0.01347     6.25439
      C   25   -0.35780      1.99913     4.34258    0.01609     6.35780
      C   26   -0.24282      1.99913     4.22982    0.01387     6.24282
      C   27   -0.29931      1.99904     4.28632    0.01395     6.29931
      H   28    0.43212      0.00000     0.56575    0.00213     0.56788
      H   29    0.43236      0.00000     0.56553    0.00211     0.56764
      H   30    0.25884      0.00000     0.73980    0.00136     0.74116
      H   31    0.25996      0.00000     0.73863    0.00140     0.74004
      H   32    0.25855      0.00000     0.74010    0.00135     0.74145
      H   33    0.26657      0.00000     0.73195    0.00148     0.73343
      H   34    0.26657      0.00000     0.73195    0.00148     0.73343
      H   35    0.25855      0.00000     0.74010    0.00135     0.74145
      H   36    0.43212      0.00000     0.56575    0.00213     0.56788
      H   37    0.43236      0.00000     0.56553    0.00211     0.56764
      H   38    0.25884      0.00000     0.73980    0.00136     0.74116
      H   39    0.25996      0.00000     0.73863    0.00140     0.74004
      H   40    0.22641      0.00000     0.77214    0.00145     0.77359
      H   41    0.22872      0.00000     0.76992    0.00136     0.77128
      H   42    0.22457      0.00000     0.77416    0.00127     0.77543
      H   43    0.23020      0.00000     0.76822    0.00158     0.76980
      H   44    0.23020      0.00000     0.76822    0.00158     0.76980
      H   45    0.22457      0.00000     0.77416    0.00127     0.77543
      H   46    0.22872      0.00000     0.76992    0.00136     0.77128
      H   47    0.22641      0.00000     0.77214    0.00145     0.77359
 =======================================================================
   * Total *    0.00000     53.97467   129.60138    0.42395   184.00000

                                 Natural Population      
 --------------------------------------------------------
   Core                      53.97467 ( 99.9531% of  54)
   Valence                  129.60138 ( 99.6934% of 130)
   Natural Minimal Basis    183.57605 ( 99.7696% of 184)
   Natural Rydberg Basis      0.42395 (  0.2304% of 184)
 --------------------------------------------------------

    Atom  No          Natural Electron Configuration
 ----------------------------------------------------------------------------
      N    1      [core]2S( 1.37)2p( 4.39)3p( 0.01)
      C    2      [core]2S( 0.85)2p( 2.93)3p( 0.01)
      C    3      [core]2S( 0.96)2p( 3.28)3p( 0.01)
      C    4      [core]2S( 0.95)2p( 3.25)3p( 0.01)
      C    5      [core]2S( 0.96)2p( 3.27)3p( 0.01)
      C    6      [core]2S( 0.95)2p( 3.25)3p( 0.01)
      C    7      [core]2S( 0.88)2p( 3.07)3p( 0.01)
      C    8      [core]2S( 0.89)2p( 3.20)3p( 0.01)
      C    9      [core]2S( 0.88)2p( 3.07)3p( 0.01)
      C   10      [core]2S( 0.95)2p( 3.25)3p( 0.01)
      C   11      [core]2S( 0.96)2p( 3.27)3p( 0.01)
      C   12      [core]2S( 0.85)2p( 2.93)3p( 0.01)
      N   13      [core]2S( 1.37)2p( 4.39)3p( 0.01)
      C   14      [core]2S( 0.96)2p( 3.28)3p( 0.01)
      C   15      [core]2S( 0.95)2p( 3.25)3p( 0.01)
      C   16      [core]2S( 0.85)2p( 3.17)3p( 0.01)
      C   17      [core]2S( 0.85)2p( 3.25)3p( 0.01)
      C   18      [core]2S( 0.94)2p( 3.35)3p( 0.01)
      C   19      [core]2S( 0.96)2p( 3.27)3p( 0.01)
      C   20      [core]2S( 0.95)2p( 3.40)3p( 0.01)
      C   21      [core]2S( 0.94)2p( 3.30)3p( 0.01)
      C   22      [core]2S( 0.85)2p( 3.25)3p( 0.01)
      C   23      [core]2S( 0.85)2p( 3.17)3p( 0.01)
      C   24      [core]2S( 0.94)2p( 3.30)3p( 0.01)
      C   25      [core]2S( 0.95)2p( 3.40)3p( 0.01)
      C   26      [core]2S( 0.96)2p( 3.27)3p( 0.01)
      C   27      [core]2S( 0.94)2p( 3.35)3p( 0.01)
      H   28            1S( 0.57)
      H   29            1S( 0.57)
      H   30            1S( 0.74)
      H   31            1S( 0.74)
      H   32            1S( 0.74)
      H   33            1S( 0.73)
      H   34            1S( 0.73)
      H   35            1S( 0.74)
      H   36            1S( 0.57)
      H   37            1S( 0.57)
      H   38            1S( 0.74)
      H   39            1S( 0.74)
      H   40            1S( 0.77)
      H   41            1S( 0.77)
      H   42            1S( 0.77)
      H   43            1S( 0.77)
      H   44            1S( 0.77)
      H   45            1S( 0.77)
      H   46            1S( 0.77)
      H   47            1S( 0.77)


 NBO analysis skipped by request.
 1\1\GINC-DRG2-W008\SP\RB3LYP TD-FC\6-31G(d,p)\C25H20N2\QDUEZ\18-Jul-20
 24\0\\# TD(NStates=10, Root=1) B3LYP/6-31G** SCRF=(Solvent=water) volu
 me pop=NPA density=current Geom=AllCheck Guess=Read\\KIFDSGGWDIVQGN-UH
 FFFAOYSA-N_conf_1\\0,1\N,0,0.3676075405,5.6719385872,0.2827710569\C,0,
 0.2742373275,4.2793803682,0.2704370386\C,0,1.2001152652,3.4976328177,-
 0.4438478728\C,0,1.0680273867,2.1133881526,-0.5023259941\C,0,-0.781252
 821,3.6155282489,0.9182574899\C,0,-0.9026287654,2.2289139973,0.8497777
 742\C,0,0.0175842131,1.4415761386,0.1439338364\C,0,-0.1647959086,-0.08
 23783265,-0.022792835\C,0,1.1772203742,-0.8443128987,0.0213186174\C,0,
 1.4213068854,-1.9696284817,-0.7780529347\C,0,2.5985666992,-2.707076592
 8,-0.6669196086\C,0,3.5883427991,-2.3485410268,0.2637928602\N,0,4.7419
 144489,-3.1177741751,0.4239217042\C,0,3.3500836296,-1.2230709343,1.073
 1951072\C,0,2.1707006719,-0.4944086457,0.950284905\C,0,-1.113872819,-0
 .6961677115,1.0256289049\C,0,-2.2666009088,-1.2276008909,0.4160387581\
 C,0,-3.2541876236,-1.8545665727,1.1807924217\C,0,-3.0806190218,-1.9446
 301216,2.5637704034\C,0,-1.9348798621,-1.4173694571,3.1710482867\C,0,-
 0.9443696588,-0.7932896386,2.4034300728\C,0,-2.1820778951,-0.996223295
 7,-1.0313327633\C,0,-0.9665187005,-0.3437845099,-1.3133661068\C,0,-0.6
 45064943,-0.0012377267,-2.6232627542\C,0,-1.5399700144,-0.319647607,-3
 .6516517232\C,0,-2.7477118334,-0.9688583172,-3.369882941\C,0,-3.078196
 8991,-1.3108928715,-2.0566207409\H,0,1.3008028371,6.034575964,0.134177
 4426\H,0,-0.0733087911,6.1189934973,1.0766276375\H,0,2.0296484371,3.98
 21307527,-0.9527749562\H,0,1.8103630621,1.5442220771,-1.0529533271\H,0
 ,-1.5112309481,4.1918944814,1.4811336095\H,0,-1.7326249293,1.756325465
 9,1.364228378\H,0,0.6830317429,-2.2809872038,-1.5094204406\H,0,2.75485
 85135,-3.5702137209,-1.3091522796\H,0,5.5327641944,-2.6185921725,0.810
 9790835\H,0,5.0131885464,-3.6496237004,-0.3934032101\H,0,4.0986789227,
 -0.9186941625,1.8004022083\H,0,2.0298697899,0.37543421,1.5841167632\H,
 0,-4.1428534208,-2.267081225,0.711470615\H,0,-3.8390072901,-2.42862330
 83,3.1720882041\H,0,-1.8112959303,-1.4947448295,4.2472436872\H,0,-0.05
 60207394,-0.3938080452,2.8833528109\H,0,0.2859842066,0.508772025,-2.85
 15449567\H,0,-1.2951536891,-0.0581122205,-4.6768934919\H,0,-3.43326804
 16,-1.2066704181,-4.1779119057\H,0,-4.0173860395,-1.8120959754,-1.8401
 088352\\Version=ES64L-G16RevA.03\State=1-A\HF=-1074.2736853\RMSD=6.683
 e-09\Dipole=6.7426893,3.3706548,0.9325839\Quadrupole=7.1440406,22.1829
 477,-29.3269883,-12.6458696,-2.3926253,13.0367986\PG=C01 [X(C25H20N2)]
 \\@


 When I told the people of Northern Ireland that I was
 an atheist, a woman in the audience stood up and said,
 "Yes, but is it the God of the Catholics or the God
 of the Protestants in whom you don't believe?"
                               -- Quentin Crisp
 Job cpu time:       0 days  3 hours  4 minutes 37.6 seconds.
 Elapsed time:       0 days  1 hours  1 minutes 42.1 seconds.
 File lengths (MBytes):  RWF=   1955 Int=      0 D2E=      0 Chk=    123 Scr=      1
 Normal termination of Gaussian 16 at Thu Jul 18 09:09:55 2024.
