 Entering Gaussian System, Link 0=g16
 Initial command:
 /opt/sw/arch/manual/gaussian/G16_A03/g16/l1.exe "/scratch/1380902/Gau-109632.inp" -scrdir="/scratch/1380902/"
 Entering Link 1 = /opt/sw/arch/manual/gaussian/G16_A03/g16/l1.exe PID=    109633.
  
 Copyright (c) 1988,1990,1992,1993,1995,1998,2003,2009,2016,
            Gaussian, Inc.  All Rights Reserved.
  
 This is part of the Gaussian(R) 16 program.  It is based on
 the Gaussian(R) 09 system (copyright 2009, Gaussian, Inc.),
 the Gaussian(R) 03 system (copyright 2003, Gaussian, Inc.),
 the Gaussian(R) 98 system (copyright 1998, Gaussian, Inc.),
 the Gaussian(R) 94 system (copyright 1995, Gaussian, Inc.),
 the Gaussian 92(TM) system (copyright 1992, Gaussian, Inc.),
 the Gaussian 90(TM) system (copyright 1990, Gaussian, Inc.),
 the Gaussian 88(TM) system (copyright 1988, Gaussian, Inc.),
 the Gaussian 86(TM) system (copyright 1986, Carnegie Mellon
 University), and the Gaussian 82(TM) system (copyright 1983,
 Carnegie Mellon University). Gaussian is a federally registered
 trademark of Gaussian, Inc.
  
 This software contains proprietary and confidential information,
 including trade secrets, belonging to Gaussian, Inc.
  
 This software is provided under written license and may be
 used, copied, transmitted, or stored only in accord with that
 written license.
  
 The following legend is applicable only to US Government
 contracts under FAR:
  
                    RESTRICTED RIGHTS LEGEND
  
 Use, reproduction and disclosure by the US Government is
 subject to restrictions as set forth in subparagraphs (a)
 and (c) of the Commercial Computer Software - Restricted
 Rights clause in FAR 52.227-19.
  
 Gaussian, Inc.
 340 Quinnipiac St., Bldg. 40, Wallingford CT 06492
  
  
 ---------------------------------------------------------------
 Warning -- This program may not be used in any manner that
 competes with the business of Gaussian, Inc. or will provide
 assistance to any competitor of Gaussian, Inc.  The licensee
 of this program is prohibited from giving any competitor of
 Gaussian, Inc. access to this program.  By using this program,
 the user acknowledges that Gaussian, Inc. is engaged in the
 business of creating and licensing software in the field of
 computational chemistry and represents and warrants to the
 licensee that it is not a competitor of Gaussian, Inc. and that
 it will not use this program in any manner prohibited above.
 ---------------------------------------------------------------
  

 Cite this work as:
 Gaussian 16, Revision A.03,
 M. J. Frisch, G. W. Trucks, H. B. Schlegel, G. E. Scuseria, 
 M. A. Robb, J. R. Cheeseman, G. Scalmani, V. Barone, 
 G. A. Petersson, H. Nakatsuji, X. Li, M. Caricato, A. V. Marenich, 
 J. Bloino, B. G. Janesko, R. Gomperts, B. Mennucci, H. P. Hratchian, 
 J. V. Ortiz, A. F. Izmaylov, J. L. Sonnenberg, D. Williams-Young, 
 F. Ding, F. Lipparini, F. Egidi, J. Goings, B. Peng, A. Petrone, 
 T. Henderson, D. Ranasinghe, V. G. Zakrzewski, J. Gao, N. Rega, 
 G. Zheng, W. Liang, M. Hada, M. Ehara, K. Toyota, R. Fukuda, 
 J. Hasegawa, M. Ishida, T. Nakajima, Y. Honda, O. Kitao, H. Nakai, 
 T. Vreven, K. Throssell, J. A. Montgomery, Jr., J. E. Peralta, 
 F. Ogliaro, M. J. Bearpark, J. J. Heyd, E. N. Brothers, K. N. Kudin, 
 V. N. Staroverov, T. A. Keith, R. Kobayashi, J. Normand, 
 K. Raghavachari, A. P. Rendell, J. C. Burant, S. S. Iyengar, 
 J. Tomasi, M. Cossi, J. M. Millam, M. Klene, C. Adamo, R. Cammi, 
 J. W. Ochterski, R. L. Martin, K. Morokuma, O. Farkas, 
 J. B. Foresman, and D. J. Fox, Gaussian, Inc., Wallingford CT, 2016.
 
 ******************************************
 Gaussian 16:  ES64L-G16RevA.03 25-Dec-2016
                18-Jul-2024 
 ******************************************
 %nprocshared=7
 Will use up to    7 processors via shared memory.
 %mem=14GB
 %Chk=KIFDSGGWDIVQGN-UHFFFAOYSA-N_conf_3_0.chk
 -------------------------------------------------------
 # opt=CalcFc B3LYP/6-31G** SCRF=(Solvent=water) scf=xqc
 -------------------------------------------------------
 1/10=4,18=20,19=15,26=3,38=1/1,3;
 2/9=110,12=2,17=6,18=5,40=1/2;
 3/5=1,6=6,7=101,11=2,25=1,30=1,70=2201,71=2,72=1,74=-5,140=1/1,2,3;
 4//1;
 5/5=2,8=3,13=1,38=5,53=1/2,8;
 8/6=4,10=90,11=11/1;
 11/6=1,8=1,9=11,15=111,16=1/1,2,10;
 10/6=1,13=1/2;
 6/7=2,8=2,9=2,10=2,28=1/1;
 7/10=1,18=20,25=1/1,2,3,16;
 1/10=4,18=20,19=15,26=3/3(2);
 2/9=110/2;
 99//99;
 2/9=110/2;
 3/5=1,6=6,7=101,11=2,25=1,30=1,70=2205,71=1,72=1,74=-5/1,2,3;
 4/5=5,16=3,69=1/1;
 5/5=2,8=3,13=1,38=5,53=1/2,8;
 7//1,2,3,16;
 1/18=20,19=15,26=3/3(-5);
 2/9=110/2;
 6/7=2,8=2,9=2,10=2,19=2,28=1/1;
 99/9=1/99;
 ----------------------------------
 KIFDSGGWDIVQGN-UHFFFAOYSA-N_conf_3
 ----------------------------------
 Symbolic Z-matrix:
 Charge =  0 Multiplicity = 1
 N                    -3.23032  -4.09585  -2.32005 
 C                    -2.43952  -3.13701  -1.6773 
 C                    -3.00313  -2.26773  -0.74514 
 C                    -2.25056  -1.23025  -0.17942 
 C                    -1.14393  -2.88001  -2.12026 
 C                    -0.38682  -1.84421  -1.55996 
 C                    -0.91107  -1.01396  -0.54934 
 C                    -0.06768   0.15568   0.03846 
 C                     1.4352   -0.19183   0.25164 
 C                     2.45661   0.7562    0.06237 
 C                     3.80041   0.43355   0.29222 
 C                     4.17194  -0.84841   0.69318 
 N                     5.50096  -1.12772   1.03017 
 C                     3.16539  -1.77033   0.97202 
 C                     1.82051  -1.45399   0.74561 
 C                    -0.28907   1.4037   -0.8661 
 C                    -0.87365   2.45668  -0.12893 
 C                    -1.15986   3.66979  -0.7372 
 C                    -0.85974   3.82776  -2.09328 
 C                    -0.28056   2.78158  -2.82677 
 C                     0.00914   1.55972  -2.21709 
 C                    -1.07708   2.03098   1.23704 
 C                    -0.62593   0.70122   1.38587 
 C                    -0.71049   0.05367   2.61549 
 C                    -1.25351   0.74753   3.6982 
 C                    -1.70306   2.06799   3.54907 
 C                    -1.6167    2.71771   2.31441 
 H                    -2.69867  -4.85925  -2.72551 
 H                    -4.0107   -4.42306  -1.75958 
 H                    -4.04286  -2.38157  -0.44983 
 H                    -2.74602  -0.57989   0.53835 
 H                    -0.70726  -3.48144  -2.91296 
 H                     0.62227  -1.68577  -1.93625 
 H                     2.22663   1.77468  -0.24335 
 H                     4.55425   1.20509   0.15928 
 H                     6.17672  -0.55983   0.52912 
 H                     5.73068  -2.11582   1.00311 
 H                     3.41521  -2.74812   1.37482 
 H                     1.07095  -2.20943   0.97453 
 H                    -1.60911   4.48602  -0.18157 
 H                    -1.07979   4.77137  -2.58701 
 H                    -0.0579    2.92361  -3.88174 
 H                     0.45776   0.75571  -2.79101 
 H                    -0.3657   -0.96761   2.73871 
 H                    -1.32646   0.26108   4.66812 
 H                    -2.12105   2.59225   4.40525 
 H                    -1.96641   3.73954   2.21262 
 

 GradGradGradGradGradGradGradGradGradGradGradGradGradGradGradGradGradGrad
 Berny optimization.
 Initialization pass.
                           ----------------------------
                           !    Initial Parameters    !
                           ! (Angstroms and Degrees)  !
 --------------------------                            --------------------------
 ! Name  Definition              Value          Derivative Info.                !
 --------------------------------------------------------------------------------
 ! R1    R(1,2)                  1.3992         calculate D2E/DX2 analytically  !
 ! R2    R(1,28)                 1.0148         calculate D2E/DX2 analytically  !
 ! R3    R(1,29)                 1.015          calculate D2E/DX2 analytically  !
 ! R4    R(2,3)                  1.3936         calculate D2E/DX2 analytically  !
 ! R5    R(2,5)                  1.3931         calculate D2E/DX2 analytically  !
 ! R6    R(3,4)                  1.401          calculate D2E/DX2 analytically  !
 ! R7    R(3,30)                 1.0868         calculate D2E/DX2 analytically  !
 ! R8    R(4,7)                  1.4064         calculate D2E/DX2 analytically  !
 ! R9    R(4,31)                 1.088          calculate D2E/DX2 analytically  !
 ! R10   R(5,6)                  1.4            calculate D2E/DX2 analytically  !
 ! R11   R(5,32)                 1.0866         calculate D2E/DX2 analytically  !
 ! R12   R(6,7)                  1.4091         calculate D2E/DX2 analytically  !
 ! R13   R(6,33)                 1.0886         calculate D2E/DX2 analytically  !
 ! R14   R(7,8)                  1.5572         calculate D2E/DX2 analytically  !
 ! R15   R(8,9)                  1.5572         calculate D2E/DX2 analytically  !
 ! R16   R(8,16)                 1.5572         calculate D2E/DX2 analytically  !
 ! R17   R(8,23)                 1.5572         calculate D2E/DX2 analytically  !
 ! R18   R(9,10)                 1.4064         calculate D2E/DX2 analytically  !
 ! R19   R(9,15)                 1.4091         calculate D2E/DX2 analytically  !
 ! R20   R(10,11)                1.401          calculate D2E/DX2 analytically  !
 ! R21   R(10,34)                1.088          calculate D2E/DX2 analytically  !
 ! R22   R(11,12)                1.3936         calculate D2E/DX2 analytically  !
 ! R23   R(11,35)                1.0868         calculate D2E/DX2 analytically  !
 ! R24   R(12,13)                1.3992         calculate D2E/DX2 analytically  !
 ! R25   R(12,14)                1.3931         calculate D2E/DX2 analytically  !
 ! R26   R(13,36)                1.015          calculate D2E/DX2 analytically  !
 ! R27   R(13,37)                1.0148         calculate D2E/DX2 analytically  !
 ! R28   R(14,15)                1.4            calculate D2E/DX2 analytically  !
 ! R29   R(14,38)                1.0866         calculate D2E/DX2 analytically  !
 ! R30   R(15,39)                1.0885         calculate D2E/DX2 analytically  !
 ! R31   R(16,17)                1.4121         calculate D2E/DX2 analytically  !
 ! R32   R(16,21)                1.3923         calculate D2E/DX2 analytically  !
 ! R33   R(17,18)                1.3869         calculate D2E/DX2 analytically  !
 ! R34   R(17,22)                1.4452         calculate D2E/DX2 analytically  !
 ! R35   R(18,19)                1.3978         calculate D2E/DX2 analytically  !
 ! R36   R(18,40)                1.0848         calculate D2E/DX2 analytically  !
 ! R37   R(19,20)                1.4028         calculate D2E/DX2 analytically  !
 ! R38   R(19,41)                1.0875         calculate D2E/DX2 analytically  !
 ! R39   R(20,21)                1.3959         calculate D2E/DX2 analytically  !
 ! R40   R(20,42)                1.0875         calculate D2E/DX2 analytically  !
 ! R41   R(21,43)                1.0849         calculate D2E/DX2 analytically  !
 ! R42   R(22,23)                1.4121         calculate D2E/DX2 analytically  !
 ! R43   R(22,27)                1.3869         calculate D2E/DX2 analytically  !
 ! R44   R(23,24)                1.3923         calculate D2E/DX2 analytically  !
 ! R45   R(24,25)                1.3959         calculate D2E/DX2 analytically  !
 ! R46   R(24,44)                1.0849         calculate D2E/DX2 analytically  !
 ! R47   R(25,26)                1.4028         calculate D2E/DX2 analytically  !
 ! R48   R(25,45)                1.0875         calculate D2E/DX2 analytically  !
 ! R49   R(26,27)                1.3978         calculate D2E/DX2 analytically  !
 ! R50   R(26,46)                1.0875         calculate D2E/DX2 analytically  !
 ! R51   R(27,47)                1.0848         calculate D2E/DX2 analytically  !
 ! A1    A(2,1,28)             113.7626         calculate D2E/DX2 analytically  !
 ! A2    A(2,1,29)             113.6903         calculate D2E/DX2 analytically  !
 ! A3    A(28,1,29)            112.3898         calculate D2E/DX2 analytically  !
 ! A4    A(1,2,3)              120.4059         calculate D2E/DX2 analytically  !
 ! A5    A(1,2,5)              120.3941         calculate D2E/DX2 analytically  !
 ! A6    A(3,2,5)              118.2752         calculate D2E/DX2 analytically  !
 ! A7    A(2,3,4)              120.9813         calculate D2E/DX2 analytically  !
 ! A8    A(2,3,30)             120.2178         calculate D2E/DX2 analytically  !
 ! A9    A(4,3,30)             118.7994         calculate D2E/DX2 analytically  !
 ! A10   A(3,4,7)              121.2857         calculate D2E/DX2 analytically  !
 ! A11   A(3,4,31)             117.6749         calculate D2E/DX2 analytically  !
 ! A12   A(7,4,31)             121.0208         calculate D2E/DX2 analytically  !
 ! A13   A(2,5,6)              120.8076         calculate D2E/DX2 analytically  !
 ! A14   A(2,5,32)             120.2362         calculate D2E/DX2 analytically  !
 ! A15   A(6,5,32)             118.9556         calculate D2E/DX2 analytically  !
 ! A16   A(5,6,7)              121.451          calculate D2E/DX2 analytically  !
 ! A17   A(5,6,33)             118.0766         calculate D2E/DX2 analytically  !
 ! A18   A(7,6,33)             120.4679         calculate D2E/DX2 analytically  !
 ! A19   A(4,7,6)              116.8974         calculate D2E/DX2 analytically  !
 ! A20   A(4,7,8)              122.1465         calculate D2E/DX2 analytically  !
 ! A21   A(6,7,8)              120.7833         calculate D2E/DX2 analytically  !
 ! A22   A(7,8,9)              114.0024         calculate D2E/DX2 analytically  !
 ! A23   A(7,8,16)             107.8015         calculate D2E/DX2 analytically  !
 ! A24   A(7,8,23)             113.3037         calculate D2E/DX2 analytically  !
 ! A25   A(9,8,16)             113.3033         calculate D2E/DX2 analytically  !
 ! A26   A(9,8,23)             107.8015         calculate D2E/DX2 analytically  !
 ! A27   A(16,8,23)             99.8392         calculate D2E/DX2 analytically  !
 ! A28   A(8,9,10)             122.1465         calculate D2E/DX2 analytically  !
 ! A29   A(8,9,15)             120.7835         calculate D2E/DX2 analytically  !
 ! A30   A(10,9,15)            116.8973         calculate D2E/DX2 analytically  !
 ! A31   A(9,10,11)            121.2859         calculate D2E/DX2 analytically  !
 ! A32   A(9,10,34)            121.0205         calculate D2E/DX2 analytically  !
 ! A33   A(11,10,34)           117.675          calculate D2E/DX2 analytically  !
 ! A34   A(10,11,12)           120.9813         calculate D2E/DX2 analytically  !
 ! A35   A(10,11,35)           118.7993         calculate D2E/DX2 analytically  !
 ! A36   A(12,11,35)           120.218          calculate D2E/DX2 analytically  !
 ! A37   A(11,12,13)           120.4057         calculate D2E/DX2 analytically  !
 ! A38   A(11,12,14)           118.2749         calculate D2E/DX2 analytically  !
 ! A39   A(13,12,14)           120.3943         calculate D2E/DX2 analytically  !
 ! A40   A(12,13,36)           113.6907         calculate D2E/DX2 analytically  !
 ! A41   A(12,13,37)           113.7626         calculate D2E/DX2 analytically  !
 ! A42   A(36,13,37)           112.3898         calculate D2E/DX2 analytically  !
 ! A43   A(12,14,15)           120.8078         calculate D2E/DX2 analytically  !
 ! A44   A(12,14,38)           120.2361         calculate D2E/DX2 analytically  !
 ! A45   A(15,14,38)           118.9554         calculate D2E/DX2 analytically  !
 ! A46   A(9,15,14)            121.4508         calculate D2E/DX2 analytically  !
 ! A47   A(9,15,39)            120.4678         calculate D2E/DX2 analytically  !
 ! A48   A(14,15,39)           118.0768         calculate D2E/DX2 analytically  !
 ! A49   A(8,16,17)            110.687          calculate D2E/DX2 analytically  !
 ! A50   A(8,16,21)            128.5375         calculate D2E/DX2 analytically  !
 ! A51   A(17,16,21)           120.7754         calculate D2E/DX2 analytically  !
 ! A52   A(16,17,18)           120.579          calculate D2E/DX2 analytically  !
 ! A53   A(16,17,22)           109.3934         calculate D2E/DX2 analytically  !
 ! A54   A(18,17,22)           130.0275         calculate D2E/DX2 analytically  !
 ! A55   A(17,18,19)           118.6864         calculate D2E/DX2 analytically  !
 ! A56   A(17,18,40)           121.2623         calculate D2E/DX2 analytically  !
 ! A57   A(19,18,40)           120.0513         calculate D2E/DX2 analytically  !
 ! A58   A(18,19,20)           120.7708         calculate D2E/DX2 analytically  !
 ! A59   A(18,19,41)           119.6744         calculate D2E/DX2 analytically  !
 ! A60   A(20,19,41)           119.5546         calculate D2E/DX2 analytically  !
 ! A61   A(19,20,21)           120.6696         calculate D2E/DX2 analytically  !
 ! A62   A(19,20,42)           119.6268         calculate D2E/DX2 analytically  !
 ! A63   A(21,20,42)           119.7034         calculate D2E/DX2 analytically  !
 ! A64   A(16,21,20)           118.5187         calculate D2E/DX2 analytically  !
 ! A65   A(16,21,43)           121.2536         calculate D2E/DX2 analytically  !
 ! A66   A(20,21,43)           120.2276         calculate D2E/DX2 analytically  !
 ! A67   A(17,22,23)           109.3934         calculate D2E/DX2 analytically  !
 ! A68   A(17,22,27)           130.0275         calculate D2E/DX2 analytically  !
 ! A69   A(23,22,27)           120.579          calculate D2E/DX2 analytically  !
 ! A70   A(8,23,22)            110.687          calculate D2E/DX2 analytically  !
 ! A71   A(8,23,24)            128.5375         calculate D2E/DX2 analytically  !
 ! A72   A(22,23,24)           120.7754         calculate D2E/DX2 analytically  !
 ! A73   A(23,24,25)           118.5187         calculate D2E/DX2 analytically  !
 ! A74   A(23,24,44)           121.2535         calculate D2E/DX2 analytically  !
 ! A75   A(25,24,44)           120.2277         calculate D2E/DX2 analytically  !
 ! A76   A(24,25,26)           120.6696         calculate D2E/DX2 analytically  !
 ! A77   A(24,25,45)           119.7034         calculate D2E/DX2 analytically  !
 ! A78   A(26,25,45)           119.6267         calculate D2E/DX2 analytically  !
 ! A79   A(25,26,27)           120.7708         calculate D2E/DX2 analytically  !
 ! A80   A(25,26,46)           119.5547         calculate D2E/DX2 analytically  !
 ! A81   A(27,26,46)           119.6743         calculate D2E/DX2 analytically  !
 ! A82   A(22,27,26)           118.6863         calculate D2E/DX2 analytically  !
 ! A83   A(22,27,47)           121.2623         calculate D2E/DX2 analytically  !
 ! A84   A(26,27,47)           120.0513         calculate D2E/DX2 analytically  !
 ! D1    D(28,1,2,3)          -160.5712         calculate D2E/DX2 analytically  !
 ! D2    D(28,1,2,5)            30.6226         calculate D2E/DX2 analytically  !
 ! D3    D(29,1,2,3)           -30.2055         calculate D2E/DX2 analytically  !
 ! D4    D(29,1,2,5)           160.9884         calculate D2E/DX2 analytically  !
 ! D5    D(1,2,3,4)           -174.4932         calculate D2E/DX2 analytically  !
 ! D6    D(1,2,3,30)             5.0626         calculate D2E/DX2 analytically  !
 ! D7    D(5,2,3,4)             -5.4539         calculate D2E/DX2 analytically  !
 ! D8    D(5,2,3,30)           174.1019         calculate D2E/DX2 analytically  !
 ! D9    D(1,2,5,6)            174.4201         calculate D2E/DX2 analytically  !
 ! D10   D(1,2,5,32)            -5.2881         calculate D2E/DX2 analytically  !
 ! D11   D(3,2,5,6)              5.3794         calculate D2E/DX2 analytically  !
 ! D12   D(3,2,5,32)          -174.3288         calculate D2E/DX2 analytically  !
 ! D13   D(2,3,4,7)              1.2048         calculate D2E/DX2 analytically  !
 ! D14   D(2,3,4,31)           179.6504         calculate D2E/DX2 analytically  !
 ! D15   D(30,3,4,7)          -178.3571         calculate D2E/DX2 analytically  !
 ! D16   D(30,3,4,31)            0.0885         calculate D2E/DX2 analytically  !
 ! D17   D(3,4,7,6)              3.0972         calculate D2E/DX2 analytically  !
 ! D18   D(3,4,7,8)            178.3512         calculate D2E/DX2 analytically  !
 ! D19   D(31,4,7,6)          -175.2965         calculate D2E/DX2 analytically  !
 ! D20   D(31,4,7,8)            -0.0425         calculate D2E/DX2 analytically  !
 ! D21   D(2,5,6,7)             -1.0695         calculate D2E/DX2 analytically  !
 ! D22   D(2,5,6,33)           179.701          calculate D2E/DX2 analytically  !
 ! D23   D(32,5,6,7)           178.6424         calculate D2E/DX2 analytically  !
 ! D24   D(32,5,6,33)           -0.5871         calculate D2E/DX2 analytically  !
 ! D25   D(5,6,7,4)             -3.1675         calculate D2E/DX2 analytically  !
 ! D26   D(5,6,7,8)           -178.4902         calculate D2E/DX2 analytically  !
 ! D27   D(33,6,7,4)           176.0438         calculate D2E/DX2 analytically  !
 ! D28   D(33,6,7,8)             0.7211         calculate D2E/DX2 analytically  !
 ! D29   D(4,7,8,9)            144.8535         calculate D2E/DX2 analytically  !
 ! D30   D(4,7,8,16)           -88.4342         calculate D2E/DX2 analytically  !
 ! D31   D(4,7,8,23)            21.061          calculate D2E/DX2 analytically  !
 ! D32   D(6,7,8,9)            -40.0736         calculate D2E/DX2 analytically  !
 ! D33   D(6,7,8,16)            86.6386         calculate D2E/DX2 analytically  !
 ! D34   D(6,7,8,23)          -163.8662         calculate D2E/DX2 analytically  !
 ! D35   D(7,8,9,10)           144.8518         calculate D2E/DX2 analytically  !
 ! D36   D(7,8,9,15)           -40.0742         calculate D2E/DX2 analytically  !
 ! D37   D(16,8,9,10)           21.0597         calculate D2E/DX2 analytically  !
 ! D38   D(16,8,9,15)         -163.8664         calculate D2E/DX2 analytically  !
 ! D39   D(23,8,9,10)          -88.4354         calculate D2E/DX2 analytically  !
 ! D40   D(23,8,9,15)           86.6386         calculate D2E/DX2 analytically  !
 ! D41   D(7,8,16,17)          118.4948         calculate D2E/DX2 analytically  !
 ! D42   D(7,8,16,21)          -61.3942         calculate D2E/DX2 analytically  !
 ! D43   D(9,8,16,17)         -114.3854         calculate D2E/DX2 analytically  !
 ! D44   D(9,8,16,21)           65.7256         calculate D2E/DX2 analytically  !
 ! D45   D(23,8,16,17)          -0.0203         calculate D2E/DX2 analytically  !
 ! D46   D(23,8,16,21)        -179.9093         calculate D2E/DX2 analytically  !
 ! D47   D(7,8,23,22)         -114.3863         calculate D2E/DX2 analytically  !
 ! D48   D(7,8,23,24)           65.7247         calculate D2E/DX2 analytically  !
 ! D49   D(9,8,23,22)          118.4935         calculate D2E/DX2 analytically  !
 ! D50   D(9,8,23,24)          -61.3954         calculate D2E/DX2 analytically  !
 ! D51   D(16,8,23,22)          -0.0211         calculate D2E/DX2 analytically  !
 ! D52   D(16,8,23,24)        -179.91           calculate D2E/DX2 analytically  !
 ! D53   D(8,9,10,11)          178.3524         calculate D2E/DX2 analytically  !
 ! D54   D(8,9,10,34)           -0.0417         calculate D2E/DX2 analytically  !
 ! D55   D(15,9,10,11)           3.0973         calculate D2E/DX2 analytically  !
 ! D56   D(15,9,10,34)        -175.2967         calculate D2E/DX2 analytically  !
 ! D57   D(8,9,15,14)         -178.4913         calculate D2E/DX2 analytically  !
 ! D58   D(8,9,15,39)            0.7183         calculate D2E/DX2 analytically  !
 ! D59   D(10,9,15,14)          -3.1675         calculate D2E/DX2 analytically  !
 ! D60   D(10,9,15,39)         176.0421         calculate D2E/DX2 analytically  !
 ! D61   D(9,10,11,12)           1.206          calculate D2E/DX2 analytically  !
 ! D62   D(9,10,11,35)        -178.3571         calculate D2E/DX2 analytically  !
 ! D63   D(34,10,11,12)        179.6519         calculate D2E/DX2 analytically  !
 ! D64   D(34,10,11,35)          0.0889         calculate D2E/DX2 analytically  !
 ! D65   D(10,11,12,13)       -174.4942         calculate D2E/DX2 analytically  !
 ! D66   D(10,11,12,14)         -5.4564         calculate D2E/DX2 analytically  !
 ! D67   D(35,11,12,13)          5.0627         calculate D2E/DX2 analytically  !
 ! D68   D(35,11,12,14)        174.1005         calculate D2E/DX2 analytically  !
 ! D69   D(11,12,13,36)        -30.2032         calculate D2E/DX2 analytically  !
 ! D70   D(11,12,13,37)       -160.5694         calculate D2E/DX2 analytically  !
 ! D71   D(14,12,13,36)        160.9922         calculate D2E/DX2 analytically  !
 ! D72   D(14,12,13,37)         30.626          calculate D2E/DX2 analytically  !
 ! D73   D(11,12,14,15)          5.3821         calculate D2E/DX2 analytically  !
 ! D74   D(11,12,14,38)       -174.3243         calculate D2E/DX2 analytically  !
 ! D75   D(13,12,14,15)        174.4212         calculate D2E/DX2 analytically  !
 ! D76   D(13,12,14,38)         -5.2852         calculate D2E/DX2 analytically  !
 ! D77   D(12,14,15,9)          -1.0709         calculate D2E/DX2 analytically  !
 ! D78   D(12,14,15,39)        179.7012         calculate D2E/DX2 analytically  !
 ! D79   D(38,14,15,9)         178.6392         calculate D2E/DX2 analytically  !
 ! D80   D(38,14,15,39)         -0.5887         calculate D2E/DX2 analytically  !
 ! D81   D(8,16,17,18)         179.9634         calculate D2E/DX2 analytically  !
 ! D82   D(8,16,17,22)           0.0539         calculate D2E/DX2 analytically  !
 ! D83   D(21,16,17,18)         -0.1376         calculate D2E/DX2 analytically  !
 ! D84   D(21,16,17,22)        179.9529         calculate D2E/DX2 analytically  !
 ! D85   D(8,16,21,20)         179.9864         calculate D2E/DX2 analytically  !
 ! D86   D(8,16,21,43)          -0.084          calculate D2E/DX2 analytically  !
 ! D87   D(17,16,21,20)          0.1073         calculate D2E/DX2 analytically  !
 ! D88   D(17,16,21,43)       -179.9632         calculate D2E/DX2 analytically  !
 ! D89   D(16,17,18,19)          0.0799         calculate D2E/DX2 analytically  !
 ! D90   D(16,17,18,40)        179.9828         calculate D2E/DX2 analytically  !
 ! D91   D(22,17,18,19)        179.9684         calculate D2E/DX2 analytically  !
 ! D92   D(22,17,18,40)         -0.1287         calculate D2E/DX2 analytically  !
 ! D93   D(16,17,22,23)         -0.0677         calculate D2E/DX2 analytically  !
 ! D94   D(16,17,22,27)       -179.9656         calculate D2E/DX2 analytically  !
 ! D95   D(18,17,22,23)       -179.9659         calculate D2E/DX2 analytically  !
 ! D96   D(18,17,22,27)          0.1361         calculate D2E/DX2 analytically  !
 ! D97   D(17,18,19,20)          0.003          calculate D2E/DX2 analytically  !
 ! D98   D(17,18,19,41)        179.8417         calculate D2E/DX2 analytically  !
 ! D99   D(40,18,19,20)       -179.9011         calculate D2E/DX2 analytically  !
 ! D100  D(40,18,19,41)         -0.0623         calculate D2E/DX2 analytically  !
 ! D101  D(18,19,20,21)         -0.0312         calculate D2E/DX2 analytically  !
 ! D102  D(18,19,20,42)        179.7921         calculate D2E/DX2 analytically  !
 ! D103  D(41,19,20,21)       -179.8702         calculate D2E/DX2 analytically  !
 ! D104  D(41,19,20,42)         -0.0468         calculate D2E/DX2 analytically  !
 ! D105  D(19,20,21,16)         -0.0242         calculate D2E/DX2 analytically  !
 ! D106  D(19,20,21,43)       -179.9545         calculate D2E/DX2 analytically  !
 ! D107  D(42,20,21,16)       -179.8474         calculate D2E/DX2 analytically  !
 ! D108  D(42,20,21,43)          0.2223         calculate D2E/DX2 analytically  !
 ! D109  D(17,22,23,8)           0.0545         calculate D2E/DX2 analytically  !
 ! D110  D(17,22,23,24)        179.9534         calculate D2E/DX2 analytically  !
 ! D111  D(27,22,23,8)         179.9637         calculate D2E/DX2 analytically  !
 ! D112  D(27,22,23,24)         -0.1374         calculate D2E/DX2 analytically  !
 ! D113  D(17,22,27,26)        179.9688         calculate D2E/DX2 analytically  !
 ! D114  D(17,22,27,47)         -0.1289         calculate D2E/DX2 analytically  !
 ! D115  D(23,22,27,26)          0.0806         calculate D2E/DX2 analytically  !
 ! D116  D(23,22,27,47)        179.9829         calculate D2E/DX2 analytically  !
 ! D117  D(8,23,24,25)         179.9856         calculate D2E/DX2 analytically  !
 ! D118  D(8,23,24,44)          -0.0842         calculate D2E/DX2 analytically  !
 ! D119  D(22,23,24,25)          0.1065         calculate D2E/DX2 analytically  !
 ! D120  D(22,23,24,44)       -179.9633         calculate D2E/DX2 analytically  !
 ! D121  D(23,24,25,26)         -0.0239         calculate D2E/DX2 analytically  !
 ! D122  D(23,24,25,45)       -179.8469         calculate D2E/DX2 analytically  !
 ! D123  D(44,24,25,26)       -179.9548         calculate D2E/DX2 analytically  !
 ! D124  D(44,24,25,45)          0.2222         calculate D2E/DX2 analytically  !
 ! D125  D(24,25,26,27)         -0.0306         calculate D2E/DX2 analytically  !
 ! D126  D(24,25,26,46)       -179.8699         calculate D2E/DX2 analytically  !
 ! D127  D(45,25,26,27)        179.7926         calculate D2E/DX2 analytically  !
 ! D128  D(45,25,26,46)         -0.0467         calculate D2E/DX2 analytically  !
 ! D129  D(25,26,27,22)          0.0019         calculate D2E/DX2 analytically  !
 ! D130  D(25,26,27,47)       -179.9016         calculate D2E/DX2 analytically  !
 ! D131  D(46,26,27,22)        179.841          calculate D2E/DX2 analytically  !
 ! D132  D(46,26,27,47)         -0.0625         calculate D2E/DX2 analytically  !
 --------------------------------------------------------------------------------
 Trust Radius=3.00D-01 FncErr=1.00D-07 GrdErr=1.00D-06 EigMax=2.50D+02 EigMin=1.00D-04
 Number of steps in this run=    277 maximum allowed number of steps=    282.
 GradGradGradGradGradGradGradGradGradGradGradGradGradGradGradGradGradGrad

                          Input orientation:                          
 ---------------------------------------------------------------------
 Center     Atomic      Atomic             Coordinates (Angstroms)
 Number     Number       Type             X           Y           Z
 ---------------------------------------------------------------------
      1          7           0       -3.230318   -4.095847   -2.320053
      2          6           0       -2.439523   -3.137006   -1.677296
      3          6           0       -3.003129   -2.267727   -0.745137
      4          6           0       -2.250565   -1.230252   -0.179420
      5          6           0       -1.143928   -2.880006   -2.120261
      6          6           0       -0.386821   -1.844212   -1.559964
      7          6           0       -0.911072   -1.013959   -0.549342
      8          6           0       -0.067681    0.155677    0.038455
      9          6           0        1.435203   -0.191829    0.251639
     10          6           0        2.456611    0.756200    0.062367
     11          6           0        3.800411    0.433551    0.292216
     12          6           0        4.171937   -0.848409    0.693179
     13          7           0        5.500958   -1.127720    1.030165
     14          6           0        3.165388   -1.770325    0.972018
     15          6           0        1.820514   -1.453988    0.745613
     16          6           0       -0.289073    1.403699   -0.866095
     17          6           0       -0.873654    2.456684   -0.128927
     18          6           0       -1.159857    3.669785   -0.737195
     19          6           0       -0.859737    3.827756   -2.093276
     20          6           0       -0.280564    2.781577   -2.826771
     21          6           0        0.009138    1.559719   -2.217087
     22          6           0       -1.077079    2.030979    1.237038
     23          6           0       -0.625932    0.701224    1.385867
     24          6           0       -0.710492    0.053665    2.615487
     25          6           0       -1.253509    0.747531    3.698196
     26          6           0       -1.703058    2.067992    3.549067
     27          6           0       -1.616701    2.717714    2.314405
     28          1           0       -2.698669   -4.859248   -2.725513
     29          1           0       -4.010697   -4.423065   -1.759585
     30          1           0       -4.042858   -2.381574   -0.449832
     31          1           0       -2.746023   -0.579894    0.538351
     32          1           0       -0.707261   -3.481439   -2.912956
     33          1           0        0.622265   -1.685772   -1.936250
     34          1           0        2.226634    1.774676   -0.243349
     35          1           0        4.554247    1.205087    0.159281
     36          1           0        6.176718   -0.559831    0.529125
     37          1           0        5.730678   -2.115816    1.003110
     38          1           0        3.415214   -2.748125    1.374820
     39          1           0        1.070951   -2.209426    0.974534
     40          1           0       -1.609110    4.486016   -0.181567
     41          1           0       -1.079785    4.771374   -2.587014
     42          1           0       -0.057900    2.923607   -3.881739
     43          1           0        0.457756    0.755708   -2.791009
     44          1           0       -0.365695   -0.967615    2.738713
     45          1           0       -1.326462    0.261081    4.668121
     46          1           0       -2.121054    2.592246    4.405247
     47          1           0       -1.966415    3.739538    2.212623
 ---------------------------------------------------------------------
                    Distance matrix (angstroms):
                    1          2          3          4          5
     1  N    0.000000
     2  C    1.399238   0.000000
     3  C    2.423633   1.393635   0.000000
     4  C    3.708619   2.432087   1.400979   0.000000
     5  C    2.423058   1.393138   2.392171   2.777264   0.000000
     6  C    3.705815   2.428717   2.772792   2.399247   1.400004
     7  C    4.244096   2.848819   2.446829   1.406366   2.450335
     8  C    5.800024   4.405814   3.886356   2.594851   3.877336
     9  C    6.604698   5.235299   5.000171   3.853442   4.416347
    10  C    7.845982   6.492735   6.293247   5.114876   5.563249
    11  C    8.761880   7.454169   7.393319   6.293250   6.422320
    12  C    8.626633   7.387031   7.454180   6.492747   6.348326
    13  N    9.811673   8.626634   8.761896   7.846000   7.559775
    14  C    7.559817   6.348362   6.422354   5.563275   5.418835
    15  C    6.472143   5.181791   5.113907   4.180841   4.362875
    16  C    6.403898   5.089252   4.567286   3.355096   4.544649
    17  C    7.300038   6.011552   5.218663   3.935979   5.702518
    18  C    8.191294   6.989546   6.217055   5.050854   6.694243
    19  C    8.273728   7.153788   6.600495   5.583968   6.713834
    20  C    7.500451   6.404063   6.102544   5.194627   5.770449
    21  C    6.518443   5.324147   5.088196   4.128230   4.588038
    22  C    7.404547   6.087501   5.110535   3.744202   5.949260
    23  C    6.597617   5.234891   4.359692   2.969875   5.038498
    24  C    6.922971   5.621202   4.683892   3.439735   5.587629
    25  C    7.974045   6.737371   5.647669   4.465608   6.857512
    26  C    8.647080   7.412777   6.239298   5.007973   7.545634
    27  C    8.396819   7.133615   6.011456   4.712471   7.157111
    28  H    1.014805   2.032740   3.275754   4.455670   2.588619
    29  H    1.014982   2.032070   2.586460   3.973542   3.275589
    30  H    2.663958   2.155928   1.086831   2.147319   3.382685
    31  H    4.557075   3.397331   2.135937   1.087952   3.863346
    32  H    2.663615   2.155509   3.382831   3.862881   1.086631
    33  H    4.560500   3.398188   3.860170   3.398103   2.139975
    34  H    8.279738   6.924872   6.628970   5.392494   6.045623
    35  H    9.738914   8.434429   8.366143   7.235403   7.372482
    36  H   10.445743   9.260115   9.423919   8.483549   8.123688
    37  H    9.760296   8.659075   8.908357   8.116825   7.589442
    38  H    7.722145   6.613968   6.776439   6.068002   5.746195
    39  H    5.737055   4.496224   4.422533   3.650049   3.864340
    40  H    8.991652   7.812635   6.919100   5.752147   7.631069
    41  H    9.128180   8.075825   7.526003   6.571663   7.665872
    42  H    7.859760   6.874789   6.742596   5.980760   6.161508
    43  H    6.112387   4.978735   5.030356   4.254343   4.029108
    44  H    6.601743   5.339303   4.558899   3.483850   5.279442
    45  H    8.452340   7.283558   6.205598   5.155259   7.482103
    46  H    9.549382   8.362002   7.136095   5.970547   8.572197
    47  H    9.139795   7.914680   6.775719   5.522810   7.954165
                    6          7          8          9         10
     6  C    0.000000
     7  C    1.409083   0.000000
     8  C    2.579990   1.557197   0.000000
     9  C    3.054840   2.611987   1.557199   0.000000
    10  C    4.180814   3.853432   2.594850   1.406363   0.000000
    11  C    5.113872   5.000158   3.886354   2.446826   1.400975
    12  C    5.181752   5.235289   4.405816   2.848819   2.432085
    13  N    6.472100   6.604689   5.800029   4.244097   3.708617
    14  C    4.362864   4.416350   3.877339   2.450334   2.777257
    15  C    3.215632   3.054848   2.579995   1.409084   2.399244
    16  C    3.322639   2.516403   1.557172   2.601570   2.969861
    17  C    4.558791   3.496213   2.443817   3.534158   3.744182
    18  C    5.628383   4.694107   3.760777   4.756490   4.712443
    19  C    5.716581   5.082182   4.319236   5.188685   5.007936
    20  C    4.797293   4.471054   3.892325   4.611032   4.465580
    21  C    3.489318   3.201871   2.657951   3.346071   3.439720
    22  C    4.828745   3.534170   2.443817   3.496204   3.935972
    23  C    3.900556   2.601574   1.557172   2.516405   3.355107
    24  C    4.597944   3.346072   2.657952   3.201882   4.128258
    25  C    5.925920   4.611040   3.892324   4.471054   5.194643
    26  C    6.568106   5.188701   4.319237   5.082175   5.583970
    27  C    6.110197   4.756505   3.760777   4.694099   5.050849
    28  H    3.974114   4.766285   6.301673   6.909206   8.116800
    29  H    4.452281   4.763860   6.304379   7.183746   8.483535
    30  H    3.858465   3.418823   4.741107   5.941060   7.235403
    31  H    3.401067   2.176817   2.822141   4.208972   5.392505
    32  H    2.147972   3.422962   4.727420   5.042455   6.067967
    33  H    1.088554   2.173930   2.786830   2.771208   3.650003
    34  H    4.654028   4.208957   2.822137   2.176815   1.087955
    35  H    6.055426   5.941046   4.741105   3.418821   2.147317
    36  H    7.006709   7.183738   6.304381   4.763863   3.973537
    37  H    6.638291   6.909200   6.301683   4.766292   4.455670
    38  H    4.887278   5.042468   4.727419   3.422956   3.862867
    39  H    2.946551   2.771237   2.786833   2.173926   3.398094
    40  H    6.592856   5.556279   4.601766   5.598012   5.522781
    41  H    6.730603   6.136013   5.405748   6.246320   5.970506
    42  H    5.313278   5.228499   4.798901   5.387032   5.155229
    43  H    2.998061   3.167094   2.939726   3.333308   3.483846
    44  H    4.387196   3.333300   2.939726   3.167114   4.254383
    45  H    6.641101   5.387039   4.798900   5.228502   5.980782
    46  H    7.633705   6.246336   5.405745   6.136000   6.571657
    47  H    6.921401   5.598029   4.601767   5.556268   5.752135
                   11         12         13         14         15
    11  C    0.000000
    12  C    1.393637   0.000000
    13  N    2.423633   1.399240   0.000000
    14  C    2.392165   1.393134   2.423059   0.000000
    15  C    2.772790   2.428717   3.705818   1.400005   0.000000
    16  C    4.359673   5.234877   6.597601   5.038490   3.900555
    17  C    5.110510   6.087486   7.404534   5.949247   4.828738
    18  C    6.011419   7.133588   8.396790   7.157091   6.110187
    19  C    6.239246   7.412732   8.647027   7.545606   6.568094
    20  C    5.647625   6.737330   7.973993   6.857492   5.925915
    21  C    4.683867   5.621176   6.922937   5.587620   4.597946
    22  C    5.218656   6.011558   7.300051   5.702514   4.558787
    23  C    4.567300   5.089276   6.403932   4.544660   3.322644
    24  C    5.088236   5.324201   6.518514   4.588069   3.489332
    25  C    6.102573   6.404110   7.500519   5.770468   4.797296
    26  C    6.600503   7.153815   8.273771   6.713838   5.716577
    27  C    6.217053   6.989559   8.191319   6.694242   5.628379
    28  H    8.908336   8.659071   9.760292   7.589489   6.638338
    29  H    9.423906   9.260114  10.445745   8.123723   7.006744
    30  H    8.366148   8.434448   9.738941   7.372522   6.055463
    31  H    6.628986   6.924901   8.279777   6.045657   4.654059
    32  H    6.776385   6.613897   7.722059   5.746159   4.887263
    33  H    4.422466   4.496136   5.736958   3.864278   2.946509
    34  H    2.135936   3.397332   4.557076   3.863342   3.401066
    35  H    1.086834   2.155934   2.663961   3.382683   3.858465
    36  H    2.586458   2.032077   1.014983   3.275601   4.452291
    37  H    3.275755   2.032745   1.014809   2.588638   3.974129
    38  H    3.382819   2.155501   2.663612   1.086625   2.147966
    39  H    3.860160   3.398182   4.560499   2.139972   1.088548
    40  H    6.775681   7.914656   9.139770   7.954143   6.921389
    41  H    7.136035   8.361951   9.549319   8.572166   7.633693
    42  H    6.205549   7.283508   8.452275   7.482081   6.641096
    43  H    4.558883   5.339279   6.601710   5.279440   4.387205
    44  H    5.030413   4.978808   6.112479   4.029157   2.998086
    45  H    6.742634   6.874848   7.859845   6.161534   5.313284
    46  H    7.526004   8.075846   9.128220   7.665869   6.730593
    47  H    6.919089   7.812640   8.991667   7.631061   6.592849
                   16         17         18         19         20
    16  C    0.000000
    17  C    1.412066   0.000000
    18  C    2.431055   1.386909   0.000000
    19  C    2.776272   2.395558   1.397849   0.000000
    20  C    2.396429   2.781308   2.434830   1.402835   0.000000
    21  C    1.392283   2.438089   2.830020   2.431927   1.395916
    22  C    2.331867   1.445153   2.567126   3.790335   4.208607
    23  C    2.382914   2.331867   3.688472   4.683407   4.710994
    24  C    3.757872   3.651429   4.951639   6.036430   6.102829
    25  C    4.710992   4.208606   5.312347   6.571453   6.903562
    26  C    4.683407   3.790335   4.607912   5.970259   6.571454
    27  C    3.688471   2.567125   3.229151   4.607911   5.312348
    28  H    6.963339   7.974697   8.891893   8.901991   8.014967
    29  H    6.971369   7.735052   8.640995   8.838323   8.182887
    30  H    5.347193   5.792717   6.709190   7.168609   6.816364
    31  H    3.455968   3.629302   4.711976   5.469088   5.357427
    32  H    5.313106   6.560473   7.488577   7.356593   6.278126
    33  H    3.394201   4.760686   5.770242   5.711391   4.643850
    34  H    2.618056   3.176478   3.911987   4.142831   3.738176
    35  H    4.954653   5.577783   6.287240   6.423677   5.897222
    36  H    6.899894   7.696761   8.562625   8.697103   8.007717
    37  H    7.219301   8.112118   9.164132   9.399321   8.647976
    38  H    5.998423   6.909824   8.159746   8.575844   7.867004
    39  H    4.276944   5.174137   6.517028   7.041775   6.417681
    40  H    3.422244   2.159133   1.084796   2.156270   3.415736
    41  H    3.863680   3.382672   2.154470   1.087480   2.157667
    42  H    3.384918   3.868729   3.414564   2.158478   1.087524
    43  H    2.164009   3.428213   3.914929   3.414688   2.156511
    44  H    4.315512   4.495242   5.849625   6.825524   6.711058
    45  H    5.745372   5.295033   6.392532   7.658687   7.976228
    46  H    5.705773   4.704585   5.341320   6.734108   7.464940
    47  H    4.212853   2.884909   3.058893   4.446716   5.399563
                   21         22         23         24         25
    21  C    0.000000
    22  C    3.651429   0.000000
    23  C    3.757872   1.412066   0.000000
    24  C    5.112714   2.438089   1.392282   0.000000
    25  C    6.102828   2.781306   2.396428   1.395915   0.000000
    26  C    6.036430   2.395558   2.776273   2.431928   1.402837
    27  C    4.951639   1.386909   2.431057   2.830021   2.434831
    28  H    6.985259   8.112126   7.219316   7.524350   8.648034
    29  H    7.222332   7.696788   6.899916   7.076279   8.007779
    30  H    5.922470   5.577813   4.954676   5.141132   5.897279
    31  H    4.445368   3.176507   2.618078   2.976454   3.738218
    32  H    5.139138   6.909846   5.998430   6.562062   7.867014
    33  H    3.314816   5.174144   4.276939   5.051752   6.417670
    34  H    2.976430   3.629291   3.455977   4.445395   5.357444
    35  H    5.141099   5.792710   5.347209   5.922516   6.816400
    36  H    7.076243   7.735050   6.971392   7.222392   8.182939
    37  H    7.524310   7.974722   6.963384   6.985347   8.015056
    38  H    6.562062   6.560450   5.313096   5.139137   6.278110
    39  H    5.051767   4.760670   3.394185   3.314792   4.643818
    40  H    3.914752   2.884909   4.212853   5.317589   5.399563
    41  H    3.411353   4.704588   5.705777   7.032722   7.464942
    42  H    2.153079   5.295034   5.745373   7.132768   7.976227
    43  H    1.084932   4.495241   4.315511   5.575650   6.711057
    44  H    5.575650   3.428215   2.164010   1.084934   2.156513
    45  H    7.132768   3.868728   3.384917   2.153078   1.087525
    46  H    7.032719   3.382669   3.863678   3.411351   2.157667
    47  H    5.317589   2.159134   3.422247   3.914755   3.415738
                   26         27         28         29         30
    26  C    0.000000
    27  C    1.397850   0.000000
    28  H    9.399375   9.164157   0.000000
    29  H    8.697172   8.562671   1.686621   0.000000
    30  H    6.423745   6.287288   3.622765   2.425731   0.000000
    31  H    4.142884   3.912027   5.382185   4.652942   2.429884
    32  H    8.575870   8.159772   2.428826   3.623481   4.289858
    33  H    7.041774   6.517034   4.660739   5.384080   4.945397
    34  H    5.469089   4.711969   8.627207   8.922739   7.524864
    35  H    7.168620   6.709188   9.884482  10.426716   9.335168
    36  H    8.838347   8.641001  10.385093  11.133113  10.426736
    37  H    8.902055   8.891934   9.616805  10.385098   9.884516
    38  H    7.356564   7.488550   7.658272   8.232501   7.686777
    39  H    5.711362   5.770220   5.909479   6.180514   5.311261
    40  H    4.446717   3.058893   9.746423   9.361062   7.291015
    41  H    6.734110   5.341322   9.766721   9.685690   8.031937
    42  H    7.658688   6.392531   8.299599   8.608236   7.470129
    43  H    6.825523   5.849623   6.441664   6.917413   5.964828
    44  H    3.414692   3.914933   7.102488   6.742467   5.068296
    45  H    2.158479   3.414565   9.097612   8.394149   6.368350
    46  H    1.087477   2.154468  10.329866   9.528404   7.211381
    47  H    2.156271   1.084797   9.942862   9.305139   6.990587
                   31         32         33         34         35
    31  H    0.000000
    32  H    4.948438   0.000000
    33  H    4.323423   2.438445   0.000000
    34  H    5.557192   6.584929   4.173082   0.000000
    35  H    7.524878   7.686718   5.311195   2.429882   0.000000
    36  H    8.922769   8.232429   6.180434   4.652935   2.425722
    37  H    8.627255   7.658170   5.909370   5.382185   3.622766
    38  H    6.584964   5.993127   4.460083   4.948426   4.289850
    39  H    4.173119   4.460117   2.991354   4.323415   4.945390
    40  H    5.241593   8.470783   6.793300   4.697670   6.990539
    41  H    6.417190   8.267644   6.709338   5.040374   7.211301
    42  H    6.248017   6.510363   5.049151   4.447135   6.368285
    43  H    4.809644   4.396084   2.592008   3.264628   5.068273
    44  H    3.264641   6.194945   4.831883   4.809681   5.964891
    45  H    4.447178   8.477181   7.155801   6.248040   7.470175
    46  H    5.040431   9.614809   8.126612   6.417185   8.031941
    47  H    4.697709   8.944246   7.304000   5.241578   7.291000
                   36         37         38         39         40
    36  H    0.000000
    37  H    1.686625   0.000000
    38  H    3.623498   2.428859   0.000000
    39  H    5.384089   4.660755   2.438441   0.000000
    40  H    9.305093   9.942843   8.944214   7.303988   0.000000
    41  H    9.528321  10.329801   9.614781   8.126615   2.479474
    42  H    8.394076   9.097536   8.477173   7.155817   4.305653
    43  H    6.742437   7.102444   6.194961   4.831910   4.999632
    44  H    6.917495   6.441774   4.396100   2.591983   6.310008
    45  H    8.608304   8.299709   6.510349   5.049117   6.438123
    46  H    9.685707   9.766785   8.267606   6.709302   4.988718
    47  H    9.361055   9.746453   8.470750   6.793278   2.533188
                   41         42         43         44         45
    41  H    0.000000
    42  H    2.476854   0.000000
    43  H    4.304790   2.481003   0.000000
    44  H    7.861888   7.685488   5.850277   0.000000
    45  H    8.546378   9.044246   7.685487   2.481004   0.000000
    46  H    7.397605   8.546375   7.861884   4.304791   2.476854
    47  H    4.988719   6.438122   6.310006   4.999636   4.305656
                   46         47
    46  H    0.000000
    47  H    2.479474   0.000000
 Stoichiometry    C25H20N2
 Framework group  C1[X(C25H20N2)]
 Deg. of freedom   135
 Full point group                 C1      NOp   1
 Largest Abelian subgroup         C1      NOp   1
 Largest concise Abelian subgroup C1      NOp   1
                         Standard orientation:                         
 ---------------------------------------------------------------------
 Center     Atomic      Atomic             Coordinates (Angstroms)
 Number     Number       Type             X           Y           Z
 ---------------------------------------------------------------------
      1          7           0        4.905235   -2.994613   -0.078411
      2          6           0        3.690814   -2.302491   -0.141780
      3          6           0        3.599921   -1.099942   -0.840230
      4          6           0        2.423426   -0.339635   -0.817038
      5          6           0        2.624291   -2.674203    0.673813
      6          6           0        1.446202   -1.918364    0.702513
      7          6           0        1.304106   -0.748694   -0.070272
      8          6           0        0.000002    0.099385   -0.000014
      9          6           0       -1.304099   -0.748703    0.070226
     10          6           0       -2.423406   -0.339685    0.817028
     11          6           0       -3.599887   -1.100005    0.840226
     12          6           0       -3.690774   -2.302549    0.141763
     13          7           0       -4.905184   -2.994695    0.078423
     14          6           0       -2.624279   -2.674205   -0.673886
     15          6           0       -1.446197   -1.918352   -0.702592
     16          6           0        0.147247    1.101972    1.182324
     17          6           0        0.089756    2.433925    0.717001
     18          6           0        0.199318    3.495917    1.602262
     19          6           0        0.369258    3.221008    2.962235
     20          6           0        0.428211    1.898057    3.425130
     21          6           0        0.317645    0.827185    2.536542
     22          6           0       -0.089795    2.433946   -0.716955
     23          6           0       -0.147254    1.102006   -1.182321
     24          6           0       -0.317635    0.827259   -2.536550
     25          6           0       -0.428231    1.898157   -3.425101
     26          6           0       -0.369320    3.221096   -2.962163
     27          6           0       -0.199379    3.495965   -1.602181
     28          1           0        4.805461   -3.973704    0.169090
     29          1           0        5.494336   -2.860079   -0.893915
     30          1           0        4.449778   -0.732285   -1.409238
     31          1           0        2.413548    0.593252   -1.376738
     32          1           0        2.698389   -3.557019    1.303030
     33          1           0        0.639068   -2.252108    1.352206
     34          1           0       -2.413524    0.593187    1.376760
     35          1           0       -4.449738   -0.732371    1.409267
     36          1           0       -5.494285   -2.860158    0.893930
     37          1           0       -4.805397   -3.973792   -0.169065
     38          1           0       -2.698400   -3.556967   -1.303164
     39          1           0       -0.639089   -2.252049   -1.352330
     40          1           0        0.156930    4.523391    1.256886
     41          1           0        0.459531    4.041534    3.670191
     42          1           0        0.564309    1.705512    4.486785
     43          1           0        0.363478   -0.193152    2.902450
     44          1           0       -0.363440   -0.193070   -2.902490
     45          1           0       -0.564325    1.705642   -4.486763
     46          1           0       -0.459621    4.041640   -3.670089
     47          1           0       -0.157013    4.523429   -1.256772
 ---------------------------------------------------------------------
 Rotational constants (GHZ):           0.1958000           0.1797362           0.1418437
 Standard basis: 6-31G(d,p) (6D, 7F)
 There are   505 symmetry adapted cartesian basis functions of A   symmetry.
 There are   505 symmetry adapted basis functions of A   symmetry.
   505 basis functions,   896 primitive gaussians,   505 cartesian basis functions
    92 alpha electrons       92 beta electrons
       nuclear repulsion energy      2295.8839183212 Hartrees.
 NAtoms=   47 NActive=   47 NUniq=   47 SFac= 1.00D+00 NAtFMM=   60 NAOKFM=F Big=F
 Integral buffers will be    131072 words long.
 Raffenetti 2 integral format.
 Two-electron integral symmetry is turned on.
 Force inversion solution in PCM.
 ------------------------------------------------------------------------------
 Polarizable Continuum Model (PCM)
 =================================
 Model                : PCM.
 Atomic radii         : UFF (Universal Force Field).
 Polarization charges : Total charges.
 Charge compensation  : None.
 Solution method      : Matrix inversion.
 Cavity type          : Scaled VdW (van der Waals Surface) (Alpha=1.100).
 Cavity algorithm     : GePol (No added spheres)
                        Default sphere list used, NSphG=   47.
                        Lebedev-Laikov grids with approx.  5.0 points / Ang**2.
                        Smoothing algorithm: York/Karplus (Gamma=1.0000).
                        Polarization charges: spherical gaussians, with
                                              point-specific exponents (IZeta= 3).
                        Self-potential: point-specific (ISelfS= 7).
                        Self-field    : sphere-specific E.n sum rule (ISelfD= 2).
 1st derivatives      : Analytical E(r).r(x)/FMM algorithm (CHGder, D1EAlg=3).
                        Cavity 1st derivative terms included.
 2nd derivatives      : Analytical E(r).r(xy)/FMM algorithm (CHGder, D2EAlg=3).
                        Cavity 2nd derivative terms included.
 Solvent              : Water, Eps=  78.355300 Eps(inf)=   1.777849
 ------------------------------------------------------------------------------
 One-electron integrals computed using PRISM.
 NBasis=   505 RedAO= T EigKep=  3.33D-04  NBF=   505
 NBsUse=   505 1.00D-06 EigRej= -1.00D+00 NBFU=   505
 ExpMin= 1.61D-01 ExpMax= 4.17D+03 ExpMxC= 6.27D+02 IAcc=3 IRadAn=         5 AccDes= 0.00D+00
 Harris functional with IExCor=  402 and IRadAn=       5 diagonalized for initial guess.
 HarFok:  IExCor=  402 AccDes= 0.00D+00 IRadAn=         5 IDoV= 1 UseB2=F ITyADJ=14
 ICtDFT=  3500011 ScaDFX=  1.000000  1.000000  1.000000  1.000000
 FoFCou: FMM=F IPFlag=           0 FMFlag=      100000 FMFlg1=           0
         NFxFlg=           0 DoJE=T BraDBF=F KetDBF=T FulRan=T
         wScrn=  0.000000 ICntrl=       500 IOpCl=  0 I1Cent=   200000004 NGrid=           0
         NMat0=    1 NMatS0=      1 NMatT0=    0 NMatD0=    1 NMtDS0=    0 NMtDT0=    0
 Petite list used in FoFCou.
 Requested convergence on RMS density matrix=1.00D-08 within  32 cycles.
 Requested convergence on MAX density matrix=1.00D-06.
 Requested convergence on             energy=1.00D-06.
 No special actions if energy rises.
 Inv3:  Mode=1 IEnd=    33226752.
 Iteration    1 A*A^-1 deviation from unit magnitude is 4.22D-15 for    378.
 Iteration    1 A*A^-1 deviation from orthogonality  is 1.84D-15 for   3058   3001.
 Iteration    1 A^-1*A deviation from unit magnitude is 3.89D-15 for    378.
 Iteration    1 A^-1*A deviation from orthogonality  is 1.79D-14 for   3298   3294.
 Error on total polarization charges =  0.01178
 SCF Done:  E(RB3LYP) =  -1074.26855398     A.U. after   12 cycles
            NFock= 12  Conv=0.73D-08     -V/T= 2.0098
 QCSCF skips out because SCF is already converged.
 DoSCS=F DFT=T ScalE2(SS,OS)=  1.000000  1.000000
 Range of M.O.s used for correlation:     1   505
 NBasis=   505 NAE=    92 NBE=    92 NFC=     0 NFV=     0
 NROrb=    505 NOA=    92 NOB=    92 NVA=   413 NVB=   413

 **** Warning!!: The largest alpha MO coefficient is  0.10380675D+02

 Symmetrizing basis deriv contribution to polar:
 IMax=3 JMax=2 DiffMx= 0.00D+00
 G2DrvN: will do    48 centers at a time, making    1 passes.
 Calling FoFCou, ICntrl=  3107 FMM=F I1Cent=   0 AccDes= 0.00D+00.
 NEqPCM:  Using equilibrium solvation (IEInf=0, Eps=  78.3553, EpsInf=   1.7778)
 G2PCM: DoFxE=T DoFxN=T DoGrad=T DoDP/DQ/DG/TGxP=FFFF NFrqRd=   0 IEInf=0 SqF1=F DoCFld=F IF1Alg=4.
 End of G2Drv F.D. properties file   721 does not exist.
 End of G2Drv F.D. properties file   722 does not exist.
 End of G2Drv F.D. properties file   788 does not exist.
          IDoAtm=11111111111111111111111111111111111111111111111
 NEqPCM:  Using equilibrium solvation (IEInf=0, Eps=  78.3553, EpsInf=   1.7778)
          Differentiating once with respect to nuclear coordinates.
 CalDSu exits because no D1Ps are significant.
          There are   144 degrees of freedom in the 1st order CPHF.  IDoFFX=6 NUNeed=     0.
    138 vectors produced by pass  0 Test12= 3.80D-14 1.00D-09 XBig12= 1.55D-01 1.41D-01.
 AX will form   138 AO Fock derivatives at one time.
    138 vectors produced by pass  1 Test12= 3.80D-14 1.00D-09 XBig12= 1.79D-02 2.69D-02.
    138 vectors produced by pass  2 Test12= 3.80D-14 1.00D-09 XBig12= 1.52D-04 2.07D-03.
    138 vectors produced by pass  3 Test12= 3.80D-14 1.00D-09 XBig12= 4.27D-07 6.97D-05.
    138 vectors produced by pass  4 Test12= 3.80D-14 1.00D-09 XBig12= 5.53D-10 2.93D-06.
    104 vectors produced by pass  5 Test12= 3.80D-14 1.00D-09 XBig12= 6.29D-13 8.56D-08.
     24 vectors produced by pass  6 Test12= 3.80D-14 1.00D-09 XBig12= 7.16D-16 2.57D-09.
 InvSVY:  IOpt=1 It=  1 EMax= 3.89D-16
 Solved reduced A of dimension   818 with   144 vectors.
 End of Minotr F.D. properties file   721 does not exist.
 End of Minotr F.D. properties file   722 does not exist.
 End of Minotr F.D. properties file   788 does not exist.

 **********************************************************************

            Population analysis using the SCF density.

 **********************************************************************

 Orbital symmetries:
       Occupied  (A) (A) (A) (A) (A) (A) (A) (A) (A) (A) (A) (A)
                 (A) (A) (A) (A) (A) (A) (A) (A) (A) (A) (A) (A)
                 (A) (A) (A) (A) (A) (A) (A) (A) (A) (A) (A) (A)
                 (A) (A) (A) (A) (A) (A) (A) (A) (A) (A) (A) (A)
                 (A) (A) (A) (A) (A) (A) (A) (A) (A) (A) (A) (A)
                 (A) (A) (A) (A) (A) (A) (A) (A) (A) (A) (A) (A)
                 (A) (A) (A) (A) (A) (A) (A) (A) (A) (A) (A) (A)
                 (A) (A) (A) (A) (A) (A) (A) (A)
       Virtual   (A) (A) (A) (A) (A) (A) (A) (A) (A) (A) (A) (A)
                 (A) (A) (A) (A) (A) (A) (A) (A) (A) (A) (A) (A)
                 (A) (A) (A) (A) (A) (A) (A) (A) (A) (A) (A) (A)
                 (A) (A) (A) (A) (A) (A) (A) (A) (A) (A) (A) (A)
                 (A) (A) (A) (A) (A) (A) (A) (A) (A) (A) (A) (A)
                 (A) (A) (A) (A) (A) (A) (A) (A) (A) (A) (A) (A)
                 (A) (A) (A) (A) (A) (A) (A) (A) (A) (A) (A) (A)
                 (A) (A) (A) (A) (A) (A) (A) (A) (A) (A) (A) (A)
                 (A) (A) (A) (A) (A) (A) (A) (A) (A) (A) (A) (A)
                 (A) (A) (A) (A) (A) (A) (A) (A) (A) (A) (A) (A)
                 (A) (A) (A) (A) (A) (A) (A) (A) (A) (A) (A) (A)
                 (A) (A) (A) (A) (A) (A) (A) (A) (A) (A) (A) (A)
                 (A) (A) (A) (A) (A) (A) (A) (A) (A) (A) (A) (A)
                 (A) (A) (A) (A) (A) (A) (A) (A) (A) (A) (A) (A)
                 (A) (A) (A) (A) (A) (A) (A) (A) (A) (A) (A) (A)
                 (A) (A) (A) (A) (A) (A) (A) (A) (A) (A) (A) (A)
                 (A) (A) (A) (A) (A) (A) (A) (A) (A) (A) (A) (A)
                 (A) (A) (A) (A) (A) (A) (A) (A) (A) (A) (A) (A)
                 (A) (A) (A) (A) (A) (A) (A) (A) (A) (A) (A) (A)
                 (A) (A) (A) (A) (A) (A) (A) (A) (A) (A) (A) (A)
                 (A) (A) (A) (A) (A) (A) (A) (A) (A) (A) (A) (A)
                 (A) (A) (A) (A) (A) (A) (A) (A) (A) (A) (A) (A)
                 (A) (A) (A) (A) (A) (A) (A) (A) (A) (A) (A) (A)
                 (A) (A) (A) (A) (A) (A) (A) (A) (A) (A) (A) (A)
                 (A) (A) (A) (A) (A) (A) (A) (A) (A) (A) (A) (A)
                 (A) (A) (A) (A) (A) (A) (A) (A) (A) (A) (A) (A)
                 (A) (A) (A) (A) (A) (A) (A) (A) (A) (A) (A) (A)
                 (A) (A) (A) (A) (A) (A) (A) (A) (A) (A) (A) (A)
                 (A) (A) (A) (A) (A) (A) (A) (A) (A) (A) (A) (A)
                 (A) (A) (A) (A) (A) (A) (A) (A) (A) (A) (A) (A)
                 (A) (A) (A) (A) (A) (A) (A) (A) (A) (A) (A) (A)
                 (A) (A) (A) (A) (A) (A) (A) (A) (A) (A) (A) (A)
                 (A) (A) (A) (A) (A) (A) (A) (A) (A) (A) (A) (A)
                 (A) (A) (A) (A) (A) (A) (A) (A) (A) (A) (A) (A)
                 (A) (A) (A) (A) (A)
 The electronic state is 1-A.
 Alpha  occ. eigenvalues --  -14.33546 -14.33546 -10.22377 -10.22377 -10.22045
 Alpha  occ. eigenvalues --  -10.19544 -10.19544 -10.19345 -10.19345 -10.19283
 Alpha  occ. eigenvalues --  -10.19246 -10.19122 -10.19122 -10.19082 -10.19082
 Alpha  occ. eigenvalues --  -10.19039 -10.19039 -10.19027 -10.19027 -10.18773
 Alpha  occ. eigenvalues --  -10.18772 -10.18742 -10.18742 -10.18147 -10.18146
 Alpha  occ. eigenvalues --  -10.18100 -10.18100  -0.91362  -0.91326  -0.89150
 Alpha  occ. eigenvalues --   -0.84417  -0.84301  -0.83050  -0.79683  -0.77337
 Alpha  occ. eigenvalues --   -0.74421  -0.74161  -0.73784  -0.73314  -0.72013
 Alpha  occ. eigenvalues --   -0.71309  -0.66885  -0.63221  -0.61389  -0.60975
 Alpha  occ. eigenvalues --   -0.59783  -0.59062  -0.58101  -0.57292  -0.55964
 Alpha  occ. eigenvalues --   -0.51902  -0.51682  -0.50727  -0.50238  -0.50236
 Alpha  occ. eigenvalues --   -0.48696  -0.47438  -0.46724  -0.45514  -0.44044
 Alpha  occ. eigenvalues --   -0.43946  -0.43413  -0.43055  -0.42951  -0.41974
 Alpha  occ. eigenvalues --   -0.41971  -0.41307  -0.41171  -0.40814  -0.39934
 Alpha  occ. eigenvalues --   -0.38723  -0.38009  -0.37764  -0.37516  -0.35666
 Alpha  occ. eigenvalues --   -0.35165  -0.34724  -0.34688  -0.34039  -0.33657
 Alpha  occ. eigenvalues --   -0.32867  -0.32728  -0.30500  -0.29519  -0.28589
 Alpha  occ. eigenvalues --   -0.25304  -0.24902  -0.24838  -0.24385  -0.21973
 Alpha  occ. eigenvalues --   -0.20073  -0.19834
 Alpha virt. eigenvalues --   -0.03515  -0.01801  -0.00941   0.00000   0.00722
 Alpha virt. eigenvalues --    0.01814   0.02050   0.04161   0.09202   0.09458
 Alpha virt. eigenvalues --    0.10035   0.10172   0.11195   0.11419   0.12686
 Alpha virt. eigenvalues --    0.13188   0.13677   0.13864   0.15228   0.15312
 Alpha virt. eigenvalues --    0.15800   0.16217   0.16986   0.17351   0.17648
 Alpha virt. eigenvalues --    0.17756   0.19483   0.19538   0.20165   0.21065
 Alpha virt. eigenvalues --    0.21237   0.22215   0.22614   0.23245   0.24547
 Alpha virt. eigenvalues --    0.25257   0.25942   0.26475   0.26735   0.29590
 Alpha virt. eigenvalues --    0.30009   0.30657   0.32088   0.32281   0.33151
 Alpha virt. eigenvalues --    0.34015   0.34178   0.34823   0.35528   0.36673
 Alpha virt. eigenvalues --    0.37255   0.37762   0.38702   0.40160   0.41059
 Alpha virt. eigenvalues --    0.46542   0.47651   0.48166   0.49720   0.50035
 Alpha virt. eigenvalues --    0.51713   0.51923   0.52141   0.52501   0.53161
 Alpha virt. eigenvalues --    0.53922   0.54380   0.54682   0.54922   0.55922
 Alpha virt. eigenvalues --    0.56170   0.56227   0.56506   0.56867   0.57594
 Alpha virt. eigenvalues --    0.57617   0.58153   0.58659   0.58897   0.59531
 Alpha virt. eigenvalues --    0.59953   0.59956   0.60235   0.60280   0.60540
 Alpha virt. eigenvalues --    0.60602   0.61032   0.61364   0.61505   0.61851
 Alpha virt. eigenvalues --    0.62133   0.62826   0.62912   0.63791   0.64376
 Alpha virt. eigenvalues --    0.64496   0.65017   0.65658   0.67966   0.68040
 Alpha virt. eigenvalues --    0.69552   0.69991   0.70425   0.72664   0.73896
 Alpha virt. eigenvalues --    0.75140   0.76142   0.76536   0.77403   0.77437
 Alpha virt. eigenvalues --    0.78636   0.78930   0.78977   0.79571   0.80970
 Alpha virt. eigenvalues --    0.82127   0.82517   0.82550   0.82872   0.83112
 Alpha virt. eigenvalues --    0.83572   0.84508   0.84604   0.85209   0.85662
 Alpha virt. eigenvalues --    0.85865   0.86603   0.87075   0.87111   0.87972
 Alpha virt. eigenvalues --    0.88856   0.89191   0.89273   0.89361   0.90865
 Alpha virt. eigenvalues --    0.91581   0.91872   0.92238   0.93177   0.94198
 Alpha virt. eigenvalues --    0.95576   0.97990   0.98044   0.99329   0.99536
 Alpha virt. eigenvalues --    0.99659   1.00570   1.00864   1.01211   1.01548
 Alpha virt. eigenvalues --    1.02554   1.02604   1.05394   1.05588   1.09287
 Alpha virt. eigenvalues --    1.09821   1.10691   1.11120   1.12334   1.13125
 Alpha virt. eigenvalues --    1.13978   1.14812   1.15163   1.15411   1.16868
 Alpha virt. eigenvalues --    1.17812   1.18577   1.19261   1.19479   1.24354
 Alpha virt. eigenvalues --    1.24490   1.25603   1.27145   1.27275   1.27791
 Alpha virt. eigenvalues --    1.29912   1.30738   1.31151   1.33128   1.35129
 Alpha virt. eigenvalues --    1.35984   1.36568   1.38292   1.38607   1.39145
 Alpha virt. eigenvalues --    1.39762   1.40478   1.40648   1.40922   1.41259
 Alpha virt. eigenvalues --    1.41876   1.42152   1.42215   1.43080   1.43464
 Alpha virt. eigenvalues --    1.45000   1.45226   1.48955   1.49745   1.52133
 Alpha virt. eigenvalues --    1.52799   1.54203   1.55986   1.58029   1.59639
 Alpha virt. eigenvalues --    1.62996   1.66950   1.70476   1.71728   1.73880
 Alpha virt. eigenvalues --    1.75072   1.75681   1.76954   1.77533   1.77578
 Alpha virt. eigenvalues --    1.78451   1.78500   1.79173   1.80186   1.80221
 Alpha virt. eigenvalues --    1.80945   1.81067   1.82716   1.82862   1.84055
 Alpha virt. eigenvalues --    1.86774   1.86869   1.87070   1.87860   1.88161
 Alpha virt. eigenvalues --    1.89944   1.91046   1.91272   1.91595   1.93214
 Alpha virt. eigenvalues --    1.93598   1.93913   1.94062   1.94317   1.96879
 Alpha virt. eigenvalues --    1.97086   1.97326   1.97855   1.98283   1.98387
 Alpha virt. eigenvalues --    1.99437   1.99579   1.99664   2.00456   2.00551
 Alpha virt. eigenvalues --    2.01701   2.02650   2.05617   2.07756   2.08785
 Alpha virt. eigenvalues --    2.09981   2.10288   2.11209   2.12690   2.13451
 Alpha virt. eigenvalues --    2.14412   2.15168   2.16813   2.17097   2.19208
 Alpha virt. eigenvalues --    2.21178   2.22304   2.23814   2.24642   2.25046
 Alpha virt. eigenvalues --    2.25936   2.26419   2.26601   2.28649   2.29704
 Alpha virt. eigenvalues --    2.30951   2.31235   2.32850   2.32991   2.33941
 Alpha virt. eigenvalues --    2.34648   2.34963   2.35706   2.36383   2.36702
 Alpha virt. eigenvalues --    2.37020   2.37170   2.37433   2.39181   2.39463
 Alpha virt. eigenvalues --    2.40558   2.41671   2.41717   2.43968   2.44364
 Alpha virt. eigenvalues --    2.44388   2.45263   2.45844   2.46416   2.46677
 Alpha virt. eigenvalues --    2.47275   2.47328   2.48261   2.48729   2.49350
 Alpha virt. eigenvalues --    2.49518   2.49906   2.52270   2.52694   2.53144
 Alpha virt. eigenvalues --    2.53976   2.56284   2.56326   2.57160   2.57640
 Alpha virt. eigenvalues --    2.57919   2.59091   2.59844   2.59860   2.60752
 Alpha virt. eigenvalues --    2.61753   2.62600   2.62955   2.65357   2.65658
 Alpha virt. eigenvalues --    2.66116   2.67341   2.69274   2.69949   2.70776
 Alpha virt. eigenvalues --    2.72752   2.73945   2.75749   2.76800   2.77392
 Alpha virt. eigenvalues --    2.77830   2.77885   2.80573   2.81856   2.83562
 Alpha virt. eigenvalues --    2.84535   2.84538   2.87465   2.87684   2.90010
 Alpha virt. eigenvalues --    2.90150   2.91910   2.95051   2.98207   2.98745
 Alpha virt. eigenvalues --    2.99318   3.01770   3.03772   3.06029   3.08011
 Alpha virt. eigenvalues --    3.08405   3.09073   3.17757   3.18259   3.20058
 Alpha virt. eigenvalues --    3.21088   3.24378   3.24629   3.26000   3.26147
 Alpha virt. eigenvalues --    3.26715   3.28652   3.28829   3.29368   3.30032
 Alpha virt. eigenvalues --    3.31942   3.32526   3.37327   3.38258   3.38676
 Alpha virt. eigenvalues --    3.40390   3.47038   3.48624   3.48700   3.51224
 Alpha virt. eigenvalues --    3.53705   3.53875   3.79835   3.82310   3.82651
 Alpha virt. eigenvalues --    3.89887   4.04120   4.04418   4.12582   4.13676
 Alpha virt. eigenvalues --    4.14100   4.14173   4.14265   4.16400   4.17221
 Alpha virt. eigenvalues --    4.19594   4.20857   4.22464   4.25374   4.25617
 Alpha virt. eigenvalues --    4.39066   4.43270   4.44086   4.45334   4.47169
 Alpha virt. eigenvalues --    4.48439   4.53556   4.54809   4.68609   4.83359
 Alpha virt. eigenvalues --    4.83747   4.89977   4.92101
          Condensed to atoms (all electrons):
               1          2          3          4          5          6
     1  N    6.832867   0.297456  -0.070614   0.004450  -0.070610   0.004423
     2  C    0.297456   4.577376   0.536952  -0.023314   0.536010  -0.023464
     3  C   -0.070614   0.536952   4.961414   0.507230  -0.049295  -0.045758
     4  C    0.004450  -0.023314   0.507230   4.938717  -0.043497  -0.054532
     5  C   -0.070610   0.536010  -0.049295  -0.043497   4.959237   0.508782
     6  C    0.004423  -0.023464  -0.045758  -0.054532   0.508782   4.946319
     7  C    0.000607  -0.030209  -0.033258   0.528298  -0.033415   0.518541
     8  C    0.000002   0.000353   0.005879  -0.042565   0.005183  -0.051108
     9  C   -0.000000  -0.000018  -0.000076   0.004175   0.000459  -0.010315
    10  C   -0.000000   0.000000   0.000000  -0.000166   0.000003   0.000724
    11  C    0.000000  -0.000000   0.000000   0.000000  -0.000000  -0.000008
    12  C   -0.000000   0.000000  -0.000000   0.000000  -0.000000  -0.000009
    13  N   -0.000000  -0.000000   0.000000  -0.000000   0.000000   0.000000
    14  C    0.000000  -0.000000  -0.000000   0.000003  -0.000022  -0.000094
    15  C    0.000000  -0.000009  -0.000008   0.000724  -0.000094  -0.003278
    16  C    0.000000   0.000050  -0.000021   0.000056   0.000134  -0.009386
    17  C   -0.000000   0.000000  -0.000034   0.000787   0.000006  -0.000227
    18  C   -0.000000   0.000000  -0.000001  -0.000060  -0.000000  -0.000004
    19  C    0.000000  -0.000000   0.000000  -0.000002   0.000000   0.000006
    20  C    0.000000   0.000000  -0.000001  -0.000010  -0.000005   0.000002
    21  C   -0.000000   0.000007  -0.000030  -0.000336  -0.000197   0.001516
    22  C    0.000000  -0.000001   0.000060   0.001198   0.000002  -0.000194
    23  C   -0.000000  -0.000037   0.000420  -0.012990  -0.000120   0.005555
    24  C    0.000000  -0.000003   0.000017  -0.000564  -0.000005   0.000115
    25  C    0.000000   0.000000  -0.000007  -0.000177  -0.000000   0.000002
    26  C   -0.000000   0.000000  -0.000001  -0.000034  -0.000000   0.000000
    27  C    0.000000   0.000000  -0.000000  -0.000040  -0.000000   0.000003
    28  H    0.343567  -0.024903   0.005502  -0.000172  -0.009370  -0.000024
    29  H    0.343606  -0.025107  -0.009296  -0.000031   0.005526  -0.000177
    30  H   -0.007337  -0.044221   0.364068  -0.032541   0.005309   0.000664
    31  H   -0.000117   0.004158  -0.039847   0.364050   0.000479   0.005830
    32  H   -0.007300  -0.043622   0.005362   0.000638   0.363815  -0.032534
    33  H   -0.000117   0.004065   0.000589   0.005328  -0.036919   0.366054
    34  H   -0.000000  -0.000000   0.000000   0.000002   0.000000  -0.000011
    35  H    0.000000   0.000000   0.000000  -0.000000  -0.000000  -0.000000
    36  H   -0.000000  -0.000000   0.000000  -0.000000   0.000000   0.000000
    37  H    0.000000  -0.000000   0.000000  -0.000000   0.000000   0.000000
    38  H    0.000000  -0.000000  -0.000000   0.000000  -0.000001   0.000000
    39  H    0.000000   0.000008  -0.000050   0.000184  -0.000088   0.003163
    40  H    0.000000  -0.000000   0.000000   0.000001  -0.000000   0.000000
    41  H   -0.000000  -0.000000  -0.000000  -0.000000   0.000000   0.000000
    42  H    0.000000  -0.000000   0.000000   0.000000  -0.000000   0.000001
    43  H    0.000000  -0.000008  -0.000014   0.000038   0.000216   0.003713
    44  H    0.000000  -0.000001  -0.000002   0.000890  -0.000002  -0.000131
    45  H    0.000000  -0.000000  -0.000000  -0.000001   0.000000  -0.000000
    46  H    0.000000   0.000000   0.000000  -0.000000  -0.000000   0.000000
    47  H    0.000000   0.000000  -0.000000  -0.000000   0.000000  -0.000000
               7          8          9         10         11         12
     1  N    0.000607   0.000002  -0.000000  -0.000000   0.000000  -0.000000
     2  C   -0.030209   0.000353  -0.000018   0.000000  -0.000000   0.000000
     3  C   -0.033258   0.005879  -0.000076   0.000000   0.000000  -0.000000
     4  C    0.528298  -0.042565   0.004175  -0.000166   0.000000   0.000000
     5  C   -0.033415   0.005183   0.000459   0.000003  -0.000000  -0.000000
     6  C    0.518541  -0.051108  -0.010315   0.000724  -0.000008  -0.000009
     7  C    4.852559   0.297285  -0.031976   0.004175  -0.000076  -0.000018
     8  C    0.297285   5.502689   0.297283  -0.042565   0.005879   0.000353
     9  C   -0.031976   0.297283   4.852560   0.528301  -0.033259  -0.030210
    10  C    0.004175  -0.042565   0.528301   4.938713   0.507230  -0.023314
    11  C   -0.000076   0.005879  -0.033259   0.507230   4.961416   0.536950
    12  C   -0.000018   0.000353  -0.030210  -0.023314   0.536950   4.577380
    13  N   -0.000000   0.000002   0.000607   0.004450  -0.070613   0.297454
    14  C    0.000459   0.005183  -0.033414  -0.043498  -0.049294   0.536011
    15  C   -0.010314  -0.051109   0.518542  -0.054532  -0.045759  -0.023464
    16  C   -0.062889   0.280629  -0.037052  -0.012990   0.000420  -0.000037
    17  C    0.001692  -0.058609  -0.001471   0.001198   0.000060  -0.000001
    18  C   -0.000108   0.013122  -0.000163  -0.000040  -0.000000   0.000000
    19  C    0.000026  -0.000488   0.000043  -0.000034  -0.000001   0.000000
    20  C    0.000081   0.005909   0.000052  -0.000177  -0.000007   0.000000
    21  C   -0.004745  -0.075821  -0.003110  -0.000564   0.000017  -0.000003
    22  C   -0.001470  -0.058609   0.001692   0.000787  -0.000034   0.000000
    23  C   -0.037051   0.280627  -0.062889   0.000056  -0.000021   0.000050
    24  C   -0.003109  -0.075821  -0.004745  -0.000336  -0.000030   0.000007
    25  C    0.000052   0.005910   0.000081  -0.000010  -0.000001   0.000000
    26  C    0.000043  -0.000488   0.000026  -0.000002   0.000000  -0.000000
    27  C   -0.000163   0.013122  -0.000108  -0.000060  -0.000001   0.000000
    28  H   -0.000003  -0.000000  -0.000000  -0.000000   0.000000  -0.000000
    29  H    0.000003  -0.000000  -0.000000  -0.000000   0.000000  -0.000000
    30  H    0.003820  -0.000151   0.000001  -0.000000   0.000000   0.000000
    31  H   -0.037872  -0.013126   0.000181   0.000002   0.000000  -0.000000
    32  H    0.003675  -0.000146   0.000006   0.000000  -0.000000  -0.000000
    33  H   -0.043491  -0.009035   0.006380   0.000184  -0.000050   0.000008
    34  H    0.000181  -0.013127  -0.037872   0.364049  -0.039847   0.004158
    35  H    0.000001  -0.000151   0.003820  -0.032540   0.364067  -0.044221
    36  H   -0.000000  -0.000000   0.000003  -0.000031  -0.009296  -0.025107
    37  H   -0.000000  -0.000000  -0.000003  -0.000172   0.005502  -0.024902
    38  H    0.000006  -0.000146   0.003675   0.000638   0.005362  -0.043623
    39  H    0.006380  -0.009035  -0.043492   0.005328   0.000589   0.004065
    40  H    0.000002  -0.000184   0.000001  -0.000000  -0.000000   0.000000
    41  H    0.000000   0.000009   0.000000  -0.000000   0.000000   0.000000
    42  H    0.000001  -0.000146   0.000001  -0.000001  -0.000000  -0.000000
    43  H    0.000978  -0.006520   0.001299   0.000890  -0.000002  -0.000001
    44  H    0.001299  -0.006520   0.000978   0.000038  -0.000014  -0.000008
    45  H    0.000001  -0.000146   0.000001   0.000000   0.000000  -0.000000
    46  H    0.000000   0.000009   0.000000  -0.000000  -0.000000  -0.000000
    47  H    0.000001  -0.000184   0.000002   0.000001   0.000000  -0.000000
              13         14         15         16         17         18
     1  N   -0.000000   0.000000   0.000000   0.000000  -0.000000  -0.000000
     2  C   -0.000000  -0.000000  -0.000009   0.000050   0.000000   0.000000
     3  C    0.000000  -0.000000  -0.000008  -0.000021  -0.000034  -0.000001
     4  C   -0.000000   0.000003   0.000724   0.000056   0.000787  -0.000060
     5  C    0.000000  -0.000022  -0.000094   0.000134   0.000006  -0.000000
     6  C    0.000000  -0.000094  -0.003278  -0.009386  -0.000227  -0.000004
     7  C   -0.000000   0.000459  -0.010314  -0.062889   0.001692  -0.000108
     8  C    0.000002   0.005183  -0.051109   0.280629  -0.058609   0.013122
     9  C    0.000607  -0.033414   0.518542  -0.037052  -0.001471  -0.000163
    10  C    0.004450  -0.043498  -0.054532  -0.012990   0.001198  -0.000040
    11  C   -0.070613  -0.049294  -0.045759   0.000420   0.000060  -0.000000
    12  C    0.297454   0.536011  -0.023464  -0.000037  -0.000001   0.000000
    13  N    6.832870  -0.070609   0.004423  -0.000000   0.000000   0.000000
    14  C   -0.070609   4.959234   0.508782  -0.000120   0.000002  -0.000000
    15  C    0.004423   0.508782   4.946318   0.005555  -0.000194   0.000003
    16  C   -0.000000  -0.000120   0.005555   5.039339   0.469806  -0.078796
    17  C    0.000000   0.000002  -0.000194   0.469806   4.950674   0.480055
    18  C    0.000000  -0.000000   0.000003  -0.078796   0.480055   5.102293
    19  C   -0.000000  -0.000000   0.000000  -0.041444  -0.002729   0.485840
    20  C    0.000000  -0.000000   0.000002  -0.017620  -0.039715  -0.032439
    21  C    0.000000  -0.000005   0.000115   0.487069  -0.034385  -0.058896
    22  C   -0.000000   0.000006  -0.000227   0.000605   0.272387  -0.096617
    23  C    0.000000   0.000134  -0.009385  -0.078793   0.000605   0.011358
    24  C   -0.000000  -0.000197   0.001516   0.007629   0.012859  -0.000312
    25  C    0.000000  -0.000005   0.000002  -0.000295   0.000285   0.000027
    26  C    0.000000   0.000000   0.000006  -0.000346   0.008835   0.000127
[...]
   297    C   20  dxz    Ryd( 3d)     0.00030
   298    C   20  dyz    Ryd( 3d)     0.00061
   299    C   20  dx2y2  Ryd( 3d)     0.00038
   300    C   20  dz2    Ryd( 3d)     0.00064

   301    C   21  S      Cor( 1S)     1.99899
   302    C   21  S      Val( 2S)     0.93983
   303    C   21  S      Ryd( 3S)     0.00071
   304    C   21  S      Ryd( 4S)     0.00004
   305    C   21  px     Val( 2p)     1.03195
   306    C   21  px     Ryd( 3p)     0.00146
   307    C   21  py     Val( 2p)     1.18734
   308    C   21  py     Ryd( 3p)     0.00433
   309    C   21  pz     Val( 2p)     1.08281
   310    C   21  pz     Ryd( 3p)     0.00410
   311    C   21  dxy    Ryd( 3d)     0.00033
   312    C   21  dxz    Ryd( 3d)     0.00077
   313    C   21  dyz    Ryd( 3d)     0.00061
   314    C   21  dx2y2  Ryd( 3d)     0.00052
   315    C   21  dz2    Ryd( 3d)     0.00060

   316    C   22  S      Cor( 1S)     1.99896
   317    C   22  S      Val( 2S)     0.84800
   318    C   22  S      Ryd( 3S)     0.00064
   319    C   22  S      Ryd( 4S)     0.00007
   320    C   22  px     Val( 2p)     1.08204
   321    C   22  px     Ryd( 3p)     0.00179
   322    C   22  py     Val( 2p)     1.09028
   323    C   22  py     Ryd( 3p)     0.00576
   324    C   22  pz     Val( 2p)     1.07363
   325    C   22  pz     Ryd( 3p)     0.00479
   326    C   22  dxy    Ryd( 3d)     0.00052
   327    C   22  dxz    Ryd( 3d)     0.00085
   328    C   22  dyz    Ryd( 3d)     0.00067
   329    C   22  dx2y2  Ryd( 3d)     0.00042
   330    C   22  dz2    Ryd( 3d)     0.00062

   331    C   23  S      Cor( 1S)     1.99899
   332    C   23  S      Val( 2S)     0.85133
   333    C   23  S      Ryd( 3S)     0.00144
   334    C   23  S      Ryd( 4S)     0.00005
   335    C   23  px     Val( 2p)     1.07228
   336    C   23  px     Ryd( 3p)     0.00287
   337    C   23  py     Val( 2p)     1.03571
   338    C   23  py     Ryd( 3p)     0.00541
   339    C   23  pz     Val( 2p)     1.06526
   340    C   23  pz     Ryd( 3p)     0.00413
   341    C   23  dxy    Ryd( 3d)     0.00063
   342    C   23  dxz    Ryd( 3d)     0.00059
   343    C   23  dyz    Ryd( 3d)     0.00074
   344    C   23  dx2y2  Ryd( 3d)     0.00043
   345    C   23  dz2    Ryd( 3d)     0.00069

   346    C   24  S      Cor( 1S)     1.99899
   347    C   24  S      Val( 2S)     0.93983
   348    C   24  S      Ryd( 3S)     0.00071
   349    C   24  S      Ryd( 4S)     0.00004
   350    C   24  px     Val( 2p)     1.03195
   351    C   24  px     Ryd( 3p)     0.00146
   352    C   24  py     Val( 2p)     1.18734
   353    C   24  py     Ryd( 3p)     0.00433
   354    C   24  pz     Val( 2p)     1.08281
   355    C   24  pz     Ryd( 3p)     0.00410
   356    C   24  dxy    Ryd( 3d)     0.00033
   357    C   24  dxz    Ryd( 3d)     0.00077
   358    C   24  dyz    Ryd( 3d)     0.00061
   359    C   24  dx2y2  Ryd( 3d)     0.00052
   360    C   24  dz2    Ryd( 3d)     0.00060

   361    C   25  S      Cor( 1S)     1.99913
   362    C   25  S      Val( 2S)     0.94665
   363    C   25  S      Ryd( 3S)     0.00058
   364    C   25  S      Ryd( 4S)     0.00003
   365    C   25  px     Val( 2p)     1.15435
   366    C   25  px     Ryd( 3p)     0.00351
   367    C   25  py     Val( 2p)     1.06129
   368    C   25  py     Ryd( 3p)     0.00504
   369    C   25  pz     Val( 2p)     1.18029
   370    C   25  pz     Ryd( 3p)     0.00457
   371    C   25  dxy    Ryd( 3d)     0.00044
   372    C   25  dxz    Ryd( 3d)     0.00030
   373    C   25  dyz    Ryd( 3d)     0.00061
   374    C   25  dx2y2  Ryd( 3d)     0.00038
   375    C   25  dz2    Ryd( 3d)     0.00064

   376    C   26  S      Cor( 1S)     1.99913
   377    C   26  S      Val( 2S)     0.95840
   378    C   26  S      Ryd( 3S)     0.00051
   379    C   26  S      Ryd( 4S)     0.00003
   380    C   26  px     Val( 2p)     1.01355
   381    C   26  px     Ryd( 3p)     0.00102
   382    C   26  py     Val( 2p)     1.14002
   383    C   26  py     Ryd( 3p)     0.00490
   384    C   26  pz     Val( 2p)     1.11786
   385    C   26  pz     Ryd( 3p)     0.00453
   386    C   26  dxy    Ryd( 3d)     0.00053
   387    C   26  dxz    Ryd( 3d)     0.00060
   388    C   26  dyz    Ryd( 3d)     0.00077
   389    C   26  dx2y2  Ryd( 3d)     0.00043
   390    C   26  dz2    Ryd( 3d)     0.00053

   391    C   27  S      Cor( 1S)     1.99904
   392    C   27  S      Val( 2S)     0.93788
   393    C   27  S      Ryd( 3S)     0.00064
   394    C   27  S      Ryd( 4S)     0.00005
   395    C   27  px     Val( 2p)     1.09660
   396    C   27  px     Ryd( 3p)     0.00261
   397    C   27  py     Val( 2p)     1.17587
   398    C   27  py     Ryd( 3p)     0.00450
   399    C   27  pz     Val( 2p)     1.07597
   400    C   27  pz     Ryd( 3p)     0.00361
   401    C   27  dxy    Ryd( 3d)     0.00031
   402    C   27  dxz    Ryd( 3d)     0.00053
   403    C   27  dyz    Ryd( 3d)     0.00071
   404    C   27  dx2y2  Ryd( 3d)     0.00049
   405    C   27  dz2    Ryd( 3d)     0.00051

   406    H   28  S      Val( 1S)     0.56575
   407    H   28  S      Ryd( 2S)     0.00090
   408    H   28  px     Ryd( 2p)     0.00026
   409    H   28  py     Ryd( 2p)     0.00063
   410    H   28  pz     Ryd( 2p)     0.00034

   411    H   29  S      Val( 1S)     0.56553
   412    H   29  S      Ryd( 2S)     0.00088
   413    H   29  px     Ryd( 2p)     0.00040
   414    H   29  py     Ryd( 2p)     0.00023
   415    H   29  pz     Ryd( 2p)     0.00060

   416    H   30  S      Val( 1S)     0.74010
   417    H   30  S      Ryd( 2S)     0.00077
   418    H   30  px     Ryd( 2p)     0.00026
   419    H   30  py     Ryd( 2p)     0.00011
   420    H   30  pz     Ryd( 2p)     0.00021

   421    H   31  S      Val( 1S)     0.73195
   422    H   31  S      Ryd( 2S)     0.00088
   423    H   31  px     Ryd( 2p)     0.00009
   424    H   31  py     Ryd( 2p)     0.00031
   425    H   31  pz     Ryd( 2p)     0.00021

   426    H   32  S      Val( 1S)     0.73980
   427    H   32  S      Ryd( 2S)     0.00078
   428    H   32  px     Ryd( 2p)     0.00006
   429    H   32  py     Ryd( 2p)     0.00031
   430    H   32  pz     Ryd( 2p)     0.00021

   431    H   33  S      Val( 1S)     0.73863
   432    H   33  S      Ryd( 2S)     0.00081
   433    H   33  px     Ryd( 2p)     0.00027
   434    H   33  py     Ryd( 2p)     0.00011
   435    H   33  pz     Ryd( 2p)     0.00021

   436    H   34  S      Val( 1S)     0.73195
   437    H   34  S      Ryd( 2S)     0.00088
   438    H   34  px     Ryd( 2p)     0.00009
   439    H   34  py     Ryd( 2p)     0.00031
   440    H   34  pz     Ryd( 2p)     0.00021

   441    H   35  S      Val( 1S)     0.74010
   442    H   35  S      Ryd( 2S)     0.00077
   443    H   35  px     Ryd( 2p)     0.00026
   444    H   35  py     Ryd( 2p)     0.00011
   445    H   35  pz     Ryd( 2p)     0.00021

   446    H   36  S      Val( 1S)     0.56553
   447    H   36  S      Ryd( 2S)     0.00088
   448    H   36  px     Ryd( 2p)     0.00040
   449    H   36  py     Ryd( 2p)     0.00023
   450    H   36  pz     Ryd( 2p)     0.00060

   451    H   37  S      Val( 1S)     0.56575
   452    H   37  S      Ryd( 2S)     0.00090
   453    H   37  px     Ryd( 2p)     0.00026
   454    H   37  py     Ryd( 2p)     0.00063
   455    H   37  pz     Ryd( 2p)     0.00034

   456    H   38  S      Val( 1S)     0.73980
   457    H   38  S      Ryd( 2S)     0.00078
   458    H   38  px     Ryd( 2p)     0.00006
   459    H   38  py     Ryd( 2p)     0.00031
   460    H   38  pz     Ryd( 2p)     0.00021

   461    H   39  S      Val( 1S)     0.73863
   462    H   39  S      Ryd( 2S)     0.00081
   463    H   39  px     Ryd( 2p)     0.00027
   464    H   39  py     Ryd( 2p)     0.00011
   465    H   39  pz     Ryd( 2p)     0.00021

   466    H   40  S      Val( 1S)     0.77214
   467    H   40  S      Ryd( 2S)     0.00084
   468    H   40  px     Ryd( 2p)     0.00016
   469    H   40  py     Ryd( 2p)     0.00037
   470    H   40  pz     Ryd( 2p)     0.00009

   471    H   41  S      Val( 1S)     0.76992
   472    H   41  S      Ryd( 2S)     0.00074
   473    H   41  px     Ryd( 2p)     0.00013
   474    H   41  py     Ryd( 2p)     0.00027
   475    H   41  pz     Ryd( 2p)     0.00022

   476    H   42  S      Val( 1S)     0.77416
   477    H   42  S      Ryd( 2S)     0.00063
   478    H   42  px     Ryd( 2p)     0.00019
   479    H   42  py     Ryd( 2p)     0.00007
   480    H   42  pz     Ryd( 2p)     0.00038

   481    H   43  S      Val( 1S)     0.76822
   482    H   43  S      Ryd( 2S)     0.00096
   483    H   43  px     Ryd( 2p)     0.00014
   484    H   43  py     Ryd( 2p)     0.00037
   485    H   43  pz     Ryd( 2p)     0.00011

   486    H   44  S      Val( 1S)     0.76822
   487    H   44  S      Ryd( 2S)     0.00096
   488    H   44  px     Ryd( 2p)     0.00014
   489    H   44  py     Ryd( 2p)     0.00037
   490    H   44  pz     Ryd( 2p)     0.00011

   491    H   45  S      Val( 1S)     0.77416
   492    H   45  S      Ryd( 2S)     0.00063
   493    H   45  px     Ryd( 2p)     0.00019
   494    H   45  py     Ryd( 2p)     0.00007
   495    H   45  pz     Ryd( 2p)     0.00038

   496    H   46  S      Val( 1S)     0.76992
   497    H   46  S      Ryd( 2S)     0.00074
   498    H   46  px     Ryd( 2p)     0.00013
   499    H   46  py     Ryd( 2p)     0.00027
   500    H   46  pz     Ryd( 2p)     0.00022

   501    H   47  S      Val( 1S)     0.77214
   502    H   47  S      Ryd( 2S)     0.00084
   503    H   47  px     Ryd( 2p)     0.00016
   504    H   47  py     Ryd( 2p)     0.00037
   505    H   47  pz     Ryd( 2p)     0.00009

 WARNING:  1 low occupancy (<1.9990e) core orbital  found on  C    2
           1 low occupancy (<1.9990e) core orbital  found on  C    7
           1 low occupancy (<1.9990e) core orbital  found on  C    8
           1 low occupancy (<1.9990e) core orbital  found on  C    9
           1 low occupancy (<1.9990e) core orbital  found on  C   12
           1 low occupancy (<1.9990e) core orbital  found on  C   16
           1 low occupancy (<1.9990e) core orbital  found on  C   17
           1 low occupancy (<1.9990e) core orbital  found on  C   21
           1 low occupancy (<1.9990e) core orbital  found on  C   22
           1 low occupancy (<1.9990e) core orbital  found on  C   23
           1 low occupancy (<1.9990e) core orbital  found on  C   24


 Summary of Natural Population Analysis:                  
                                                          
                                       Natural Population 
                Natural  -----------------------------------------------
    Atom  No    Charge         Core      Valence    Rydberg      Total
 -----------------------------------------------------------------------
      N    1   -0.76817      1.99949     5.75818    0.01050     7.76817
      C    2    0.19741      1.99897     3.78688    0.01674     5.80259
      C    3   -0.24208      1.99905     4.23017    0.01287     6.24208
      C    4   -0.21404      1.99904     4.20196    0.01304     6.21404
      C    5   -0.25552      1.99904     4.24337    0.01311     6.25552
      C    6   -0.21553      1.99905     4.20338    0.01310     6.21553
      C    7    0.03441      1.99900     3.94935    0.01725     5.96559
      C    8   -0.10165      1.99894     4.08402    0.01869     6.10165
      C    9    0.03441      1.99900     3.94935    0.01725     5.96559
      C   10   -0.21404      1.99904     4.20196    0.01304     6.21404
      C   11   -0.24208      1.99905     4.23017    0.01287     6.24208
      C   12    0.19741      1.99897     3.78688    0.01674     5.80259
      N   13   -0.76817      1.99949     5.75818    0.01050     7.76817
      C   14   -0.25552      1.99904     4.24337    0.01311     6.25552
      C   15   -0.21553      1.99905     4.20338    0.01310     6.21553
      C   16   -0.04056      1.99899     4.02458    0.01699     6.04056
      C   17   -0.10906      1.99896     4.09395    0.01615     6.10906
      C   18   -0.29931      1.99904     4.28632    0.01395     6.29931
      C   19   -0.24282      1.99913     4.22982    0.01387     6.24282
      C   20   -0.35780      1.99913     4.34258    0.01609     6.35780
      C   21   -0.25439      1.99899     4.24193    0.01347     6.25439
      C   22   -0.10906      1.99896     4.09395    0.01615     6.10906
      C   23   -0.04056      1.99899     4.02458    0.01699     6.04056
      C   24   -0.25439      1.99899     4.24193    0.01347     6.25439
      C   25   -0.35780      1.99913     4.34258    0.01609     6.35780
      C   26   -0.24282      1.99913     4.22982    0.01387     6.24282
      C   27   -0.29931      1.99904     4.28632    0.01395     6.29931
      H   28    0.43212      0.00000     0.56575    0.00213     0.56788
      H   29    0.43236      0.00000     0.56553    0.00211     0.56764
      H   30    0.25855      0.00000     0.74010    0.00135     0.74145
      H   31    0.26657      0.00000     0.73195    0.00148     0.73343
      H   32    0.25884      0.00000     0.73980    0.00136     0.74116
      H   33    0.25996      0.00000     0.73863    0.00140     0.74004
      H   34    0.26657      0.00000     0.73195    0.00148     0.73343
      H   35    0.25855      0.00000     0.74010    0.00135     0.74145
      H   36    0.43236      0.00000     0.56553    0.00211     0.56764
      H   37    0.43212      0.00000     0.56575    0.00213     0.56788
      H   38    0.25884      0.00000     0.73980    0.00136     0.74116
      H   39    0.25996      0.00000     0.73863    0.00140     0.74004
      H   40    0.22641      0.00000     0.77214    0.00145     0.77359
      H   41    0.22872      0.00000     0.76992    0.00136     0.77128
      H   42    0.22457      0.00000     0.77416    0.00127     0.77543
      H   43    0.23020      0.00000     0.76822    0.00158     0.76980
      H   44    0.23020      0.00000     0.76822    0.00158     0.76980
      H   45    0.22457      0.00000     0.77416    0.00127     0.77543
      H   46    0.22872      0.00000     0.76992    0.00136     0.77128
      H   47    0.22641      0.00000     0.77214    0.00145     0.77359
 =======================================================================
   * Total *   -0.00000     53.97467   129.60138    0.42395   184.00000

                                 Natural Population      
 --------------------------------------------------------
   Core                      53.97467 ( 99.9531% of  54)
   Valence                  129.60138 ( 99.6934% of 130)
   Natural Minimal Basis    183.57605 ( 99.7696% of 184)
   Natural Rydberg Basis      0.42395 (  0.2304% of 184)
 --------------------------------------------------------

    Atom  No          Natural Electron Configuration
 ----------------------------------------------------------------------------
      N    1      [core]2S( 1.37)2p( 4.39)3p( 0.01)
      C    2      [core]2S( 0.85)2p( 2.93)3p( 0.01)
      C    3      [core]2S( 0.96)2p( 3.27)3p( 0.01)
      C    4      [core]2S( 0.95)2p( 3.25)3p( 0.01)
      C    5      [core]2S( 0.96)2p( 3.28)3p( 0.01)
      C    6      [core]2S( 0.95)2p( 3.25)3p( 0.01)
      C    7      [core]2S( 0.88)2p( 3.07)3p( 0.01)
      C    8      [core]2S( 0.89)2p( 3.20)3p( 0.01)
      C    9      [core]2S( 0.88)2p( 3.07)3p( 0.01)
      C   10      [core]2S( 0.95)2p( 3.25)3p( 0.01)
      C   11      [core]2S( 0.96)2p( 3.27)3p( 0.01)
      C   12      [core]2S( 0.85)2p( 2.93)3p( 0.01)
      N   13      [core]2S( 1.37)2p( 4.39)3p( 0.01)
      C   14      [core]2S( 0.96)2p( 3.28)3p( 0.01)
      C   15      [core]2S( 0.95)2p( 3.25)3p( 0.01)
      C   16      [core]2S( 0.85)2p( 3.17)3p( 0.01)
      C   17      [core]2S( 0.85)2p( 3.25)3p( 0.01)
      C   18      [core]2S( 0.94)2p( 3.35)3p( 0.01)
      C   19      [core]2S( 0.96)2p( 3.27)3p( 0.01)
      C   20      [core]2S( 0.95)2p( 3.40)3p( 0.01)
      C   21      [core]2S( 0.94)2p( 3.30)3p( 0.01)
      C   22      [core]2S( 0.85)2p( 3.25)3p( 0.01)
      C   23      [core]2S( 0.85)2p( 3.17)3p( 0.01)
      C   24      [core]2S( 0.94)2p( 3.30)3p( 0.01)
      C   25      [core]2S( 0.95)2p( 3.40)3p( 0.01)
      C   26      [core]2S( 0.96)2p( 3.27)3p( 0.01)
      C   27      [core]2S( 0.94)2p( 3.35)3p( 0.01)
      H   28            1S( 0.57)
      H   29            1S( 0.57)
      H   30            1S( 0.74)
      H   31            1S( 0.73)
      H   32            1S( 0.74)
      H   33            1S( 0.74)
      H   34            1S( 0.73)
      H   35            1S( 0.74)
      H   36            1S( 0.57)
      H   37            1S( 0.57)
      H   38            1S( 0.74)
      H   39            1S( 0.74)
      H   40            1S( 0.77)
      H   41            1S( 0.77)
      H   42            1S( 0.77)
      H   43            1S( 0.77)
      H   44            1S( 0.77)
      H   45            1S( 0.77)
      H   46            1S( 0.77)
      H   47            1S( 0.77)


 NBO analysis skipped by request.
 1\1\GINC-DRG2-W002\SP\RB3LYP TD-FC\6-31G(d,p)\C25H20N2\QDUEZ\18-Jul-20
 24\0\\# TD(NStates=10, Root=1) B3LYP/6-31G** SCRF=(Solvent=water) volu
 me pop=NPA density=current Geom=AllCheck Guess=Read\\KIFDSGGWDIVQGN-UH
 FFFAOYSA-N_conf_3\\0,1\N,0,-3.2330520504,-4.036522619,-2.3748341913\C,
 0,-2.452450898,-3.0684669266,-1.7411004046\C,0,-2.9813534335,-2.262958
 2724,-0.7184332231\C,0,-2.2153312293,-1.2568215999,-0.1327542182\C,0,-
 1.1282340051,-2.8252767064,-2.1483969081\C,0,-0.3737855796,-1.81837651
 93,-1.5534519742\C,0,-0.893652008,-1.0101582065,-0.5292760142\C,0,-0.0
 721797656,0.1660497666,0.0410009594\C,0,1.4169702122,-0.1937353718,0.2
 320103916\C,0,2.4425116464,0.7341937186,0.0037107737\C,0,3.777329774,0
 .4318149243,0.2662912276\C,0,4.1442413201,-0.823497969,0.7800963878\N,
 0,5.4709965992,-1.1118705656,1.1035931924\C,0,3.1211957169,-1.75953343
 74,1.0163113893\C,0,1.7923296335,-1.4449854399,0.7476583565\C,0,-0.285
 8279803,1.3982763925,-0.8604668835\C,0,-0.8758227473,2.4556915289,-0.1
 417299412\C,0,-1.1796236403,3.6654843368,-0.7721012801\C,0,-0.88641618
 32,3.8108089667,-2.1299583224\C,0,-0.300513763,2.760241965,-2.84587437
 46\C,0,-0.0005151088,1.5474217358,-2.2142956319\C,0,-1.0726773101,2.02
 68319366,1.2485548378\C,0,-0.6253727682,0.6979417627,1.3780651137\C,0,
 -0.6956477167,0.0541033588,2.6097442859\C,0,-1.2214519986,0.741042141,
 3.7104117091\C,0,-1.6663641066,2.0618617884,3.5800385853\C,0,-1.593930
 615,2.7150756337,2.3475895292\H,0,-2.7085321418,-4.7881561083,-2.80421
 20717\H,0,-3.994908672,-4.3989464604,-1.8156410047\H,0,-4.000932003,-2
 .4286046454,-0.37943992\H,0,-2.662368732,-0.6577102875,0.6534493264\H,
 0,-0.6898649406,-3.4342467836,-2.9350723894\H,0,0.6485925934,-1.670446
 4959,-1.8867121418\H,0,2.2026560047,1.7152809758,-0.3923068952\H,0,4.5
 456384083,1.1755084062,0.0700325228\H,0,6.158553906,-0.5785184028,0.58
 66077054\H,0,5.7015998899,-2.0973964842,1.104028109\H,0,3.3740371768,-
 2.7406940743,1.4103485812\H,0,1.033405688,-2.198992529,0.9312625833\H,
 0,-1.636981585,4.4812136682,-0.219319618\H,0,-1.1161511806,4.744763680
 2,-2.6343422447\H,0,-0.0784074932,2.8854673736,-3.9015466144\H,0,0.447
 4264361,0.7361773553,-2.7802515698\H,0,-0.3467005895,-0.9678927365,2.7
 230363415\H,0,-1.2821998253,0.2446129233,4.6744263401\H,0,-2.069069922
 2,2.5828366838,4.443673868\H,0,-1.9371650104,3.7411076215,2.2495757136
 \\Version=ES64L-G16RevA.03\State=1-A\HF=-1074.2736853\RMSD=6.683e-09\D
 ipole=2.9533037,-6.7940173,-1.677573\Quadrupole=27.0248285,2.4053971,-
 29.4302256,10.0663232,5.9419175,9.9712084\PG=C01 [X(C25H20N2)]\\@


 HE THAT IS UNAWARE OF HIS IGNORANCE WILL BE MISLED BY HIS KNOWLEDGE.

                                        -- WHATLEY
 Job cpu time:       0 days  3 hours  9 minutes 10.9 seconds.
 Elapsed time:       0 days  1 hours  3 minutes 13.4 seconds.
 File lengths (MBytes):  RWF=   1955 Int=      0 D2E=      0 Chk=    123 Scr=      1
 Normal termination of Gaussian 16 at Thu Jul 18 09:17:13 2024.
