 Entering Gaussian System, Link 0=g16
 Initial command:
 /opt/sw/arch/manual/gaussian/G16_A03/g16/l1.exe "/scratch/1380903/Gau-84699.inp" -scrdir="/scratch/1380903/"
 Entering Link 1 = /opt/sw/arch/manual/gaussian/G16_A03/g16/l1.exe PID=     84700.
  
 Copyright (c) 1988,1990,1992,1993,1995,1998,2003,2009,2016,
            Gaussian, Inc.  All Rights Reserved.
  
 This is part of the Gaussian(R) 16 program.  It is based on
 the Gaussian(R) 09 system (copyright 2009, Gaussian, Inc.),
 the Gaussian(R) 03 system (copyright 2003, Gaussian, Inc.),
 the Gaussian(R) 98 system (copyright 1998, Gaussian, Inc.),
 the Gaussian(R) 94 system (copyright 1995, Gaussian, Inc.),
 the Gaussian 92(TM) system (copyright 1992, Gaussian, Inc.),
 the Gaussian 90(TM) system (copyright 1990, Gaussian, Inc.),
 the Gaussian 88(TM) system (copyright 1988, Gaussian, Inc.),
 the Gaussian 86(TM) system (copyright 1986, Carnegie Mellon
 University), and the Gaussian 82(TM) system (copyright 1983,
 Carnegie Mellon University). Gaussian is a federally registered
 trademark of Gaussian, Inc.
  
 This software contains proprietary and confidential information,
 including trade secrets, belonging to Gaussian, Inc.
  
 This software is provided under written license and may be
 used, copied, transmitted, or stored only in accord with that
 written license.
  
 The following legend is applicable only to US Government
 contracts under FAR:
  
                    RESTRICTED RIGHTS LEGEND
  
 Use, reproduction and disclosure by the US Government is
 subject to restrictions as set forth in subparagraphs (a)
 and (c) of the Commercial Computer Software - Restricted
 Rights clause in FAR 52.227-19.
  
 Gaussian, Inc.
 340 Quinnipiac St., Bldg. 40, Wallingford CT 06492
  
  
 ---------------------------------------------------------------
 Warning -- This program may not be used in any manner that
 competes with the business of Gaussian, Inc. or will provide
 assistance to any competitor of Gaussian, Inc.  The licensee
 of this program is prohibited from giving any competitor of
 Gaussian, Inc. access to this program.  By using this program,
 the user acknowledges that Gaussian, Inc. is engaged in the
 business of creating and licensing software in the field of
 computational chemistry and represents and warrants to the
 licensee that it is not a competitor of Gaussian, Inc. and that
 it will not use this program in any manner prohibited above.
 ---------------------------------------------------------------
  

 Cite this work as:
 Gaussian 16, Revision A.03,
 M. J. Frisch, G. W. Trucks, H. B. Schlegel, G. E. Scuseria, 
 M. A. Robb, J. R. Cheeseman, G. Scalmani, V. Barone, 
 G. A. Petersson, H. Nakatsuji, X. Li, M. Caricato, A. V. Marenich, 
 J. Bloino, B. G. Janesko, R. Gomperts, B. Mennucci, H. P. Hratchian, 
 J. V. Ortiz, A. F. Izmaylov, J. L. Sonnenberg, D. Williams-Young, 
 F. Ding, F. Lipparini, F. Egidi, J. Goings, B. Peng, A. Petrone, 
 T. Henderson, D. Ranasinghe, V. G. Zakrzewski, J. Gao, N. Rega, 
 G. Zheng, W. Liang, M. Hada, M. Ehara, K. Toyota, R. Fukuda, 
 J. Hasegawa, M. Ishida, T. Nakajima, Y. Honda, O. Kitao, H. Nakai, 
 T. Vreven, K. Throssell, J. A. Montgomery, Jr., J. E. Peralta, 
 F. Ogliaro, M. J. Bearpark, J. J. Heyd, E. N. Brothers, K. N. Kudin, 
 V. N. Staroverov, T. A. Keith, R. Kobayashi, J. Normand, 
 K. Raghavachari, A. P. Rendell, J. C. Burant, S. S. Iyengar, 
 J. Tomasi, M. Cossi, J. M. Millam, M. Klene, C. Adamo, R. Cammi, 
 J. W. Ochterski, R. L. Martin, K. Morokuma, O. Farkas, 
 J. B. Foresman, and D. J. Fox, Gaussian, Inc., Wallingford CT, 2016.
 
 ******************************************
 Gaussian 16:  ES64L-G16RevA.03 25-Dec-2016
                18-Jul-2024 
 ******************************************
 %nprocshared=7
 Will use up to    7 processors via shared memory.
 %mem=14GB
 %Chk=KIFDSGGWDIVQGN-UHFFFAOYSA-N_conf_4_0.chk
 -------------------------------------------------------
 # opt=CalcFc B3LYP/6-31G** SCRF=(Solvent=water) scf=xqc
 -------------------------------------------------------
 1/10=4,18=20,19=15,26=3,38=1/1,3;
 2/9=110,12=2,17=6,18=5,40=1/2;
 3/5=1,6=6,7=101,11=2,25=1,30=1,70=2201,71=2,72=1,74=-5,140=1/1,2,3;
 4//1;
 5/5=2,8=3,13=1,38=5,53=1/2,8;
 8/6=4,10=90,11=11/1;
 11/6=1,8=1,9=11,15=111,16=1/1,2,10;
 10/6=1,13=1/2;
 6/7=2,8=2,9=2,10=2,28=1/1;
 7/10=1,18=20,25=1/1,2,3,16;
 1/10=4,18=20,19=15,26=3/3(2);
 2/9=110/2;
 99//99;
 2/9=110/2;
 3/5=1,6=6,7=101,11=2,25=1,30=1,70=2205,71=1,72=1,74=-5/1,2,3;
 4/5=5,16=3,69=1/1;
 5/5=2,8=3,13=1,38=5,53=1/2,8;
 7//1,2,3,16;
 1/18=20,19=15,26=3/3(-5);
 2/9=110/2;
 6/7=2,8=2,9=2,10=2,19=2,28=1/1;
 99/9=1/99;
 ----------------------------------
 KIFDSGGWDIVQGN-UHFFFAOYSA-N_conf_4
 ----------------------------------
 Symbolic Z-matrix:
 Charge =  0 Multiplicity = 1
 N                    -4.20559  -3.78332   0.75184 
 C                    -3.23854  -2.77863   0.63491 
 C                    -3.40863  -1.73833  -0.27672 
 C                    -2.39701  -0.79261  -0.48859 
 C                    -2.00243  -2.9128    1.26309 
 C                    -0.98765  -1.97097   1.05615 
 C                    -1.1545   -0.89408   0.16228 
 C                    -0.02637   0.16284  -0.02885 
 C                     1.40752  -0.44186  -0.07195 
 C                     2.51993   0.23183   0.46339 
 C                     3.80792  -0.31362   0.38423 
 C                     4.02547  -1.55649  -0.20762 
 N                     5.32707  -2.03887  -0.38383 
 C                     2.94892  -2.19247  -0.82199 
 C                     1.65947  -1.65241  -0.74757 
 C                    -0.20487   1.24819   1.07419 
 C                    -0.45548   2.5114    0.49519 
 C                    -0.6476    3.62844   1.29452 
 C                    -0.58889   3.47819   2.68302 
 C                    -0.34012   2.2236    3.2592 
 C                    -0.14617   1.09765   2.45716 
 C                    -0.45806   2.38736  -0.94453 
 C                    -0.21092   1.04335  -1.2997 
 C                    -0.15458   0.65875  -2.63677 
 C                    -0.35295   1.63062  -3.61892 
 C                    -0.60186   2.96503  -3.26505 
 C                    -0.65526   3.35083  -1.92253 
 H                    -4.15885  -4.29384   1.62777 
 H                    -5.14685  -3.46774   0.53991 
 H                    -4.33936  -1.64227  -0.82959 
 H                    -2.6069    0.02418  -1.17557 
 H                    -1.81494  -3.75058   1.92916 
 H                    -0.05217  -2.09892   1.59785 
 H                     2.41219   1.20832   0.93081 
 H                     4.64264   0.25377   0.7873 
 H                     5.37505  -3.04266  -0.52555 
 H                     5.98086  -1.71628   0.32225 
 H                     3.10063  -3.11724  -1.37214 
 H                     0.85008  -2.18916  -1.23968 
 H                    -0.84029   4.60414   0.86126 
 H                    -0.73856   4.34323   3.32484 
 H                    -0.2996    2.12777   4.34172 
 H                     0.0483    0.13125   2.91024 
 H                     0.03681  -0.37151  -2.91847 
 H                    -0.3113    1.35147  -4.66921 
 H                    -0.7514    3.70777  -4.04516 
 H                    -0.84517   4.38666  -1.66228 
 

 GradGradGradGradGradGradGradGradGradGradGradGradGradGradGradGradGradGrad
 Berny optimization.
 Initialization pass.
                           ----------------------------
                           !    Initial Parameters    !
                           ! (Angstroms and Degrees)  !
 --------------------------                            --------------------------
 ! Name  Definition              Value          Derivative Info.                !
 --------------------------------------------------------------------------------
 ! R1    R(1,2)                  1.3994         calculate D2E/DX2 analytically  !
 ! R2    R(1,28)                 1.0149         calculate D2E/DX2 analytically  !
 ! R3    R(1,29)                 1.0151         calculate D2E/DX2 analytically  !
 ! R4    R(2,3)                  1.3936         calculate D2E/DX2 analytically  !
 ! R5    R(2,5)                  1.393          calculate D2E/DX2 analytically  !
 ! R6    R(3,4)                  1.4009         calculate D2E/DX2 analytically  !
 ! R7    R(3,30)                 1.0868         calculate D2E/DX2 analytically  !
 ! R8    R(4,7)                  1.4063         calculate D2E/DX2 analytically  !
 ! R9    R(4,31)                 1.0877         calculate D2E/DX2 analytically  !
 ! R10   R(5,6)                  1.3999         calculate D2E/DX2 analytically  !
 ! R11   R(5,32)                 1.0866         calculate D2E/DX2 analytically  !
 ! R12   R(6,7)                  1.4094         calculate D2E/DX2 analytically  !
 ! R13   R(6,33)                 1.0885         calculate D2E/DX2 analytically  !
 ! R14   R(7,8)                  1.5577         calculate D2E/DX2 analytically  !
 ! R15   R(8,9)                  1.5568         calculate D2E/DX2 analytically  !
 ! R16   R(8,16)                 1.5577         calculate D2E/DX2 analytically  !
 ! R17   R(8,23)                 1.5571         calculate D2E/DX2 analytically  !
 ! R18   R(9,10)                 1.4064         calculate D2E/DX2 analytically  !
 ! R19   R(9,15)                 1.409          calculate D2E/DX2 analytically  !
 ! R20   R(10,11)                1.401          calculate D2E/DX2 analytically  !
 ! R21   R(10,34)                1.0879         calculate D2E/DX2 analytically  !
 ! R22   R(11,12)                1.3937         calculate D2E/DX2 analytically  !
 ! R23   R(11,35)                1.0868         calculate D2E/DX2 analytically  !
 ! R24   R(12,13)                1.3993         calculate D2E/DX2 analytically  !
 ! R25   R(12,14)                1.3932         calculate D2E/DX2 analytically  !
 ! R26   R(13,36)                1.0149         calculate D2E/DX2 analytically  !
 ! R27   R(13,37)                1.0149         calculate D2E/DX2 analytically  !
 ! R28   R(14,15)                1.4            calculate D2E/DX2 analytically  !
 ! R29   R(14,38)                1.0867         calculate D2E/DX2 analytically  !
 ! R30   R(15,39)                1.0888         calculate D2E/DX2 analytically  !
 ! R31   R(16,17)                1.412          calculate D2E/DX2 analytically  !
 ! R32   R(16,21)                1.3924         calculate D2E/DX2 analytically  !
 ! R33   R(17,18)                1.3869         calculate D2E/DX2 analytically  !
 ! R34   R(17,22)                1.4451         calculate D2E/DX2 analytically  !
 ! R35   R(18,19)                1.3978         calculate D2E/DX2 analytically  !
 ! R36   R(18,40)                1.0848         calculate D2E/DX2 analytically  !
 ! R37   R(19,20)                1.4028         calculate D2E/DX2 analytically  !
 ! R38   R(19,41)                1.0875         calculate D2E/DX2 analytically  !
 ! R39   R(20,21)                1.3959         calculate D2E/DX2 analytically  !
 ! R40   R(20,42)                1.0875         calculate D2E/DX2 analytically  !
 ! R41   R(21,43)                1.0849         calculate D2E/DX2 analytically  !
 ! R42   R(22,23)                1.4119         calculate D2E/DX2 analytically  !
 ! R43   R(22,27)                1.387          calculate D2E/DX2 analytically  !
 ! R44   R(23,24)                1.3924         calculate D2E/DX2 analytically  !
 ! R45   R(24,25)                1.3959         calculate D2E/DX2 analytically  !
 ! R46   R(24,44)                1.0851         calculate D2E/DX2 analytically  !
 ! R47   R(25,26)                1.4028         calculate D2E/DX2 analytically  !
 ! R48   R(25,45)                1.0875         calculate D2E/DX2 analytically  !
 ! R49   R(26,27)                1.3979         calculate D2E/DX2 analytically  !
 ! R50   R(26,46)                1.0875         calculate D2E/DX2 analytically  !
 ! R51   R(27,47)                1.0848         calculate D2E/DX2 analytically  !
 ! A1    A(2,1,28)             113.6676         calculate D2E/DX2 analytically  !
 ! A2    A(2,1,29)             113.587          calculate D2E/DX2 analytically  !
 ! A3    A(28,1,29)            112.2877         calculate D2E/DX2 analytically  !
 ! A4    A(1,2,3)              120.4139         calculate D2E/DX2 analytically  !
 ! A5    A(1,2,5)              120.4226         calculate D2E/DX2 analytically  !
 ! A6    A(3,2,5)              118.3706         calculate D2E/DX2 analytically  !
 ! A7    A(2,3,4)              120.9779         calculate D2E/DX2 analytically  !
 ! A8    A(2,3,30)             120.2165         calculate D2E/DX2 analytically  !
 ! A9    A(4,3,30)             118.8023         calculate D2E/DX2 analytically  !
 ! A10   A(3,4,7)              121.2838         calculate D2E/DX2 analytically  !
 ! A11   A(3,4,31)             117.5871         calculate D2E/DX2 analytically  !
 ! A12   A(7,4,31)             121.1292         calculate D2E/DX2 analytically  !
 ! A13   A(2,5,6)              120.7824         calculate D2E/DX2 analytically  !
 ! A14   A(2,5,32)             120.2513         calculate D2E/DX2 analytically  !
 ! A15   A(6,5,32)             118.9649         calculate D2E/DX2 analytically  !
 ! A16   A(5,6,7)              121.4654         calculate D2E/DX2 analytically  !
 ! A17   A(5,6,33)             118.0554         calculate D2E/DX2 analytically  !
 ! A18   A(7,6,33)             120.4743         calculate D2E/DX2 analytically  !
 ! A19   A(4,7,6)              116.952          calculate D2E/DX2 analytically  !
 ! A20   A(4,7,8)              122.2856         calculate D2E/DX2 analytically  !
 ! A21   A(6,7,8)              120.6977         calculate D2E/DX2 analytically  !
 ! A22   A(7,8,9)              114.0117         calculate D2E/DX2 analytically  !
 ! A23   A(7,8,16)             107.6309         calculate D2E/DX2 analytically  !
 ! A24   A(7,8,23)             113.454          calculate D2E/DX2 analytically  !
 ! A25   A(9,8,16)             113.315          calculate D2E/DX2 analytically  !
 ! A26   A(9,8,23)             107.8319         calculate D2E/DX2 analytically  !
 ! A27   A(16,8,23)             99.8084         calculate D2E/DX2 analytically  !
 ! A28   A(8,9,10)             122.1361         calculate D2E/DX2 analytically  !
 ! A29   A(8,9,15)             120.7759         calculate D2E/DX2 analytically  !
 ! A30   A(10,9,15)            116.9129         calculate D2E/DX2 analytically  !
 ! A31   A(9,10,11)            121.2772         calculate D2E/DX2 analytically  !
 ! A32   A(9,10,34)            121.0086         calculate D2E/DX2 analytically  !
 ! A33   A(11,10,34)           117.6952         calculate D2E/DX2 analytically  !
 ! A34   A(10,11,12)           120.9784         calculate D2E/DX2 analytically  !
 ! A35   A(10,11,35)           118.8094         calculate D2E/DX2 analytically  !
 ! A36   A(12,11,35)           120.2106         calculate D2E/DX2 analytically  !
 ! A37   A(11,12,13)           120.406          calculate D2E/DX2 analytically  !
 ! A38   A(11,12,14)           118.2786         calculate D2E/DX2 analytically  !
 ! A39   A(13,12,14)           120.3908         calculate D2E/DX2 analytically  !
 ! A40   A(12,13,36)           113.7369         calculate D2E/DX2 analytically  !
 ! A41   A(12,13,37)           113.7054         calculate D2E/DX2 analytically  !
 ! A42   A(36,13,37)           112.4003         calculate D2E/DX2 analytically  !
 ! A43   A(12,14,15)           120.8099         calculate D2E/DX2 analytically  !
 ! A44   A(12,14,38)           120.2561         calculate D2E/DX2 analytically  !
 ! A45   A(15,14,38)           118.9334         calculate D2E/DX2 analytically  !
 ! A46   A(9,15,14)            121.4404         calculate D2E/DX2 analytically  !
 ! A47   A(9,15,39)            120.4869         calculate D2E/DX2 analytically  !
 ! A48   A(14,15,39)           118.0683         calculate D2E/DX2 analytically  !
 ! A49   A(8,16,17)            110.6896         calculate D2E/DX2 analytically  !
 ! A50   A(8,16,21)            128.5473         calculate D2E/DX2 analytically  !
 ! A51   A(17,16,21)           120.763          calculate D2E/DX2 analytically  !
 ! A52   A(16,17,18)           120.5833         calculate D2E/DX2 analytically  !
 ! A53   A(16,17,22)           109.3939         calculate D2E/DX2 analytically  !
 ! A54   A(18,17,22)           130.0221         calculate D2E/DX2 analytically  !
 ! A55   A(17,18,19)           118.6911         calculate D2E/DX2 analytically  !
 ! A56   A(17,18,40)           121.253          calculate D2E/DX2 analytically  !
 ! A57   A(19,18,40)           120.0559         calculate D2E/DX2 analytically  !
 ! A58   A(18,19,20)           120.7681         calculate D2E/DX2 analytically  !
 ! A59   A(18,19,41)           119.6675         calculate D2E/DX2 analytically  !
 ! A60   A(20,19,41)           119.5644         calculate D2E/DX2 analytically  !
 ! A61   A(19,20,21)           120.6653         calculate D2E/DX2 analytically  !
 ! A62   A(19,20,42)           119.6214         calculate D2E/DX2 analytically  !
 ! A63   A(21,20,42)           119.7132         calculate D2E/DX2 analytically  !
 ! A64   A(16,21,20)           118.5291         calculate D2E/DX2 analytically  !
 ! A65   A(16,21,43)           121.2426         calculate D2E/DX2 analytically  !
 ! A66   A(20,21,43)           120.228          calculate D2E/DX2 analytically  !
 ! A67   A(17,22,23)           109.3914         calculate D2E/DX2 analytically  !
 ! A68   A(17,22,27)           130.0281         calculate D2E/DX2 analytically  !
 ! A69   A(23,22,27)           120.5805         calculate D2E/DX2 analytically  !
 ! A70   A(8,23,22)            110.7153         calculate D2E/DX2 analytically  !
 ! A71   A(8,23,24)            128.517          calculate D2E/DX2 analytically  !
 ! A72   A(22,23,24)           120.7673         calculate D2E/DX2 analytically  !
 ! A73   A(23,24,25)           118.527          calculate D2E/DX2 analytically  !
 ! A74   A(23,24,44)           121.2438         calculate D2E/DX2 analytically  !
 ! A75   A(25,24,44)           120.2291         calculate D2E/DX2 analytically  !
 ! A76   A(24,25,26)           120.6653         calculate D2E/DX2 analytically  !
 ! A77   A(24,25,45)           119.6926         calculate D2E/DX2 analytically  !
 ! A78   A(26,25,45)           119.6419         calculate D2E/DX2 analytically  !
 ! A79   A(25,26,27)           120.7695         calculate D2E/DX2 analytically  !
 ! A80   A(25,26,46)           119.5469         calculate D2E/DX2 analytically  !
 ! A81   A(27,26,46)           119.6833         calculate D2E/DX2 analytically  !
 ! A82   A(22,27,26)           118.69           calculate D2E/DX2 analytically  !
 ! A83   A(22,27,47)           121.2678         calculate D2E/DX2 analytically  !
 ! A84   A(26,27,47)           120.042          calculate D2E/DX2 analytically  !
 ! D1    D(28,1,2,3)          -160.0457         calculate D2E/DX2 analytically  !
 ! D2    D(28,1,2,5)            30.3176         calculate D2E/DX2 analytically  !
 ! D3    D(29,1,2,3)           -30.0146         calculate D2E/DX2 analytically  !
 ! D4    D(29,1,2,5)           160.3488         calculate D2E/DX2 analytically  !
 ! D5    D(1,2,3,4)           -174.3098         calculate D2E/DX2 analytically  !
 ! D6    D(1,2,3,30)             6.3674         calculate D2E/DX2 analytically  !
 ! D7    D(5,2,3,4)             -4.4638         calculate D2E/DX2 analytically  !
 ! D8    D(5,2,3,30)           176.2133         calculate D2E/DX2 analytically  !
 ! D9    D(1,2,5,6)            174.3191         calculate D2E/DX2 analytically  !
 ! D10   D(1,2,5,32)            -6.1194         calculate D2E/DX2 analytically  !
 ! D11   D(3,2,5,6)              4.4741         calculate D2E/DX2 analytically  !
 ! D12   D(3,2,5,32)          -175.9644         calculate D2E/DX2 analytically  !
 ! D13   D(2,3,4,7)              2.9899         calculate D2E/DX2 analytically  !
 ! D14   D(2,3,4,31)          -177.0191         calculate D2E/DX2 analytically  !
 ! D15   D(30,3,4,7)          -177.6779         calculate D2E/DX2 analytically  !
 ! D16   D(30,3,4,31)            2.3132         calculate D2E/DX2 analytically  !
 ! D17   D(3,4,7,6)             -1.3662         calculate D2E/DX2 analytically  !
 ! D18   D(3,4,7,8)           -178.4552         calculate D2E/DX2 analytically  !
 ! D19   D(31,4,7,6)           178.6431         calculate D2E/DX2 analytically  !
 ! D20   D(31,4,7,8)             1.5541         calculate D2E/DX2 analytically  !
 ! D21   D(2,5,6,7)             -3.0254         calculate D2E/DX2 analytically  !
 ! D22   D(2,5,6,33)           177.77           calculate D2E/DX2 analytically  !
 ! D23   D(32,5,6,7)           177.4076         calculate D2E/DX2 analytically  !
 ! D24   D(32,5,6,33)           -1.797          calculate D2E/DX2 analytically  !
 ! D25   D(5,6,7,4)              1.3882         calculate D2E/DX2 analytically  !
 ! D26   D(5,6,7,8)            178.5263         calculate D2E/DX2 analytically  !
 ! D27   D(33,6,7,4)          -179.4262         calculate D2E/DX2 analytically  !
 ! D28   D(33,6,7,8)            -2.2882         calculate D2E/DX2 analytically  !
 ! D29   D(4,7,8,9)           -142.3748         calculate D2E/DX2 analytically  !
 ! D30   D(4,7,8,16)            91.026          calculate D2E/DX2 analytically  !
 ! D31   D(4,7,8,23)           -18.4089         calculate D2E/DX2 analytically  !
 ! D32   D(6,7,8,9)             40.643          calculate D2E/DX2 analytically  !
 ! D33   D(6,7,8,16)           -85.9563         calculate D2E/DX2 analytically  !
 ! D34   D(6,7,8,23)           164.6089         calculate D2E/DX2 analytically  !
 ! D35   D(7,8,9,10)          -145.1439         calculate D2E/DX2 analytically  !
 ! D36   D(7,8,9,15)            39.8158         calculate D2E/DX2 analytically  !
 ! D37   D(16,8,9,10)          -21.5673         calculate D2E/DX2 analytically  !
 ! D38   D(16,8,9,15)          163.3924         calculate D2E/DX2 analytically  !
 ! D39   D(23,8,9,10)           87.914          calculate D2E/DX2 analytically  !
 ! D40   D(23,8,9,15)          -87.1263         calculate D2E/DX2 analytically  !
 ! D41   D(7,8,16,17)         -118.2348         calculate D2E/DX2 analytically  !
 ! D42   D(7,8,16,21)           61.6931         calculate D2E/DX2 analytically  !
 ! D43   D(9,8,16,17)          114.758          calculate D2E/DX2 analytically  !
 ! D44   D(9,8,16,21)          -65.3141         calculate D2E/DX2 analytically  !
 ! D45   D(23,8,16,17)           0.3703         calculate D2E/DX2 analytically  !
 ! D46   D(23,8,16,21)        -179.7018         calculate D2E/DX2 analytically  !
 ! D47   D(7,8,23,22)          113.8866         calculate D2E/DX2 analytically  !
 ! D48   D(7,8,23,24)          -66.3315         calculate D2E/DX2 analytically  !
 ! D49   D(9,8,23,22)         -118.8473         calculate D2E/DX2 analytically  !
 ! D50   D(9,8,23,24)           60.9347         calculate D2E/DX2 analytically  !
 ! D51   D(16,8,23,22)          -0.3225         calculate D2E/DX2 analytically  !
 ! D52   D(16,8,23,24)         179.4595         calculate D2E/DX2 analytically  !
 ! D53   D(8,9,10,11)         -178.3372         calculate D2E/DX2 analytically  !
 ! D54   D(8,9,10,34)            0.0426         calculate D2E/DX2 analytically  !
 ! D55   D(15,9,10,11)          -3.1156         calculate D2E/DX2 analytically  !
 ! D56   D(15,9,10,34)         175.2642         calculate D2E/DX2 analytically  !
 ! D57   D(8,9,15,14)          178.4719         calculate D2E/DX2 analytically  !
 ! D58   D(8,9,15,39)           -0.7567         calculate D2E/DX2 analytically  !
 ! D59   D(10,9,15,14)           3.1813         calculate D2E/DX2 analytically  !
 ! D60   D(10,9,15,39)        -176.0474         calculate D2E/DX2 analytically  !
 ! D61   D(9,10,11,12)          -1.1922         calculate D2E/DX2 analytically  !
 ! D62   D(9,10,11,35)         178.3526         calculate D2E/DX2 analytically  !
 ! D63   D(34,10,11,12)       -179.6239         calculate D2E/DX2 analytically  !
 ! D64   D(34,10,11,35)         -0.0791         calculate D2E/DX2 analytically  !
 ! D65   D(10,11,12,13)        174.4927         calculate D2E/DX2 analytically  !
 ! D66   D(10,11,12,14)          5.4521         calculate D2E/DX2 analytically  !
 ! D67   D(35,11,12,13)         -5.0457         calculate D2E/DX2 analytically  !
 ! D68   D(35,11,12,14)       -174.0864         calculate D2E/DX2 analytically  !
 ! D69   D(11,12,13,36)        160.6702         calculate D2E/DX2 analytically  !
 ! D70   D(11,12,13,37)         30.2994         calculate D2E/DX2 analytically  !
 ! D71   D(14,12,13,36)        -30.5215         calculate D2E/DX2 analytically  !
 ! D72   D(14,12,13,37)       -160.8924         calculate D2E/DX2 analytically  !
 ! D73   D(11,12,14,15)         -5.3824         calculate D2E/DX2 analytically  !
 ! D74   D(11,12,14,38)        174.3453         calculate D2E/DX2 analytically  !
 ! D75   D(13,12,14,15)       -174.4248         calculate D2E/DX2 analytically  !
 ! D76   D(13,12,14,38)          5.3029         calculate D2E/DX2 analytically  !
 ! D77   D(12,14,15,9)           1.0663         calculate D2E/DX2 analytically  !
 ! D78   D(12,14,15,39)       -179.6871         calculate D2E/DX2 analytically  !
 ! D79   D(38,14,15,9)        -178.6649         calculate D2E/DX2 analytically  !
 ! D80   D(38,14,15,39)          0.5817         calculate D2E/DX2 analytically  !
 ! D81   D(8,16,17,18)         179.9684         calculate D2E/DX2 analytically  !
 ! D82   D(8,16,17,22)          -0.2993         calculate D2E/DX2 analytically  !
 ! D83   D(21,16,17,18)          0.034          calculate D2E/DX2 analytically  !
 ! D84   D(21,16,17,22)        179.7664         calculate D2E/DX2 analytically  !
 ! D85   D(8,16,21,20)        -179.9445         calculate D2E/DX2 analytically  !
 ! D86   D(8,16,21,43)           0.2314         calculate D2E/DX2 analytically  !
 ! D87   D(17,16,21,20)         -0.023          calculate D2E/DX2 analytically  !
 ! D88   D(17,16,21,43)       -179.8471         calculate D2E/DX2 analytically  !
 ! D89   D(16,17,18,19)         -0.0361         calculate D2E/DX2 analytically  !
 ! D90   D(16,17,18,40)        179.9652         calculate D2E/DX2 analytically  !
 ! D91   D(22,17,18,19)       -179.7065         calculate D2E/DX2 analytically  !
 ! D92   D(22,17,18,40)          0.2949         calculate D2E/DX2 analytically  !
 ! D93   D(16,17,22,23)          0.0784         calculate D2E/DX2 analytically  !
 ! D94   D(16,17,22,27)       -179.8044         calculate D2E/DX2 analytically  !
 ! D95   D(18,17,22,23)        179.7775         calculate D2E/DX2 analytically  !
 ! D96   D(18,17,22,27)         -0.1052         calculate D2E/DX2 analytically  !
 ! D97   D(17,18,19,20)          0.0288         calculate D2E/DX2 analytically  !
 ! D98   D(17,18,19,41)       -179.9165         calculate D2E/DX2 analytically  !
 ! D99   D(40,18,19,20)       -179.9726         calculate D2E/DX2 analytically  !
 ! D100  D(40,18,19,41)          0.0822         calculate D2E/DX2 analytically  !
 ! D101  D(18,19,20,21)         -0.0188         calculate D2E/DX2 analytically  !
 ! D102  D(18,19,20,42)       -179.9263         calculate D2E/DX2 analytically  !
 ! D103  D(41,19,20,21)        179.9265         calculate D2E/DX2 analytically  !
 ! D104  D(41,19,20,42)          0.019          calculate D2E/DX2 analytically  !
 ! D105  D(19,20,21,16)          0.0156         calculate D2E/DX2 analytically  !
 ! D106  D(19,20,21,43)        179.8415         calculate D2E/DX2 analytically  !
 ! D107  D(42,20,21,16)        179.923          calculate D2E/DX2 analytically  !
 ! D108  D(42,20,21,43)         -0.2511         calculate D2E/DX2 analytically  !
 ! D109  D(17,22,23,8)           0.1738         calculate D2E/DX2 analytically  !
 ! D110  D(17,22,23,24)       -179.6277         calculate D2E/DX2 analytically  !
 ! D111  D(27,22,23,8)        -179.9305         calculate D2E/DX2 analytically  !
 ! D112  D(27,22,23,24)          0.268          calculate D2E/DX2 analytically  !
 ! D113  D(17,22,27,26)        179.7514         calculate D2E/DX2 analytically  !
 ! D114  D(17,22,27,47)         -0.0803         calculate D2E/DX2 analytically  !
 ! D115  D(23,22,27,26)         -0.1201         calculate D2E/DX2 analytically  !
 ! D116  D(23,22,27,47)       -179.9519         calculate D2E/DX2 analytically  !
 ! D117  D(8,23,24,25)         179.9969         calculate D2E/DX2 analytically  !
 ! D118  D(8,23,24,44)           0.1135         calculate D2E/DX2 analytically  !
 ! D119  D(22,23,24,25)         -0.2404         calculate D2E/DX2 analytically  !
 ! D120  D(22,23,24,44)        179.8761         calculate D2E/DX2 analytically  !
 ! D121  D(23,24,25,26)          0.0743         calculate D2E/DX2 analytically  !
 ! D122  D(23,24,25,45)        179.8943         calculate D2E/DX2 analytically  !
 ! D123  D(44,24,25,26)        179.959          calculate D2E/DX2 analytically  !
 ! D124  D(44,24,25,45)         -0.221          calculate D2E/DX2 analytically  !
 ! D125  D(24,25,26,27)          0.0694         calculate D2E/DX2 analytically  !
 ! D126  D(24,25,26,46)        179.8529         calculate D2E/DX2 analytically  !
 ! D127  D(45,25,26,27)       -179.7507         calculate D2E/DX2 analytically  !
 ! D128  D(45,25,26,46)          0.0328         calculate D2E/DX2 analytically  !
 ! D129  D(25,26,27,22)         -0.0457         calculate D2E/DX2 analytically  !
 ! D130  D(25,26,27,47)        179.7881         calculate D2E/DX2 analytically  !
 ! D131  D(46,26,27,22)       -179.829          calculate D2E/DX2 analytically  !
 ! D132  D(46,26,27,47)          0.0049         calculate D2E/DX2 analytically  !
 --------------------------------------------------------------------------------
 Trust Radius=3.00D-01 FncErr=1.00D-07 GrdErr=1.00D-06 EigMax=2.50D+02 EigMin=1.00D-04
 Number of steps in this run=    277 maximum allowed number of steps=    282.
 GradGradGradGradGradGradGradGradGradGradGradGradGradGradGradGradGradGrad

                          Input orientation:                          
 ---------------------------------------------------------------------
 Center     Atomic      Atomic             Coordinates (Angstroms)
 Number     Number       Type             X           Y           Z
 ---------------------------------------------------------------------
      1          7           0       -4.205592   -3.783316    0.751839
      2          6           0       -3.238538   -2.778625    0.634909
      3          6           0       -3.408627   -1.738332   -0.276719
      4          6           0       -2.397008   -0.792607   -0.488594
      5          6           0       -2.002433   -2.912797    1.263094
      6          6           0       -0.987646   -1.970967    1.056149
      7          6           0       -1.154504   -0.894078    0.162278
      8          6           0       -0.026367    0.162837   -0.028850
      9          6           0        1.407525   -0.441855   -0.071954
     10          6           0        2.519926    0.231830    0.463389
     11          6           0        3.807915   -0.313616    0.384225
     12          6           0        4.025468   -1.556488   -0.207616
     13          7           0        5.327072   -2.038873   -0.383829
     14          6           0        2.948922   -2.192475   -0.821991
     15          6           0        1.659472   -1.652415   -0.747569
     16          6           0       -0.204869    1.248185    1.074190
     17          6           0       -0.455484    2.511401    0.495192
     18          6           0       -0.647598    3.628440    1.294517
     19          6           0       -0.588890    3.478194    2.683020
     20          6           0       -0.340119    2.223600    3.259199
     21          6           0       -0.146166    1.097648    2.457163
     22          6           0       -0.458063    2.387357   -0.944531
     23          6           0       -0.210918    1.043354   -1.299705
     24          6           0       -0.154575    0.658752   -2.636774
     25          6           0       -0.352946    1.630617   -3.618919
     26          6           0       -0.601864    2.965030   -3.265046
     27          6           0       -0.655263    3.350825   -1.922533
     28          1           0       -4.158851   -4.293840    1.627771
     29          1           0       -5.146851   -3.467745    0.539908
     30          1           0       -4.339359   -1.642267   -0.829591
     31          1           0       -2.606895    0.024182   -1.175572
     32          1           0       -1.814945   -3.750579    1.929165
     33          1           0       -0.052174   -2.098917    1.597853
     34          1           0        2.412192    1.208316    0.930805
     35          1           0        4.642640    0.253772    0.787296
     36          1           0        5.375049   -3.042655   -0.525546
     37          1           0        5.980860   -1.716280    0.322251
     38          1           0        3.100634   -3.117243   -1.372137
     39          1           0        0.850076   -2.189160   -1.239675
     40          1           0       -0.840286    4.604143    0.861261
     41          1           0       -0.738564    4.343231    3.324840
     42          1           0       -0.299596    2.127767    4.341717
     43          1           0        0.048303    0.131251    2.910245
     44          1           0        0.036807   -0.371506   -2.918475
     45          1           0       -0.311302    1.351469   -4.669207
     46          1           0       -0.751401    3.707771   -4.045162
     47          1           0       -0.845166    4.386662   -1.662280
 ---------------------------------------------------------------------
                    Distance matrix (angstroms):
                    1          2          3          4          5
     1  N    0.000000
     2  C    1.399382   0.000000
     3  C    2.423849   1.393630   0.000000
     4  C    3.708637   2.432016   1.400950   0.000000
     5  C    2.423446   1.393045   2.393277   2.778364   0.000000
     6  C    3.705724   2.428224   2.773411   2.400222   1.399880
     7  C    4.243161   2.849228   2.446744   1.406324   2.450716
     8  C    5.800648   4.405771   3.887874   2.596955   3.877304
     9  C    6.584153   5.248433   4.991803   3.843317   4.417660
    10  C    7.838187   6.500166   6.291028   5.111944   5.565962
    11  C    8.740152   7.469379   7.385468   6.284291   6.425598
    12  C    8.580772   7.414125   7.436639   6.473844   6.351232
    13  N    9.757279   8.657640   8.741523   7.824676   7.562919
    14  C    7.496318   6.383635   6.397030   5.536221   5.420550
    15  C    6.417783   5.212495   5.090649   4.154680   4.363586
    16  C    6.436280   5.060762   4.583482   3.378254   4.536595
    17  C    7.331619   5.979071   5.232316   3.956490   5.692508
    18  C    8.239414   6.942517   6.236530   5.077950   6.680146
    19  C    8.339036   7.096702   6.627452   5.618556   6.697691
    20  C    7.570454   6.349015   6.133137   5.232041   5.755892
    21  C    6.573498   5.282884   5.114738   4.161350   4.577685
    22  C    7.416121   6.075611   5.115967   3.752274   5.945614
    23  C    6.592647   5.245640   4.360002   2.967767   5.042678
    24  C    6.901115   5.659531   4.680248   3.427772   5.601742
    25  C    7.953432   6.772231   5.644227   4.455237   6.870042
    26  C    8.640741   7.426391   6.239362   5.005104   7.550795
    27  C    8.405538   7.126288   6.015749   4.717826   7.155141
    28  H    1.014927   2.031902   3.274223   4.454405   2.586582
    29  H    1.015120   2.031150   2.584409   3.971878   3.273886
    30  H    2.665128   2.155894   1.086811   2.147307   3.384494
    31  H    4.557168   3.395960   2.134752   1.087720   3.865011
    32  H    2.665025   2.155553   3.384506   3.864447   1.086591
    33  H    4.561120   3.397378   3.861323   3.399699   2.139620
    34  H    8.291169   6.921994   6.634966   5.398776   6.048380
    35  H    9.725767   8.445805   8.362027   7.230452   7.376350
    36  H    9.693759   8.695415   8.883475   8.091288   7.592321
    37  H   10.402932   9.285668   9.408598   8.467545   8.127104
    38  H    7.637791   6.657927   6.743278   6.033957   5.746958
    39  H    5.662795   4.536332   4.389428   3.613591   3.863200
    40  H    9.038071   7.765830   6.936740   5.776712   7.616853
    41  H    9.202250   8.012892   7.555520   6.608295   7.648406
    42  H    7.942603   6.815460   6.778108   6.021597   6.146939
    43  H    6.170751   4.944477   5.059886   4.287793   4.023040
    44  H    6.565789   5.398948   4.551713   3.464837   5.301149
    45  H    8.421356   7.332123   6.199535   5.140501   7.499072
    46  H    9.542486   8.376291   7.135968   5.967461   8.577563
    47  H    9.158001   7.895990   6.782822   5.532683   7.948534
                    6          7          8          9         10
     6  C    0.000000
     7  C    1.409446   0.000000
     8  C    2.579612   1.557656   0.000000
     9  C    3.057391   2.612156   1.556778   0.000000
    10  C    4.184105   3.854837   2.594352   1.406371   0.000000
    11  C    5.118174   5.001180   3.885789   2.446716   1.400962
    12  C    5.186540   5.235237   4.405156   2.848585   2.432074
    13  N    6.477176   6.604514   5.799383   4.243887   3.708630
    14  C    4.367269   4.415056   3.876714   2.450128   2.777317
    15  C    3.219023   3.053090   2.579487   1.409038   2.399411
    16  C    3.313005   2.514494   1.557735   2.601864   2.971626
    17  C    4.548570   3.492384   2.444282   3.537539   3.748403
    18  C    5.614785   4.689572   3.761334   4.760050   4.718151
    19  C    5.700795   5.078466   4.319984   5.190601   5.013021
    20  C    4.781956   4.469234   3.893128   4.610367   4.468060
    21  C    3.476683   3.201595   2.658662   3.343719   3.439887
    22  C    4.824745   3.532403   2.444038   3.499464   3.936617
    23  C    3.903778   2.604110   1.557062   2.516461   3.350310
    24  C    4.609458   3.353480   2.657750   3.198405   4.116579
    25  C    5.935530   4.616712   3.892252   4.469380   5.184133
    26  C    6.571577   5.190826   4.319311   5.083340   5.578278
    27  C    6.107740   4.755510   3.760959   4.697250   5.050007
    28  H    3.972283   4.767825   6.299507   6.979355   8.151290
    29  H    4.450375   4.764998   6.302695   7.245014   8.513059
    30  H    3.859798   3.418610   4.743573   5.919601   7.227297
    31  H    3.403405   2.177724   2.827246   4.189359   5.386427
    32  H    2.147929   3.423108   4.727331   5.033532   6.066233
    33  H    1.088541   2.174315   2.786101   2.768543   3.651724
    34  H    4.656441   4.210939   2.821442   2.176682   1.087938
    35  H    6.059856   5.942649   4.740673   3.418797   2.147397
    36  H    6.643354   6.908295   6.300570   4.765622   4.455555
    37  H    7.011672   7.184360   6.304056   4.763922   3.974055
    38  H    4.891273   5.040148   4.726677   3.422688   3.862987
    39  H    2.948837   2.767860   2.786779   2.174257   3.398531
    40  H    6.579648   5.551373   4.602169   5.602289   5.528693
    41  H    6.714023   6.132227   5.406492   6.248277   5.975725
    42  H    5.297923   5.227822   4.799735   5.384952   5.156133
    43  H    2.988341   3.170073   2.940213   3.327077   3.479388
    44  H    4.405157   3.344150   2.939293   3.160142   4.238737
    45  H    6.654000   5.394137   4.798640   5.225429   5.967661
    46  H    7.637228   6.248364   5.405829   6.137323   6.565879
    47  H    6.915895   5.595616   4.602089   5.560426   5.753690
                   11         12         13         14         15
    11  C    0.000000
    12  C    1.393678   0.000000
    13  N    2.423687   1.399257   0.000000
    14  C    2.392266   1.393156   2.423051   0.000000
    15  C    2.772931   2.428721   3.705798   1.399958   0.000000
    16  C    4.360930   5.234976   6.597950   5.037861   3.899751
    17  C    5.115624   6.092667   7.410508   5.954108   4.832687
    18  C    6.018308   7.139848   8.404283   7.162235   6.113928
    19  C    6.244531   7.415935   8.651138   7.547032   6.568654
    20  C    5.648816   6.735445   7.972288   6.853876   5.922503
    21  C    4.682253   5.616762   6.918478   5.581875   4.592764
    22  C    5.221055   6.016561   7.305729   5.709415   4.565360
    23  C    4.563771   5.089087   6.403771   4.547899   3.327219
    24  C    5.076738   5.317975   6.511635   4.588532   3.493044
    25  C    6.092452   6.400401   7.496237   5.774181   4.803413
    26  C    6.596427   7.155711   8.276034   6.721343   5.724695
    27  C    6.218458   6.995134   8.197852   6.702948   5.636572
    28  H    8.992105   8.822970   9.955608   7.806248   6.817056
    29  H    9.495294   9.399102  10.611221   8.307985   7.160940
    30  H    8.343665   8.388357   9.684827   7.309024   5.999401
    31  H    6.610361   6.886486   8.235951   5.992136   4.603918
    32  H    6.768760   6.594716   7.699888   5.717602   4.861972
    33  H    4.422724   4.492339   5.732971   3.856291   2.937704
    34  H    2.136134   3.397470   4.557304   3.863386   3.401074
    35  H    1.086812   2.155874   2.663870   3.382692   3.858581
    36  H    3.275858   2.032521   1.014871   2.587813   3.973357
    37  H    2.587083   2.032204   1.014916   3.275469   4.452301
    38  H    3.383103   2.155779   2.663956   1.086681   2.147732
    39  H    3.860509   3.398313   4.560542   2.140006   1.088754
    40  H    6.783634   7.922843   9.149656   7.961498   6.926878
    41  H    7.141703   8.365461   9.553922   8.573751   7.634322
    42  H    6.204332   7.278485   8.446956   7.475375   6.635402
    43  H    4.551194   5.327979   6.589822   5.267150   4.376863
    44  H    5.013226   4.966121   6.098479   4.023877   2.997766
    45  H    6.728866   6.868011   7.851760   6.163576   5.318506
    46  H    7.521860   8.078221   9.131106   7.674250   6.739289
    47  H    6.923291   7.820496   9.001025   7.641088   6.601542
                   16         17         18         19         20
    16  C    0.000000
    17  C    1.412006   0.000000
    18  C    2.431083   1.386941   0.000000
    19  C    2.776463   2.395637   1.397842   0.000000
    20  C    2.396663   2.781344   2.434768   1.402810   0.000000
    21  C    1.392380   2.437972   2.829856   2.431874   1.395939
    22  C    2.331749   1.445059   2.567011   3.790273   4.208571
    23  C    2.382723   2.331658   3.688271   4.683311   4.710974
    24  C    3.757820   3.651310   4.951482   6.036397   6.102923
    25  C    4.710992   4.208587   5.312247   6.571427   6.903644
    26  C    4.683388   3.790329   4.607800   5.970176   6.571454
    27  C    3.688400   2.567087   3.229015   4.607792   5.312278
    28  H    6.830407   7.830004   8.671936   8.617580   7.727955
    29  H    6.851908   7.600073   8.436145   8.579861   7.930361
    30  H    5.391947   5.838877   6.776524   7.254211   6.903408
    31  H    3.511316   3.688669   4.788617   5.557992   5.444530
    32  H    5.320805   6.566339   7.497693   7.370662   6.295626
    33  H    3.391258   4.757474   5.766209   5.706997   4.639734
    34  H    2.621289   3.179836   3.918112   4.150794   3.745321
    35  H    4.956764   5.583286   6.295417   6.431140   5.900712
    36  H    7.218445   8.116931   9.169974   9.401326   8.644124
    37  H    6.900486   7.702579   8.570169   8.701574   8.006440
    38  H    5.997319   6.914805   8.164835   8.576519   7.862102
    39  H    4.275771   5.177791   6.519941   7.041098   6.413180
    40  H    3.422214   2.159085   1.084821   2.156332   3.415737
    41  H    3.863880   3.382698   2.154394   1.087486   2.157755
    42  H    3.385170   3.868751   3.414463   2.158384   1.087507
    43  H    2.163963   3.428031   3.914740   3.414626   2.156517
    44  H    4.315458   4.495177   5.849553   6.825571   6.711207
    45  H    5.745311   5.295021   6.392472   7.658672   7.976281
    46  H    5.705788   4.704644   5.341277   6.734059   7.464958
    47  H    4.212871   2.884985   3.058853   4.446642   5.399525
                   21         22         23         24         25
    21  C    0.000000
    22  C    3.651322   0.000000
    23  C    3.757818   1.411940   0.000000
    24  C    5.112816   2.438005   1.392425   0.000000
    25  C    6.102916   2.781377   2.396624   1.395880   0.000000
    26  C    6.036427   2.395658   2.776372   2.431813   1.402799
    27  C    4.951537   1.386955   2.431004   2.829857   2.434798
    28  H    6.771829   8.059216   7.255475   7.664772   8.781336
    29  H    7.037438   7.646601   6.935245   7.214021   8.140679
    30  H    5.991056   5.596029   4.947483   5.106174   5.863754
    31  H    4.517109   3.202414   2.606689   2.924323   3.692001
    32  H    5.154504   6.911839   5.998358   6.561007   7.866126
    33  H    3.311386   5.172535   4.277255   5.054433   6.419860
    34  H    2.981142   3.625657   3.447187   4.429214   5.340816
    35  H    5.141327   5.793839   5.341913   5.907752   6.801934
    36  H    7.518143   7.980337   6.964038   6.981005   8.013635
    37  H    7.072234   7.739787   6.970254   7.213887   8.176285
    38  H    6.555193   6.568698   5.318101   5.143329   6.286288
    39  H    5.046010   4.768946   3.402713   3.327433   4.658192
    40  H    3.914615   2.884635   4.212493   5.317195   5.399201
    41  H    3.411394   4.704429   5.705613   7.032587   7.464769
    42  H    2.153191   5.294990   5.745386   7.132908   7.976323
    43  H    1.084908   4.495077   4.315415   5.575736   6.711116
    44  H    5.575784   3.428217   2.164165   1.085086   2.156623
    45  H    7.132800   3.868826   3.385049   2.152952   1.087549
    46  H    7.032729   3.382817   3.863777   3.411198   2.157549
    47  H    5.317520   2.159221   3.422198   3.914572   3.415626
                   26         27         28         29         30
    26  C    0.000000
    27  C    1.397867   0.000000
    28  H    9.448969   9.128016   0.000000
    29  H    8.747295   8.528240   1.685830   0.000000
    30  H    6.413073   6.300639   3.619675   2.420731   0.000000
    31  H    4.127305   3.928533   5.377044   4.646267   2.428618
    32  H    8.576176   8.161518   2.424844   3.620998   4.292829
    33  H    7.042266   6.515867   4.656541   5.380397   4.947824
    34  H    5.456716   4.705440   8.598725   8.897048   7.537125
    35  H    7.160811   6.708403   9.942505  10.475926   9.321244
    36  H    8.906213   8.899035   9.853806  10.584246   9.819534
    37  H    8.838304   8.645966  10.543336  11.266808  10.384563
    38  H    7.367879   7.499707   7.942540   8.473474   7.604170
    39  H    5.725027   5.781329   6.143393   6.384734   5.234262
    40  H    4.446341   3.058520   9.527566   9.154515   7.356638
    41  H    6.733850   5.341042   9.443379   9.391496   8.127190
    42  H    7.658670   6.392433   7.968462   8.322223   7.568042
    43  H    6.825485   5.849479   6.239095   6.749881   6.031858
    44  H    3.414745   3.914921   7.325066   6.958262   5.012893
    45  H    2.158628   3.414668   9.291128   8.587329   6.319046
    46  H    1.087477   2.154578  10.383576   9.582842   7.199739
    47  H    2.156175   1.084783   9.856777   9.222030   7.017887
                   31         32         33         34         35
    31  H    0.000000
    32  H    4.951302   0.000000
    33  H    4.327359   2.438260   0.000000
    34  H    5.570479   6.592120   4.178019   0.000000
    35  H    7.514075   7.683690   5.313514   2.430359   0.000000
    36  H    8.575515   7.630385   5.903746   5.382401   3.623039
    37  H    8.889444   8.215541   6.178275   4.653922   2.426562
    38  H    6.517904   5.955050   4.449498   4.948531   4.290068
    39  H    4.105319   4.425146   2.978887   4.323659   4.945712
    40  H    5.314663   8.478901   6.789308   4.702669   6.999548
    41  H    6.511417   8.283494   6.704841   5.048402   7.219429
    42  H    6.339493   6.532353   5.045281   4.453482   6.369573
    43  H    4.873955   4.416199   2.589617   3.265918   5.062594
    44  H    3.191150   6.192473   4.836226   4.791164   5.944527
    45  H    4.385992   8.475278   7.158795   6.228808   7.451168
    46  H    5.024563   9.615128   8.127125   6.404361   8.023617
    47  H    4.729885   8.947270   7.302058   5.237973   7.293642
                   36         37         38         39         40
    36  H    0.000000
    37  H    1.686725   0.000000
    38  H    2.428012   3.623445   0.000000
    39  H    4.659808   5.384066   2.438010   0.000000
    40  H    9.951238   9.314843   8.952023   7.308914   0.000000
    41  H   10.332137   9.533303   9.615598   8.125929   2.479445
    42  H    9.089836   8.389096   8.468756   7.149094   4.305619
    43  H    7.088904   6.730997   6.181281   4.821720   4.999469
    44  H    6.431017   6.902354   4.395142   2.604542   6.309737
    45  H    8.295350   8.597502   6.517773   5.064241   6.437841
    46  H    9.771864   9.685967   8.280341   6.723784   4.988424
    47  H    9.755921   9.369039   8.483049   6.803960   2.532900
                   41         42         43         44         45
    41  H    0.000000
    42  H    2.476896   0.000000
    43  H    4.304861   2.481174   0.000000
    44  H    7.861866   7.685696   5.850373   0.000000
    45  H    8.546227   9.044309   7.685463   2.480904   0.000000
    46  H    7.397358   8.546361   7.861851   4.304787   2.476949
    47  H    4.988449   6.438031   6.309897   4.999606   4.305696
                   46         47
    46  H    0.000000
    47  H    2.479478   0.000000
 Stoichiometry    C25H20N2
 Framework group  C1[X(C25H20N2)]
 Deg. of freedom   135
 Full point group                 C1      NOp   1
 Largest Abelian subgroup         C1      NOp   1
 Largest concise Abelian subgroup C1      NOp   1
                         Standard orientation:                         
 ---------------------------------------------------------------------
 Center     Atomic      Atomic             Coordinates (Angstroms)
 Number     Number       Type             X           Y           Z
 ---------------------------------------------------------------------
      1          7           0       -4.848936   -3.075439   -0.212852
      2          6           0       -3.720710   -2.256593   -0.090920
      3          6           0       -3.579426   -1.126048   -0.893485
      4          6           0       -2.403781   -0.364622   -0.866062
      5          6           0       -2.629510   -2.668029    0.671036
      6          6           0       -1.452147   -1.911430    0.703283
      7          6           0       -1.304173   -0.747203   -0.077241
      8          6           0        0.000679    0.100134   -0.001916
      9          6           0        1.303786   -0.748501    0.070774
     10          6           0        2.423205   -0.338049    0.816635
     11          6           0        3.599233   -1.098983    0.841817
     12          6           0        3.689476   -2.303248    0.146160
     13          7           0        4.903488   -2.996287    0.084577
     14          6           0        2.622853   -2.676278   -0.668731
     15          6           0        1.445191   -1.919934   -0.699382
     16          6           0       -0.152395    1.097711    1.184655
     17          6           0       -0.100784    2.431708    0.724710
     18          6           0       -0.217546    3.489720    1.613857
     19          6           0       -0.387883    3.208809    2.972546
     20          6           0       -0.439439    1.883841    3.430450
     21          6           0       -0.321981    0.817007    2.537861
     22          6           0        0.085812    2.438336   -0.708236
     23          6           0        0.153470    1.108672   -1.178329
     24          6           0        0.338912    0.840317   -2.532007
     25          6           0        0.451440    1.915230   -3.415399
     26          6           0        0.380636    3.235940   -2.947897
     27          6           0        0.197470    3.504445   -1.588343
     28          1           0       -5.016559   -3.661584    0.598575
     29          1           0       -5.682951   -2.576758   -0.506458
     30          1           0       -4.390238   -0.814031   -1.546468
     31          1           0       -2.371485    0.534332   -1.477596
     32          1           0       -2.684114   -3.581624    1.256735
     33          1           0       -0.640427   -2.254544    1.342269
     34          1           0        2.413563    0.596421    1.373665
     35          1           0        4.449387   -0.730515    1.409822
     36          1           0        4.802813   -3.975522   -0.162256
     37          1           0        5.492051   -2.861596    0.900364
     38          1           0        2.696097   -3.560743   -1.295813
     39          1           0        0.637845   -2.255092   -1.348416
     40          1           0       -0.178852    4.518695    1.272466
     41          1           0       -0.482510    4.026277    3.683474
     42          1           0       -0.573788    1.686652    4.491458
     43          1           0       -0.360270   -0.204936    2.900067
     44          1           0        0.394035   -0.178463   -2.901415
     45          1           0        0.598404    1.727398   -4.476475
     46          1           0        0.472953    4.059676   -3.651844
     47          1           0        0.147850    4.530323   -1.239249
 ---------------------------------------------------------------------
 Rotational constants (GHZ):           0.1955171           0.1798578           0.1419027
 Standard basis: 6-31G(d,p) (6D, 7F)
 There are   505 symmetry adapted cartesian basis functions of A   symmetry.
 There are   505 symmetry adapted basis functions of A   symmetry.
   505 basis functions,   896 primitive gaussians,   505 cartesian basis functions
    92 alpha electrons       92 beta electrons
       nuclear repulsion energy      2295.7846731276 Hartrees.
 NAtoms=   47 NActive=   47 NUniq=   47 SFac= 1.00D+00 NAtFMM=   60 NAOKFM=F Big=F
 Integral buffers will be    131072 words long.
 Raffenetti 2 integral format.
 Two-electron integral symmetry is turned on.
 Force inversion solution in PCM.
 ------------------------------------------------------------------------------
 Polarizable Continuum Model (PCM)
 =================================
 Model                : PCM.
 Atomic radii         : UFF (Universal Force Field).
 Polarization charges : Total charges.
 Charge compensation  : None.
 Solution method      : Matrix inversion.
 Cavity type          : Scaled VdW (van der Waals Surface) (Alpha=1.100).
 Cavity algorithm     : GePol (No added spheres)
                        Default sphere list used, NSphG=   47.
                        Lebedev-Laikov grids with approx.  5.0 points / Ang**2.
                        Smoothing algorithm: York/Karplus (Gamma=1.0000).
                        Polarization charges: spherical gaussians, with
                                              point-specific exponents (IZeta= 3).
                        Self-potential: point-specific (ISelfS= 7).
                        Self-field    : sphere-specific E.n sum rule (ISelfD= 2).
 1st derivatives      : Analytical E(r).r(x)/FMM algorithm (CHGder, D1EAlg=3).
                        Cavity 1st derivative terms included.
 2nd derivatives      : Analytical E(r).r(xy)/FMM algorithm (CHGder, D2EAlg=3).
                        Cavity 2nd derivative terms included.
 Solvent              : Water, Eps=  78.355300 Eps(inf)=   1.777849
 ------------------------------------------------------------------------------
 One-electron integrals computed using PRISM.
 NBasis=   505 RedAO= T EigKep=  3.34D-04  NBF=   505
 NBsUse=   505 1.00D-06 EigRej= -1.00D+00 NBFU=   505
 ExpMin= 1.61D-01 ExpMax= 4.17D+03 ExpMxC= 6.27D+02 IAcc=3 IRadAn=         5 AccDes= 0.00D+00
 Harris functional with IExCor=  402 and IRadAn=       5 diagonalized for initial guess.
 HarFok:  IExCor=  402 AccDes= 0.00D+00 IRadAn=         5 IDoV= 1 UseB2=F ITyADJ=14
 ICtDFT=  3500011 ScaDFX=  1.000000  1.000000  1.000000  1.000000
 FoFCou: FMM=F IPFlag=           0 FMFlag=      100000 FMFlg1=           0
         NFxFlg=           0 DoJE=T BraDBF=F KetDBF=T FulRan=T
         wScrn=  0.000000 ICntrl=       500 IOpCl=  0 I1Cent=   200000004 NGrid=           0
         NMat0=    1 NMatS0=      1 NMatT0=    0 NMatD0=    1 NMtDS0=    0 NMtDT0=    0
 Petite list used in FoFCou.
 Requested convergence on RMS density matrix=1.00D-08 within  32 cycles.
 Requested convergence on MAX density matrix=1.00D-06.
 Requested convergence on             energy=1.00D-06.
 No special actions if energy rises.
 Inv3:  Mode=1 IEnd=    32848443.
 Iteration    1 A*A^-1 deviation from unit magnitude is 3.33D-15 for   2022.
 Iteration    1 A*A^-1 deviation from orthogonality  is 2.89D-15 for   2017   1022.
 Iteration    1 A^-1*A deviation from unit magnitude is 3.55D-15 for   2022.
 Iteration    1 A^-1*A deviation from orthogonality  is 2.44D-15 for   2055   1214.
 Error on total polarization charges =  0.01179
 SCF Done:  E(RB3LYP) =  -1074.26885239     A.U. after   12 cycles
            NFock= 12  Conv=0.73D-08     -V/T= 2.0098
 QCSCF skips out because SCF is already converged.
 DoSCS=F DFT=T ScalE2(SS,OS)=  1.000000  1.000000
 Range of M.O.s used for correlation:     1   505
 NBasis=   505 NAE=    92 NBE=    92 NFC=     0 NFV=     0
 NROrb=    505 NOA=    92 NOB=    92 NVA=   413 NVB=   413

 **** Warning!!: The largest alpha MO coefficient is  0.10467841D+02

 Symmetrizing basis deriv contribution to polar:
 IMax=3 JMax=2 DiffMx= 0.00D+00
 G2DrvN: will do    48 centers at a time, making    1 passes.
 Calling FoFCou, ICntrl=  3107 FMM=F I1Cent=   0 AccDes= 0.00D+00.
 NEqPCM:  Using equilibrium solvation (IEInf=0, Eps=  78.3553, EpsInf=   1.7778)
 G2PCM: DoFxE=T DoFxN=T DoGrad=T DoDP/DQ/DG/TGxP=FFFF NFrqRd=   0 IEInf=0 SqF1=F DoCFld=F IF1Alg=4.
 End of G2Drv F.D. properties file   721 does not exist.
 End of G2Drv F.D. properties file   722 does not exist.
 End of G2Drv F.D. properties file   788 does not exist.
          IDoAtm=11111111111111111111111111111111111111111111111
 NEqPCM:  Using equilibrium solvation (IEInf=0, Eps=  78.3553, EpsInf=   1.7778)
          Differentiating once with respect to nuclear coordinates.
 CalDSu exits because no D1Ps are significant.
          There are   144 degrees of freedom in the 1st order CPHF.  IDoFFX=6 NUNeed=     0.
    138 vectors produced by pass  0 Test12= 3.80D-14 1.00D-09 XBig12= 1.56D-01 1.42D-01.
 AX will form   138 AO Fock derivatives at one time.
    138 vectors produced by pass  1 Test12= 3.80D-14 1.00D-09 XBig12= 1.79D-02 2.85D-02.
    138 vectors produced by pass  2 Test12= 3.80D-14 1.00D-09 XBig12= 1.52D-04 2.03D-03.
    138 vectors produced by pass  3 Test12= 3.80D-14 1.00D-09 XBig12= 4.28D-07 6.50D-05.
    138 vectors produced by pass  4 Test12= 3.80D-14 1.00D-09 XBig12= 5.68D-10 3.04D-06.
    104 vectors produced by pass  5 Test12= 3.80D-14 1.00D-09 XBig12= 6.24D-13 8.66D-08.
     25 vectors produced by pass  6 Test12= 3.80D-14 1.00D-09 XBig12= 7.15D-16 2.47D-09.
 InvSVY:  IOpt=1 It=  1 EMax= 4.44D-16
 Solved reduced A of dimension   819 with   144 vectors.
 End of Minotr F.D. properties file   721 does not exist.
 End of Minotr F.D. properties file   722 does not exist.
 End of Minotr F.D. properties file   788 does not exist.

 **********************************************************************

            Population analysis using the SCF density.

 **********************************************************************

 Orbital symmetries:
       Occupied  (A) (A) (A) (A) (A) (A) (A) (A) (A) (A) (A) (A)
                 (A) (A) (A) (A) (A) (A) (A) (A) (A) (A) (A) (A)
                 (A) (A) (A) (A) (A) (A) (A) (A) (A) (A) (A) (A)
                 (A) (A) (A) (A) (A) (A) (A) (A) (A) (A) (A) (A)
                 (A) (A) (A) (A) (A) (A) (A) (A) (A) (A) (A) (A)
                 (A) (A) (A) (A) (A) (A) (A) (A) (A) (A) (A) (A)
                 (A) (A) (A) (A) (A) (A) (A) (A) (A) (A) (A) (A)
                 (A) (A) (A) (A) (A) (A) (A) (A)
       Virtual   (A) (A) (A) (A) (A) (A) (A) (A) (A) (A) (A) (A)
                 (A) (A) (A) (A) (A) (A) (A) (A) (A) (A) (A) (A)
                 (A) (A) (A) (A) (A) (A) (A) (A) (A) (A) (A) (A)
                 (A) (A) (A) (A) (A) (A) (A) (A) (A) (A) (A) (A)
                 (A) (A) (A) (A) (A) (A) (A) (A) (A) (A) (A) (A)
                 (A) (A) (A) (A) (A) (A) (A) (A) (A) (A) (A) (A)
                 (A) (A) (A) (A) (A) (A) (A) (A) (A) (A) (A) (A)
                 (A) (A) (A) (A) (A) (A) (A) (A) (A) (A) (A) (A)
                 (A) (A) (A) (A) (A) (A) (A) (A) (A) (A) (A) (A)
                 (A) (A) (A) (A) (A) (A) (A) (A) (A) (A) (A) (A)
                 (A) (A) (A) (A) (A) (A) (A) (A) (A) (A) (A) (A)
                 (A) (A) (A) (A) (A) (A) (A) (A) (A) (A) (A) (A)
                 (A) (A) (A) (A) (A) (A) (A) (A) (A) (A) (A) (A)
                 (A) (A) (A) (A) (A) (A) (A) (A) (A) (A) (A) (A)
                 (A) (A) (A) (A) (A) (A) (A) (A) (A) (A) (A) (A)
                 (A) (A) (A) (A) (A) (A) (A) (A) (A) (A) (A) (A)
                 (A) (A) (A) (A) (A) (A) (A) (A) (A) (A) (A) (A)
                 (A) (A) (A) (A) (A) (A) (A) (A) (A) (A) (A) (A)
                 (A) (A) (A) (A) (A) (A) (A) (A) (A) (A) (A) (A)
                 (A) (A) (A) (A) (A) (A) (A) (A) (A) (A) (A) (A)
                 (A) (A) (A) (A) (A) (A) (A) (A) (A) (A) (A) (A)
                 (A) (A) (A) (A) (A) (A) (A) (A) (A) (A) (A) (A)
                 (A) (A) (A) (A) (A) (A) (A) (A) (A) (A) (A) (A)
                 (A) (A) (A) (A) (A) (A) (A) (A) (A) (A) (A) (A)
                 (A) (A) (A) (A) (A) (A) (A) (A) (A) (A) (A) (A)
                 (A) (A) (A) (A) (A) (A) (A) (A) (A) (A) (A) (A)
                 (A) (A) (A) (A) (A) (A) (A) (A) (A) (A) (A) (A)
                 (A) (A) (A) (A) (A) (A) (A) (A) (A) (A) (A) (A)
                 (A) (A) (A) (A) (A) (A) (A) (A) (A) (A) (A) (A)
                 (A) (A) (A) (A) (A) (A) (A) (A) (A) (A) (A) (A)
                 (A) (A) (A) (A) (A) (A) (A) (A) (A) (A) (A) (A)
                 (A) (A) (A) (A) (A) (A) (A) (A) (A) (A) (A) (A)
                 (A) (A) (A) (A) (A) (A) (A) (A) (A) (A) (A) (A)
                 (A) (A) (A) (A) (A) (A) (A) (A) (A) (A) (A) (A)
                 (A) (A) (A) (A) (A)
 The electronic state is 1-A.
 Alpha  occ. eigenvalues --  -14.33544 -14.33538 -10.22376 -10.22373 -10.22054
 Alpha  occ. eigenvalues --  -10.19548 -10.19548 -10.19371 -10.19337 -10.19284
 Alpha  occ. eigenvalues --  -10.19247 -10.19126 -10.19123 -10.19086 -10.19083
 Alpha  occ. eigenvalues --  -10.19043 -10.19041 -10.19031 -10.19028 -10.18783
 Alpha  occ. eigenvalues --  -10.18766 -10.18743 -10.18741 -10.18161 -10.18141
 Alpha  occ. eigenvalues --  -10.18101 -10.18100  -0.91361  -0.91325  -0.89150
 Alpha  occ. eigenvalues --   -0.84420  -0.84302  -0.83047  -0.79684  -0.77339
 Alpha  occ. eigenvalues --   -0.74428  -0.74164  -0.73786  -0.73316  -0.72005
 Alpha  occ. eigenvalues --   -0.71311  -0.66886  -0.63220  -0.61388  -0.60982
 Alpha  occ. eigenvalues --   -0.59786  -0.59068  -0.58100  -0.57290  -0.55968
 Alpha  occ. eigenvalues --   -0.51907  -0.51656  -0.50732  -0.50232  -0.50221
 Alpha  occ. eigenvalues --   -0.48699  -0.47436  -0.46743  -0.45515  -0.44040
 Alpha  occ. eigenvalues --   -0.43947  -0.43481  -0.43061  -0.42920  -0.41985
 Alpha  occ. eigenvalues --   -0.41965  -0.41278  -0.41180  -0.40772  -0.39869
 Alpha  occ. eigenvalues --   -0.38763  -0.38134  -0.37901  -0.37352  -0.35608
 Alpha  occ. eigenvalues --   -0.35196  -0.34777  -0.34687  -0.34093  -0.33646
 Alpha  occ. eigenvalues --   -0.32817  -0.32548  -0.30591  -0.29543  -0.28596
 Alpha  occ. eigenvalues --   -0.25297  -0.24919  -0.24845  -0.24385  -0.21971
 Alpha  occ. eigenvalues --   -0.20082  -0.19849
 Alpha virt. eigenvalues --   -0.03517  -0.01803  -0.00940  -0.00034   0.00718
 Alpha virt. eigenvalues --    0.01850   0.02064   0.04159   0.09286   0.09439
 Alpha virt. eigenvalues --    0.10004   0.10252   0.11145   0.11405   0.12687
 Alpha virt. eigenvalues --    0.13174   0.13659   0.13870   0.15240   0.15524
 Alpha virt. eigenvalues --    0.15704   0.16176   0.16967   0.17383   0.17615
 Alpha virt. eigenvalues --    0.17783   0.19342   0.19572   0.20150   0.21056
 Alpha virt. eigenvalues --    0.21225   0.22214   0.22594   0.23277   0.24568
 Alpha virt. eigenvalues --    0.25244   0.25942   0.26484   0.26754   0.29433
 Alpha virt. eigenvalues --    0.30006   0.30676   0.31954   0.32348   0.33159
 Alpha virt. eigenvalues --    0.34034   0.34205   0.34786   0.35836   0.36621
 Alpha virt. eigenvalues --    0.37249   0.37744   0.38672   0.40164   0.41077
 Alpha virt. eigenvalues --    0.46494   0.47677   0.48157   0.49586   0.49959
 Alpha virt. eigenvalues --    0.51764   0.51948   0.52118   0.52702   0.53307
 Alpha virt. eigenvalues --    0.53574   0.54356   0.54654   0.54832   0.55938
 Alpha virt. eigenvalues --    0.56186   0.56300   0.56611   0.56931   0.57580
 Alpha virt. eigenvalues --    0.57758   0.58211   0.58682   0.58857   0.59466
 Alpha virt. eigenvalues --    0.59897   0.59931   0.60195   0.60279   0.60544
 Alpha virt. eigenvalues --    0.60662   0.61079   0.61327   0.61493   0.62017
 Alpha virt. eigenvalues --    0.62371   0.62773   0.62858   0.63418   0.64367
 Alpha virt. eigenvalues --    0.64625   0.64978   0.65606   0.67608   0.67969
 Alpha virt. eigenvalues --    0.69558   0.70259   0.70513   0.72505   0.73826
 Alpha virt. eigenvalues --    0.75135   0.76141   0.76536   0.77294   0.77905
 Alpha virt. eigenvalues --    0.78632   0.78974   0.79424   0.79562   0.80432
 Alpha virt. eigenvalues --    0.82095   0.82445   0.82603   0.82917   0.83104
 Alpha virt. eigenvalues --    0.83468   0.84307   0.84545   0.85086   0.85623
 Alpha virt. eigenvalues --    0.85846   0.86662   0.87086   0.87467   0.88233
 Alpha virt. eigenvalues --    0.88924   0.88992   0.89255   0.89286   0.90605
 Alpha virt. eigenvalues --    0.91609   0.91897   0.92241   0.93515   0.94053
 Alpha virt. eigenvalues --    0.95625   0.97780   0.98095   0.99029   0.99555
 Alpha virt. eigenvalues --    0.99783   1.00495   1.00772   1.01437   1.02163
 Alpha virt. eigenvalues --    1.02349   1.03138   1.04912   1.05325   1.09372
 Alpha virt. eigenvalues --    1.10082   1.10639   1.10819   1.11996   1.13175
 Alpha virt. eigenvalues --    1.13858   1.14795   1.15264   1.15652   1.16844
 Alpha virt. eigenvalues --    1.18077   1.18537   1.19381   1.19738   1.24133
 Alpha virt. eigenvalues --    1.24548   1.25579   1.27081   1.27430   1.28185
 Alpha virt. eigenvalues --    1.29517   1.30459   1.31188   1.33277   1.35384
 Alpha virt. eigenvalues --    1.36004   1.36548   1.37762   1.38934   1.39278
 Alpha virt. eigenvalues --    1.40056   1.40210   1.40673   1.41113   1.41243
 Alpha virt. eigenvalues --    1.41683   1.42123   1.42502   1.43176   1.43770
 Alpha virt. eigenvalues --    1.44695   1.45386   1.48227   1.49605   1.52105
 Alpha virt. eigenvalues --    1.52656   1.54254   1.55972   1.57977   1.59774
 Alpha virt. eigenvalues --    1.63167   1.66971   1.70497   1.71825   1.73773
 Alpha virt. eigenvalues --    1.74959   1.75911   1.76702   1.77449   1.77646
 Alpha virt. eigenvalues --    1.78500   1.78904   1.79426   1.80042   1.80483
 Alpha virt. eigenvalues --    1.80790   1.81363   1.82535   1.82888   1.84087
 Alpha virt. eigenvalues --    1.86073   1.86831   1.87331   1.87994   1.88602
 Alpha virt. eigenvalues --    1.89876   1.90541   1.91252   1.92106   1.92984
 Alpha virt. eigenvalues --    1.93477   1.93843   1.93923   1.94183   1.96942
 Alpha virt. eigenvalues --    1.97036   1.97321   1.97830   1.98266   1.98787
 Alpha virt. eigenvalues --    1.99341   1.99606   1.99733   2.00206   2.00940
 Alpha virt. eigenvalues --    2.01718   2.02719   2.05564   2.07807   2.08710
 Alpha virt. eigenvalues --    2.09881   2.10260   2.11195   2.12631   2.13415
 Alpha virt. eigenvalues --    2.14528   2.15338   2.16895   2.17185   2.19362
 Alpha virt. eigenvalues --    2.21291   2.22387   2.23877   2.24529   2.25053
 Alpha virt. eigenvalues --    2.25707   2.26378   2.27127   2.28423   2.29807
 Alpha virt. eigenvalues --    2.30230   2.31087   2.32603   2.33108   2.33935
 Alpha virt. eigenvalues --    2.34700   2.34979   2.35632   2.35969   2.36488
 Alpha virt. eigenvalues --    2.37139   2.37243   2.37754   2.39184   2.39453
 Alpha virt. eigenvalues --    2.40384   2.41695   2.41793   2.44021   2.44269
 Alpha virt. eigenvalues --    2.44390   2.45469   2.46055   2.46653   2.46763
 Alpha virt. eigenvalues --    2.47071   2.47652   2.48258   2.48902   2.49412
 Alpha virt. eigenvalues --    2.49727   2.50230   2.52019   2.52578   2.53426
 Alpha virt. eigenvalues --    2.53711   2.55083   2.56472   2.57128   2.57579
 Alpha virt. eigenvalues --    2.57864   2.59108   2.59666   2.59769   2.60482
 Alpha virt. eigenvalues --    2.61712   2.62694   2.62936   2.64462   2.66236
 Alpha virt. eigenvalues --    2.67196   2.67430   2.69308   2.69953   2.71283
 Alpha virt. eigenvalues --    2.72140   2.74121   2.75820   2.76736   2.77296
 Alpha virt. eigenvalues --    2.77766   2.77907   2.80322   2.81777   2.83579
 Alpha virt. eigenvalues --    2.84366   2.84552   2.87496   2.87783   2.89901
 Alpha virt. eigenvalues --    2.90175   2.91711   2.95089   2.98113   2.98666
 Alpha virt. eigenvalues --    2.99343   3.01797   3.03743   3.06028   3.07953
 Alpha virt. eigenvalues --    3.08440   3.08981   3.17759   3.18196   3.19983
 Alpha virt. eigenvalues --    3.21020   3.24362   3.24624   3.26009   3.26141
 Alpha virt. eigenvalues --    3.26737   3.28590   3.28791   3.29439   3.30035
 Alpha virt. eigenvalues --    3.31918   3.32549   3.37331   3.38328   3.38693
 Alpha virt. eigenvalues --    3.40397   3.47012   3.48625   3.48765   3.51207
 Alpha virt. eigenvalues --    3.53569   3.53824   3.79840   3.82311   3.82639
 Alpha virt. eigenvalues --    3.89884   4.04197   4.04352   4.12460   4.13694
 Alpha virt. eigenvalues --    4.14125   4.14164   4.14280   4.16361   4.17232
 Alpha virt. eigenvalues --    4.19608   4.20908   4.22478   4.25484   4.25627
 Alpha virt. eigenvalues --    4.39134   4.43293   4.44025   4.45421   4.47350
 Alpha virt. eigenvalues --    4.48336   4.53588   4.54635   4.68579   4.83325
 Alpha virt. eigenvalues --    4.83838   4.89923   4.92140
          Condensed to atoms (all electrons):
               1          2          3          4          5          6
     1  N    6.834909   0.296527  -0.070811   0.004482  -0.070767   0.004474
     2  C    0.296527   4.575827   0.537021  -0.021718   0.535843  -0.021779
     3  C   -0.070811   0.537021   4.963756   0.504520  -0.048631  -0.047143
     4  C    0.004482  -0.021718   0.504520   4.940510  -0.044406  -0.052052
     5  C   -0.070767   0.535843  -0.048631  -0.044406   4.959656   0.507044
     6  C    0.004474  -0.021779  -0.047143  -0.052052   0.507044   4.949678
     7  C    0.000555  -0.032676  -0.030878   0.526520  -0.030809   0.515005
     8  C    0.000001   0.000292   0.006070  -0.042488   0.005310  -0.051845
     9  C    0.000000   0.000018  -0.000102   0.004036   0.000328  -0.010119
    10  C    0.000000   0.000000   0.000001  -0.000167   0.000003   0.000712
    11  C   -0.000000   0.000000  -0.000000   0.000000  -0.000000  -0.000005
    12  C   -0.000000   0.000000   0.000000   0.000000   0.000000  -0.000009
    13  N    0.000000  -0.000000  -0.000000  -0.000000   0.000000   0.000000
    14  C    0.000000  -0.000000  -0.000000   0.000004  -0.000020  -0.000101
    15  C    0.000000  -0.000001  -0.000017   0.000787  -0.000137  -0.003365
    16  C   -0.000000  -0.000008   0.000063  -0.000014   0.000251  -0.010109
    17  C   -0.000000  -0.000001  -0.000027   0.000682   0.000007  -0.000216
    18  C   -0.000000  -0.000000  -0.000000  -0.000057  -0.000000  -0.000004
    19  C    0.000000  -0.000000   0.000000  -0.000002   0.000000   0.000007
    20  C    0.000000   0.000000  -0.000000  -0.000006  -0.000005  -0.000004
    21  C   -0.000000   0.000001  -0.000024  -0.000316  -0.000177   0.001532
    22  C    0.000000   0.000000   0.000051   0.001263   0.000001  -0.000182
    23  C    0.000000  -0.000015   0.000329  -0.012599  -0.000139   0.005633
    24  C    0.000000  -0.000006   0.000030  -0.001056  -0.000003   0.000089
    25  C    0.000000   0.000000  -0.000007  -0.000230  -0.000000   0.000002
    26  C   -0.000000   0.000000  -0.000001  -0.000035  -0.000000   0.000000
    27  C    0.000000   0.000000  -0.000000  -0.000020  -0.000000   0.000003
    28  H    0.343287  -0.025035   0.005498  -0.000180  -0.009317  -0.000053
    29  H    0.343304  -0.025032  -0.009442  -0.000060   0.005549  -0.000182
    30  H   -0.007447  -0.043758   0.363621  -0.032668   0.005374   0.000641
    31  H   -0.000116   0.004225  -0.040183   0.363663   0.000457   0.005939
    32  H   -0.007425  -0.043160   0.005446   0.000606   0.363432  -0.032734
    33  H   -0.000116   0.004077   0.000557   0.005388  -0.037117   0.366040
    34  H    0.000000   0.000000   0.000000   0.000002   0.000000  -0.000012
    35  H   -0.000000   0.000000   0.000000  -0.000000  -0.000000  -0.000000
    36  H    0.000000  -0.000000   0.000000  -0.000000   0.000000   0.000000
    37  H   -0.000000  -0.000000   0.000000  -0.000000   0.000000   0.000000
    38  H    0.000000  -0.000000  -0.000000   0.000000  -0.000001   0.000000
    39  H    0.000000  -0.000036  -0.000011   0.000201  -0.000005   0.002872
    40  H    0.000000  -0.000000   0.000000   0.000001  -0.000000   0.000000
    41  H    0.000000   0.000000  -0.000000  -0.000000   0.000000   0.000000
    42  H    0.000000  -0.000000   0.000000   0.000000  -0.000000   0.000001
    43  H    0.000000   0.000003  -0.000015   0.000037   0.000199   0.003830
    44  H    0.000000  -0.000002  -0.000003   0.000843  -0.000001  -0.000122
    45  H    0.000000  -0.000000  -0.000000  -0.000001   0.000000  -0.000000
    46  H   -0.000000  -0.000000   0.000000  -0.000000  -0.000000   0.000000
    47  H   -0.000000   0.000000  -0.000000  -0.000000   0.000000  -0.000000
               7          8          9         10         11         12
     1  N    0.000555   0.000001   0.000000   0.000000  -0.000000  -0.000000
     2  C   -0.032676   0.000292   0.000018   0.000000   0.000000   0.000000
     3  C   -0.030878   0.006070  -0.000102   0.000001  -0.000000   0.000000
     4  C    0.526520  -0.042488   0.004036  -0.000167   0.000000   0.000000
     5  C   -0.030809   0.005310   0.000328   0.000003  -0.000000   0.000000
     6  C    0.515005  -0.051845  -0.010119   0.000712  -0.000005  -0.000009
     7  C    4.854808   0.297814  -0.032953   0.004162  -0.000075  -0.000019
     8  C    0.297814   5.503841   0.297310  -0.042462   0.005862   0.000357
     9  C   -0.032953   0.297310   4.852317   0.528470  -0.033311  -0.030182
    10  C    0.004162  -0.042462   0.528470   4.938637   0.507576  -0.023395
    11  C   -0.000075   0.005862  -0.033311   0.507576   4.960951   0.536938
    12  C   -0.000019   0.000357  -0.030182  -0.023395   0.536938   4.577539
    13  N   -0.000000   0.000002   0.000607   0.004447  -0.070615   0.297465
    14  C    0.000475   0.005179  -0.033494  -0.043420  -0.049307   0.536092
    15  C   -0.010197  -0.051184   0.518525  -0.054954  -0.045677  -0.023565
    16  C   -0.062594   0.280515  -0.036888  -0.013114   0.000413  -0.000037
    17  C    0.001845  -0.058705  -0.001467   0.001231   0.000060  -0.000001
    18  C   -0.000112   0.013102  -0.000165  -0.000038  -0.000000   0.000000
    19  C    0.000025  -0.000486   0.000043  -0.000033  -0.000001   0.000000
    20  C    0.000079   0.005893   0.000050  -0.000174  -0.000007   0.000000
    21  C   -0.004870  -0.075884  -0.002973  -0.000580   0.000017  -0.000003
    22  C   -0.001481  -0.058802   0.001588   0.000795  -0.000034   0.000000
    23  C   -0.036588   0.280225  -0.062763  -0.000036  -0.000016   0.000051
    24  C   -0.003251  -0.075359  -0.004598  -0.000357  -0.000031   0.000007
    25  C    0.000058   0.005880   0.000085  -0.000011  -0.000001   0.000000
    26  C    0.000043  -0.000489   0.000026  -0.000002   0.000000  -0.000000
    27  C   -0.000166   0.013129  -0.000108  -0.000060  -0.000001   0.000000
    28  H   -0.000004  -0.000000   0.000000   0.000000  -0.000000   0.000000
    29  H   -0.000004  -0.000000   0.000000  -0.000000   0.000000   0.000000
    30  H    0.003890  -0.000151   0.000001  -0.000000   0.000000   0.000000
    31  H   -0.037567  -0.013540   0.000175   0.000001   0.000000  -0.000000
    32  H    0.003706  -0.000142   0.000001  -0.000000  -0.000000  -0.000000
    33  H   -0.043524  -0.009159   0.006625   0.000169  -0.000053   0.000008
    34  H    0.000184  -0.013096  -0.037896   0.364061  -0.039815   0.004153
    35  H    0.000001  -0.000152   0.003820  -0.032560   0.364080  -0.044221
    36  H   -0.000000  -0.000000  -0.000003  -0.000172   0.005504  -0.024938
    37  H   -0.000000  -0.000000   0.000003  -0.000032  -0.009292  -0.025082
    38  H    0.000006  -0.000147   0.003675   0.000638   0.005357  -0.043621
    39  H    0.006595  -0.008886  -0.043582   0.005303   0.000589   0.004063
    40  H    0.000002  -0.000185   0.000001  -0.000000   0.000000   0.000000
    41  H    0.000000   0.000009   0.000000  -0.000000   0.000000   0.000000
    42  H    0.000001  -0.000146   0.000001  -0.000001  -0.000000  -0.000000
    43  H    0.000837  -0.006506   0.001328   0.000923  -0.000002  -0.000001
    44  H    0.001254  -0.006504   0.001019   0.000042  -0.000015  -0.000009
    45  H    0.000001  -0.000146   0.000001   0.000000   0.000000  -0.000000
    46  H    0.000000   0.000009   0.000000  -0.000000  -0.000000  -0.000000
    47  H    0.000001  -0.000185   0.000002   0.000001   0.000000  -0.000000
              13         14         15         16         17         18
     1  N    0.000000   0.000000   0.000000  -0.000000  -0.000000  -0.000000
     2  C   -0.000000  -0.000000  -0.000001  -0.000008  -0.000001  -0.000000
     3  C   -0.000000  -0.000000  -0.000017   0.000063  -0.000027  -0.000000
     4  C   -0.000000   0.000004   0.000787  -0.000014   0.000682  -0.000057
     5  C    0.000000  -0.000020  -0.000137   0.000251   0.000007  -0.000000
     6  C    0.000000  -0.000101  -0.003365  -0.010109  -0.000216  -0.000004
     7  C   -0.000000   0.000475  -0.010197  -0.062594   0.001845  -0.000112
     8  C    0.000002   0.005179  -0.051184   0.280515  -0.058705   0.013102
     9  C    0.000607  -0.033494   0.518525  -0.036888  -0.001467  -0.000165
    10  C    0.004447  -0.043420  -0.054954  -0.013114   0.001231  -0.000038
    11  C   -0.070615  -0.049307  -0.045677   0.000413   0.000060  -0.000000
    12  C    0.297465   0.536092  -0.023565  -0.000037  -0.000001   0.000000
    13  N    6.832829  -0.070601   0.004423  -0.000000   0.000000   0.000000
    14  C   -0.070601   4.959417   0.508484  -0.000122   0.000002  -0.000000
    15  C    0.004423   0.508484   4.947233   0.005603  -0.000201   0.000003
    16  C   -0.000000  -0.000122   0.005603   5.041473   0.469576  -0.078952
    17  C    0.000000   0.000002  -0.000201   0.469576   4.950183   0.480239
    18  C    0.000000  -0.000000   0.000003  -0.078952   0.480239   5.102209
    19  C   -0.000000  -0.000000   0.000000  -0.041447  -0.002731   0.485876
    20  C    0.000000  -0.000000   0.000002  -0.017751  -0.039677  -0.032500
    21  C    0.000000  -0.000005   0.000123   0.487140  -0.034324  -0.058854
    22  C   -0.000000   0.000006  -0.000226   0.000962   0.272488  -0.096500
    23  C    0.000000   0.000132  -0.009409  -0.079655   0.000898   0.011338
    24  C   -0.000000  -0.000202   0.001522   0.007626   0.012818  -0.000313
    25  C    0.000000  -0.000005   0.000005  -0.000293   0.000287   0.000027
    26  C    0.000000   0.000000   0.000006  -0.000346   0.008830   0.000127
[...]
   295    C   20  pz     Ryd( 3p)     0.00457
   296    C   20  dxy    Ryd( 3d)     0.00044
   297    C   20  dxz    Ryd( 3d)     0.00030
   298    C   20  dyz    Ryd( 3d)     0.00061
   299    C   20  dx2y2  Ryd( 3d)     0.00038
   300    C   20  dz2    Ryd( 3d)     0.00064

   301    C   21  S      Cor( 1S)     1.99899
   302    C   21  S      Val( 2S)     0.93983
   303    C   21  S      Ryd( 3S)     0.00071
   304    C   21  S      Ryd( 4S)     0.00004
   305    C   21  px     Val( 2p)     1.03202
   306    C   21  px     Ryd( 3p)     0.00147
   307    C   21  py     Val( 2p)     1.18759
   308    C   21  py     Ryd( 3p)     0.00433
   309    C   21  pz     Val( 2p)     1.08258
   310    C   21  pz     Ryd( 3p)     0.00409
   311    C   21  dxy    Ryd( 3d)     0.00033
   312    C   21  dxz    Ryd( 3d)     0.00077
   313    C   21  dyz    Ryd( 3d)     0.00061
   314    C   21  dx2y2  Ryd( 3d)     0.00052
   315    C   21  dz2    Ryd( 3d)     0.00060

   316    C   22  S      Cor( 1S)     1.99896
   317    C   22  S      Val( 2S)     0.84798
   318    C   22  S      Ryd( 3S)     0.00064
   319    C   22  S      Ryd( 4S)     0.00007
   320    C   22  px     Val( 2p)     1.08218
   321    C   22  px     Ryd( 3p)     0.00180
   322    C   22  py     Val( 2p)     1.09048
   323    C   22  py     Ryd( 3p)     0.00575
   324    C   22  pz     Val( 2p)     1.07350
   325    C   22  pz     Ryd( 3p)     0.00479
   326    C   22  dxy    Ryd( 3d)     0.00052
   327    C   22  dxz    Ryd( 3d)     0.00085
   328    C   22  dyz    Ryd( 3d)     0.00067
   329    C   22  dx2y2  Ryd( 3d)     0.00042
   330    C   22  dz2    Ryd( 3d)     0.00063

   331    C   23  S      Cor( 1S)     1.99899
   332    C   23  S      Val( 2S)     0.85132
   333    C   23  S      Ryd( 3S)     0.00144
   334    C   23  S      Ryd( 4S)     0.00005
   335    C   23  px     Val( 2p)     1.07218
   336    C   23  px     Ryd( 3p)     0.00287
   337    C   23  py     Val( 2p)     1.03554
   338    C   23  py     Ryd( 3p)     0.00542
   339    C   23  pz     Val( 2p)     1.06557
   340    C   23  pz     Ryd( 3p)     0.00413
   341    C   23  dxy    Ryd( 3d)     0.00063
   342    C   23  dxz    Ryd( 3d)     0.00059
   343    C   23  dyz    Ryd( 3d)     0.00074
   344    C   23  dx2y2  Ryd( 3d)     0.00043
   345    C   23  dz2    Ryd( 3d)     0.00069

   346    C   24  S      Cor( 1S)     1.99899
   347    C   24  S      Val( 2S)     0.93980
   348    C   24  S      Ryd( 3S)     0.00071
   349    C   24  S      Ryd( 4S)     0.00004
   350    C   24  px     Val( 2p)     1.03211
   351    C   24  px     Ryd( 3p)     0.00146
   352    C   24  py     Val( 2p)     1.18707
   353    C   24  py     Ryd( 3p)     0.00433
   354    C   24  pz     Val( 2p)     1.08294
   355    C   24  pz     Ryd( 3p)     0.00410
   356    C   24  dxy    Ryd( 3d)     0.00034
   357    C   24  dxz    Ryd( 3d)     0.00077
   358    C   24  dyz    Ryd( 3d)     0.00061
   359    C   24  dx2y2  Ryd( 3d)     0.00052
   360    C   24  dz2    Ryd( 3d)     0.00060

   361    C   25  S      Cor( 1S)     1.99913
   362    C   25  S      Val( 2S)     0.94665
   363    C   25  S      Ryd( 3S)     0.00058
   364    C   25  S      Ryd( 4S)     0.00003
   365    C   25  px     Val( 2p)     1.15441
   366    C   25  px     Ryd( 3p)     0.00351
   367    C   25  py     Val( 2p)     1.06109
   368    C   25  py     Ryd( 3p)     0.00504
   369    C   25  pz     Val( 2p)     1.18039
   370    C   25  pz     Ryd( 3p)     0.00457
   371    C   25  dxy    Ryd( 3d)     0.00044
   372    C   25  dxz    Ryd( 3d)     0.00030
   373    C   25  dyz    Ryd( 3d)     0.00061
   374    C   25  dx2y2  Ryd( 3d)     0.00038
   375    C   25  dz2    Ryd( 3d)     0.00064

   376    C   26  S      Cor( 1S)     1.99913
   377    C   26  S      Val( 2S)     0.95838
   378    C   26  S      Ryd( 3S)     0.00051
   379    C   26  S      Ryd( 4S)     0.00003
   380    C   26  px     Val( 2p)     1.01367
   381    C   26  px     Ryd( 3p)     0.00102
   382    C   26  py     Val( 2p)     1.14046
   383    C   26  py     Ryd( 3p)     0.00491
   384    C   26  pz     Val( 2p)     1.11747
   385    C   26  pz     Ryd( 3p)     0.00453
   386    C   26  dxy    Ryd( 3d)     0.00053
   387    C   26  dxz    Ryd( 3d)     0.00060
   388    C   26  dyz    Ryd( 3d)     0.00077
   389    C   26  dx2y2  Ryd( 3d)     0.00043
   390    C   26  dz2    Ryd( 3d)     0.00053

   391    C   27  S      Cor( 1S)     1.99904
   392    C   27  S      Val( 2S)     0.93786
   393    C   27  S      Ryd( 3S)     0.00064
   394    C   27  S      Ryd( 4S)     0.00005
   395    C   27  px     Val( 2p)     1.09675
   396    C   27  px     Ryd( 3p)     0.00261
   397    C   27  py     Val( 2p)     1.17555
   398    C   27  py     Ryd( 3p)     0.00450
   399    C   27  pz     Val( 2p)     1.07622
   400    C   27  pz     Ryd( 3p)     0.00361
   401    C   27  dxy    Ryd( 3d)     0.00031
   402    C   27  dxz    Ryd( 3d)     0.00053
   403    C   27  dyz    Ryd( 3d)     0.00071
   404    C   27  dx2y2  Ryd( 3d)     0.00049
   405    C   27  dz2    Ryd( 3d)     0.00051

   406    H   28  S      Val( 1S)     0.56524
   407    H   28  S      Ryd( 2S)     0.00088
   408    H   28  px     Ryd( 2p)     0.00022
   409    H   28  py     Ryd( 2p)     0.00042
   410    H   28  pz     Ryd( 2p)     0.00059

   411    H   29  S      Val( 1S)     0.56551
   412    H   29  S      Ryd( 2S)     0.00089
   413    H   29  px     Ryd( 2p)     0.00050
   414    H   29  py     Ryd( 2p)     0.00039
   415    H   29  pz     Ryd( 2p)     0.00035

   416    H   30  S      Val( 1S)     0.73989
   417    H   30  S      Ryd( 2S)     0.00077
   418    H   30  px     Ryd( 2p)     0.00026
   419    H   30  py     Ryd( 2p)     0.00010
   420    H   30  pz     Ryd( 2p)     0.00022

   421    H   31  S      Val( 1S)     0.73185
   422    H   31  S      Ryd( 2S)     0.00087
   423    H   31  px     Ryd( 2p)     0.00009
   424    H   31  py     Ryd( 2p)     0.00031
   425    H   31  pz     Ryd( 2p)     0.00020

   426    H   32  S      Val( 1S)     0.73971
   427    H   32  S      Ryd( 2S)     0.00077
   428    H   32  px     Ryd( 2p)     0.00006
   429    H   32  py     Ryd( 2p)     0.00032
   430    H   32  pz     Ryd( 2p)     0.00020

   431    H   33  S      Val( 1S)     0.73835
   432    H   33  S      Ryd( 2S)     0.00081
   433    H   33  px     Ryd( 2p)     0.00027
   434    H   33  py     Ryd( 2p)     0.00011
   435    H   33  pz     Ryd( 2p)     0.00021

   436    H   34  S      Val( 1S)     0.73215
   437    H   34  S      Ryd( 2S)     0.00088
   438    H   34  px     Ryd( 2p)     0.00009
   439    H   34  py     Ryd( 2p)     0.00031
   440    H   34  pz     Ryd( 2p)     0.00021

   441    H   35  S      Val( 1S)     0.74032
   442    H   35  S      Ryd( 2S)     0.00077
   443    H   35  px     Ryd( 2p)     0.00026
   444    H   35  py     Ryd( 2p)     0.00011
   445    H   35  pz     Ryd( 2p)     0.00021

   446    H   36  S      Val( 1S)     0.56598
   447    H   36  S      Ryd( 2S)     0.00090
   448    H   36  px     Ryd( 2p)     0.00026
   449    H   36  py     Ryd( 2p)     0.00063
   450    H   36  pz     Ryd( 2p)     0.00034

   451    H   37  S      Val( 1S)     0.56578
   452    H   37  S      Ryd( 2S)     0.00088
   453    H   37  px     Ryd( 2p)     0.00040
   454    H   37  py     Ryd( 2p)     0.00023
   455    H   37  pz     Ryd( 2p)     0.00060

   456    H   38  S      Val( 1S)     0.73999
   457    H   38  S      Ryd( 2S)     0.00078
   458    H   38  px     Ryd( 2p)     0.00006
   459    H   38  py     Ryd( 2p)     0.00031
   460    H   38  pz     Ryd( 2p)     0.00021

   461    H   39  S      Val( 1S)     0.73878
   462    H   39  S      Ryd( 2S)     0.00081
   463    H   39  px     Ryd( 2p)     0.00027
   464    H   39  py     Ryd( 2p)     0.00011
   465    H   39  pz     Ryd( 2p)     0.00021

   466    H   40  S      Val( 1S)     0.77211
   467    H   40  S      Ryd( 2S)     0.00084
   468    H   40  px     Ryd( 2p)     0.00016
   469    H   40  py     Ryd( 2p)     0.00037
   470    H   40  pz     Ryd( 2p)     0.00008

   471    H   41  S      Val( 1S)     0.76990
   472    H   41  S      Ryd( 2S)     0.00074
   473    H   41  px     Ryd( 2p)     0.00013
   474    H   41  py     Ryd( 2p)     0.00027
   475    H   41  pz     Ryd( 2p)     0.00022

   476    H   42  S      Val( 1S)     0.77416
   477    H   42  S      Ryd( 2S)     0.00063
   478    H   42  px     Ryd( 2p)     0.00019
   479    H   42  py     Ryd( 2p)     0.00007
   480    H   42  pz     Ryd( 2p)     0.00038

   481    H   43  S      Val( 1S)     0.76821
   482    H   43  S      Ryd( 2S)     0.00096
   483    H   43  px     Ryd( 2p)     0.00014
   484    H   43  py     Ryd( 2p)     0.00037
   485    H   43  pz     Ryd( 2p)     0.00011

   486    H   44  S      Val( 1S)     0.76823
   487    H   44  S      Ryd( 2S)     0.00096
   488    H   44  px     Ryd( 2p)     0.00014
   489    H   44  py     Ryd( 2p)     0.00037
   490    H   44  pz     Ryd( 2p)     0.00011

   491    H   45  S      Val( 1S)     0.77418
   492    H   45  S      Ryd( 2S)     0.00063
   493    H   45  px     Ryd( 2p)     0.00019
   494    H   45  py     Ryd( 2p)     0.00007
   495    H   45  pz     Ryd( 2p)     0.00038

   496    H   46  S      Val( 1S)     0.76995
   497    H   46  S      Ryd( 2S)     0.00074
   498    H   46  px     Ryd( 2p)     0.00013
   499    H   46  py     Ryd( 2p)     0.00027
   500    H   46  pz     Ryd( 2p)     0.00022

   501    H   47  S      Val( 1S)     0.77218
   502    H   47  S      Ryd( 2S)     0.00084
   503    H   47  px     Ryd( 2p)     0.00016
   504    H   47  py     Ryd( 2p)     0.00037
   505    H   47  pz     Ryd( 2p)     0.00009

 WARNING:  1 low occupancy (<1.9990e) core orbital  found on  C    2
           1 low occupancy (<1.9990e) core orbital  found on  C    7
           1 low occupancy (<1.9990e) core orbital  found on  C    8
           1 low occupancy (<1.9990e) core orbital  found on  C    9
           1 low occupancy (<1.9990e) core orbital  found on  C   12
           1 low occupancy (<1.9990e) core orbital  found on  C   16
           1 low occupancy (<1.9990e) core orbital  found on  C   17
           1 low occupancy (<1.9990e) core orbital  found on  C   21
           1 low occupancy (<1.9990e) core orbital  found on  C   22
           1 low occupancy (<1.9990e) core orbital  found on  C   23
           1 low occupancy (<1.9990e) core orbital  found on  C   24


 Summary of Natural Population Analysis:                  
                                                          
                                       Natural Population 
                Natural  -----------------------------------------------
    Atom  No    Charge         Core      Valence    Rydberg      Total
 -----------------------------------------------------------------------
      N    1   -0.76647      1.99949     5.75649    0.01049     7.76647
      C    2    0.19781      1.99898     3.78651    0.01671     5.80219
      C    3   -0.24167      1.99905     4.22976    0.01287     6.24167
      C    4   -0.21378      1.99904     4.20169    0.01305     6.21378
      C    5   -0.25488      1.99904     4.24271    0.01313     6.25488
      C    6   -0.21555      1.99905     4.20341    0.01310     6.21555
      C    7    0.03565      1.99900     3.94810    0.01725     5.96435
      C    8   -0.10159      1.99894     4.08395    0.01869     6.10159
      C    9    0.03309      1.99900     3.95066    0.01725     5.96691
      C   10   -0.21431      1.99904     4.20223    0.01304     6.21431
      C   11   -0.24242      1.99905     4.23051    0.01286     6.24242
      C   12    0.19698      1.99897     3.78730    0.01674     5.80302
      N   13   -0.76946      1.99949     5.75945    0.01052     7.76946
      C   14   -0.25624      1.99904     4.24408    0.01311     6.25624
      C   15   -0.21561      1.99905     4.20346    0.01310     6.21561
      C   16   -0.04040      1.99899     4.02442    0.01699     6.04040
      C   17   -0.10885      1.99896     4.09374    0.01615     6.10885
      C   18   -0.29954      1.99904     4.28654    0.01396     6.29954
      C   19   -0.24258      1.99913     4.22959    0.01386     6.24258
      C   20   -0.35789      1.99913     4.34267    0.01609     6.35789
      C   21   -0.25449      1.99899     4.24202    0.01348     6.25449
      C   22   -0.10924      1.99896     4.09413    0.01615     6.10924
      C   23   -0.04060      1.99899     4.02462    0.01699     6.04060
      C   24   -0.25439      1.99899     4.24193    0.01347     6.25439
      C   25   -0.35775      1.99913     4.34254    0.01609     6.35775
      C   26   -0.24297      1.99913     4.22998    0.01386     6.24297
      C   27   -0.29937      1.99904     4.28638    0.01395     6.29937
      H   28    0.43266      0.00000     0.56524    0.00211     0.56734
      H   29    0.43237      0.00000     0.56551    0.00212     0.56763
      H   30    0.25876      0.00000     0.73989    0.00135     0.74124
      H   31    0.26668      0.00000     0.73185    0.00147     0.73332
      H   32    0.25893      0.00000     0.73971    0.00136     0.74107
      H   33    0.26024      0.00000     0.73835    0.00141     0.73976
      H   34    0.26637      0.00000     0.73215    0.00148     0.73363
      H   35    0.25833      0.00000     0.74032    0.00135     0.74167
      H   36    0.43189      0.00000     0.56598    0.00213     0.56811
      H   37    0.43210      0.00000     0.56578    0.00212     0.56790
      H   38    0.25865      0.00000     0.73999    0.00136     0.74135
      H   39    0.25982      0.00000     0.73878    0.00140     0.74018
      H   40    0.22643      0.00000     0.77211    0.00145     0.77357
      H   41    0.22874      0.00000     0.76990    0.00136     0.77126
      H   42    0.22457      0.00000     0.77416    0.00127     0.77543
      H   43    0.23021      0.00000     0.76821    0.00158     0.76979
      H   44    0.23018      0.00000     0.76823    0.00158     0.76982
      H   45    0.22455      0.00000     0.77418    0.00127     0.77545
      H   46    0.22869      0.00000     0.76995    0.00136     0.77131
      H   47    0.22637      0.00000     0.77218    0.00145     0.77363
 =======================================================================
   * Total *   -0.00000     53.97467   129.60133    0.42399   184.00000

                                 Natural Population      
 --------------------------------------------------------
   Core                      53.97467 ( 99.9531% of  54)
   Valence                  129.60133 ( 99.6933% of 130)
   Natural Minimal Basis    183.57601 ( 99.7696% of 184)
   Natural Rydberg Basis      0.42399 (  0.2304% of 184)
 --------------------------------------------------------

    Atom  No          Natural Electron Configuration
 ----------------------------------------------------------------------------
      N    1      [core]2S( 1.37)2p( 4.39)3p( 0.01)
      C    2      [core]2S( 0.85)2p( 2.93)3p( 0.01)
      C    3      [core]2S( 0.96)2p( 3.27)3p( 0.01)
      C    4      [core]2S( 0.95)2p( 3.25)3p( 0.01)
      C    5      [core]2S( 0.96)2p( 3.28)3p( 0.01)
      C    6      [core]2S( 0.95)2p( 3.25)3p( 0.01)
      C    7      [core]2S( 0.88)2p( 3.07)3p( 0.01)
      C    8      [core]2S( 0.89)2p( 3.20)3p( 0.01)
      C    9      [core]2S( 0.88)2p( 3.07)3p( 0.01)
      C   10      [core]2S( 0.95)2p( 3.25)3p( 0.01)
      C   11      [core]2S( 0.96)2p( 3.27)3p( 0.01)
      C   12      [core]2S( 0.85)2p( 2.93)3p( 0.01)
      N   13      [core]2S( 1.37)2p( 4.39)3p( 0.01)
      C   14      [core]2S( 0.96)2p( 3.28)3p( 0.01)
      C   15      [core]2S( 0.95)2p( 3.25)3p( 0.01)
      C   16      [core]2S( 0.85)2p( 3.17)3p( 0.01)
      C   17      [core]2S( 0.85)2p( 3.25)3p( 0.01)
      C   18      [core]2S( 0.94)2p( 3.35)3p( 0.01)
      C   19      [core]2S( 0.96)2p( 3.27)3p( 0.01)
      C   20      [core]2S( 0.95)2p( 3.40)3p( 0.01)
      C   21      [core]2S( 0.94)2p( 3.30)3p( 0.01)
      C   22      [core]2S( 0.85)2p( 3.25)3p( 0.01)
      C   23      [core]2S( 0.85)2p( 3.17)3p( 0.01)
      C   24      [core]2S( 0.94)2p( 3.30)3p( 0.01)
      C   25      [core]2S( 0.95)2p( 3.40)3p( 0.01)
      C   26      [core]2S( 0.96)2p( 3.27)3p( 0.01)
      C   27      [core]2S( 0.94)2p( 3.35)3p( 0.01)
      H   28            1S( 0.57)
      H   29            1S( 0.57)
      H   30            1S( 0.74)
      H   31            1S( 0.73)
      H   32            1S( 0.74)
      H   33            1S( 0.74)
      H   34            1S( 0.73)
      H   35            1S( 0.74)
      H   36            1S( 0.57)
      H   37            1S( 0.57)
      H   38            1S( 0.74)
      H   39            1S( 0.74)
      H   40            1S( 0.77)
      H   41            1S( 0.77)
      H   42            1S( 0.77)
      H   43            1S( 0.77)
      H   44            1S( 0.77)
      H   45            1S( 0.77)
      H   46            1S( 0.77)
      H   47            1S( 0.77)


 NBO analysis skipped by request.
 1\1\GINC-DRG2-W001\SP\RB3LYP TD-FC\6-31G(d,p)\C25H20N2\QDUEZ\18-Jul-20
 24\0\\# TD(NStates=10, Root=1) B3LYP/6-31G** SCRF=(Solvent=water) volu
 me pop=NPA density=current Geom=AllCheck Guess=Read\\KIFDSGGWDIVQGN-UH
 FFFAOYSA-N_conf_4\\0,1\N,0,-4.2102857593,-3.7426268151,0.8079044489\C,
 0,-3.214935259,-2.7816128502,0.6234855912\C,0,-3.3936339535,-1.7128891
 344,-0.2711261838\C,0,-2.3701122825,-0.7959918565,-0.5027313275\C,0,-1
 .9732656383,-2.8902169498,1.27539704\C,0,-0.9590753478,-1.9682152371,1
 .0335415193\C,0,-1.1269908196,-0.9007373232,0.1365493902\C,0,-0.025747
 9726,0.1678937865,-0.0333173737\C,0,1.3909411058,-0.4452533082,-0.0573
 146064\C,0,2.4916077786,0.1998662432,0.5234083968\C,0,3.7827342604,-0.
 3139929798,0.4180521182\C,0,4.0292023663,-1.5045834991,-0.28632173\N,0
 ,5.326782316,-1.9924075387,-0.4488104216\C,0,2.9311384755,-2.156607213
 7,-0.8760065248\C,0,1.6466149332,-1.6333679236,-0.7612389729\C,0,-0.20
 32959003,1.2372231936,1.0628179793\C,0,-0.4560777934,2.5028891223,0.49
 97546335\C,0,-0.6710536567,3.61719711,1.3154387969\C,0,-0.6294302956,3
 .4560795971,2.7022300566\C,0,-0.3789938971,2.1983386043,3.2633682035\C
 ,0,-0.167904875,1.0820904576,2.4452763735\C,0,-0.4458785957,2.37716674
 1,-0.9630046526\C,0,-0.2102634286,1.0299351761,-1.2980428954\C,0,-0.14
 55191632,0.6431090166,-2.6332002716\C,0,-0.3239043127,1.6068393336,-3.
 6328019373\C,0,-0.5584602523,2.9457200506,-3.2982877817\C,0,-0.6199698
 456,3.3409400929,-1.9600455857\H,0,-4.1660190575,-4.2319139897,1.69290
 68225\H,0,-5.1505362201,-3.4185753504,0.6193510812\H,0,-4.34226275,-1.
 6025469398,-0.7905778962\H,0,-2.5515958626,0.0175103861,-1.1971525163\
 H,0,-1.8044845533,-3.7069680693,1.9728060245\H,0,-0.0125628146,-2.0905
 149604,1.5506128578\H,0,2.3454236204,1.1219292396,1.0759506898\H,0,4.6
 104432731,0.21152106,0.8877581374\H,0,5.385692539,-2.9877972868,-0.622
 5121831\H,0,5.9786441486,-1.7106446633,0.2724087116\H,0,3.0895327235,-
 3.0816755917,-1.4246623457\H,0,0.8238172894,-2.1730310485,-1.219443363
 9\H,0,-0.8684837914,4.5937336432,0.8823625256\H,0,-0.7942085849,4.3122
 115451,3.3497941856\H,0,-0.3502455307,2.0860714572,4.3431972082\H,0,0.
 0186894744,0.1094408338,2.8904995817\H,0,0.0427899032,-0.3916180952,-2
 .9032751833\H,0,-0.2774826711,1.3124798842,-4.6771451306\H,0,-0.691928
 5079,3.6825374323,-4.0848878825\H,0,-0.7994448146,4.3810646174,-1.7029
 656071\\Version=ES64L-G16RevA.03\State=1-A\HF=-1074.2737146\RMSD=5.471
 e-09\Dipole=0.9840902,-6.8878538,1.3989494\Quadrupole=36.2622189,-7.17
 70619,-29.085157,4.0764268,-1.5618548,-6.5324967\PG=C01 [X(C25H20N2)]\
 \@


 ABALONE: AN EXPRESSION OF DISBELIEF.
 Job cpu time:       0 days  2 hours 36 minutes  6.7 seconds.
 Elapsed time:       0 days  0 hours 52 minutes 10.6 seconds.
 File lengths (MBytes):  RWF=   1955 Int=      0 D2E=      0 Chk=    123 Scr=      1
 Normal termination of Gaussian 16 at Thu Jul 18 08:39:14 2024.
