 Entering Gaussian System, Link 0=g16
 Initial command:
 /opt/sw/arch/manual/gaussian/G16_A03/g16/l1.exe "/scratch/1380979/Gau-213044.inp" -scrdir="/scratch/1380979/"
 Entering Link 1 = /opt/sw/arch/manual/gaussian/G16_A03/g16/l1.exe PID=    213045.
  
 Copyright (c) 1988,1990,1992,1993,1995,1998,2003,2009,2016,
            Gaussian, Inc.  All Rights Reserved.
  
 This is part of the Gaussian(R) 16 program.  It is based on
 the Gaussian(R) 09 system (copyright 2009, Gaussian, Inc.),
 the Gaussian(R) 03 system (copyright 2003, Gaussian, Inc.),
 the Gaussian(R) 98 system (copyright 1998, Gaussian, Inc.),
 the Gaussian(R) 94 system (copyright 1995, Gaussian, Inc.),
 the Gaussian 92(TM) system (copyright 1992, Gaussian, Inc.),
 the Gaussian 90(TM) system (copyright 1990, Gaussian, Inc.),
 the Gaussian 88(TM) system (copyright 1988, Gaussian, Inc.),
 the Gaussian 86(TM) system (copyright 1986, Carnegie Mellon
 University), and the Gaussian 82(TM) system (copyright 1983,
 Carnegie Mellon University). Gaussian is a federally registered
 trademark of Gaussian, Inc.
  
 This software contains proprietary and confidential information,
 including trade secrets, belonging to Gaussian, Inc.
  
 This software is provided under written license and may be
 used, copied, transmitted, or stored only in accord with that
 written license.
  
 The following legend is applicable only to US Government
 contracts under FAR:
  
                    RESTRICTED RIGHTS LEGEND
  
 Use, reproduction and disclosure by the US Government is
 subject to restrictions as set forth in subparagraphs (a)
 and (c) of the Commercial Computer Software - Restricted
 Rights clause in FAR 52.227-19.
  
 Gaussian, Inc.
 340 Quinnipiac St., Bldg. 40, Wallingford CT 06492
  
  
 ---------------------------------------------------------------
 Warning -- This program may not be used in any manner that
 competes with the business of Gaussian, Inc. or will provide
 assistance to any competitor of Gaussian, Inc.  The licensee
 of this program is prohibited from giving any competitor of
 Gaussian, Inc. access to this program.  By using this program,
 the user acknowledges that Gaussian, Inc. is engaged in the
 business of creating and licensing software in the field of
 computational chemistry and represents and warrants to the
 licensee that it is not a competitor of Gaussian, Inc. and that
 it will not use this program in any manner prohibited above.
 ---------------------------------------------------------------
  

 Cite this work as:
 Gaussian 16, Revision A.03,
 M. J. Frisch, G. W. Trucks, H. B. Schlegel, G. E. Scuseria, 
 M. A. Robb, J. R. Cheeseman, G. Scalmani, V. Barone, 
 G. A. Petersson, H. Nakatsuji, X. Li, M. Caricato, A. V. Marenich, 
 J. Bloino, B. G. Janesko, R. Gomperts, B. Mennucci, H. P. Hratchian, 
 J. V. Ortiz, A. F. Izmaylov, J. L. Sonnenberg, D. Williams-Young, 
 F. Ding, F. Lipparini, F. Egidi, J. Goings, B. Peng, A. Petrone, 
 T. Henderson, D. Ranasinghe, V. G. Zakrzewski, J. Gao, N. Rega, 
 G. Zheng, W. Liang, M. Hada, M. Ehara, K. Toyota, R. Fukuda, 
 J. Hasegawa, M. Ishida, T. Nakajima, Y. Honda, O. Kitao, H. Nakai, 
 T. Vreven, K. Throssell, J. A. Montgomery, Jr., J. E. Peralta, 
 F. Ogliaro, M. J. Bearpark, J. J. Heyd, E. N. Brothers, K. N. Kudin, 
 V. N. Staroverov, T. A. Keith, R. Kobayashi, J. Normand, 
 K. Raghavachari, A. P. Rendell, J. C. Burant, S. S. Iyengar, 
 J. Tomasi, M. Cossi, J. M. Millam, M. Klene, C. Adamo, R. Cammi, 
 J. W. Ochterski, R. L. Martin, K. Morokuma, O. Farkas, 
 J. B. Foresman, and D. J. Fox, Gaussian, Inc., Wallingford CT, 2016.
 
 ******************************************
 Gaussian 16:  ES64L-G16RevA.03 25-Dec-2016
                18-Jul-2024 
 ******************************************
 %nprocshared=5
 Will use up to    5 processors via shared memory.
 %mem=10GB
 %Chk=RNLHGQLZWXBQNY-SCZZXKLOSA-N_conf_0_0.chk
 -------------------------------------------------------
 # opt=CalcFc B3LYP/6-31G** SCRF=(Solvent=water) scf=xqc
 -------------------------------------------------------
 1/10=4,18=20,19=15,26=3,38=1/1,3;
 2/9=110,12=2,17=6,18=5,40=1/2;
 3/5=1,6=6,7=101,11=2,25=1,30=1,70=2201,71=2,72=1,74=-5,140=1/1,2,3;
 4//1;
 5/5=2,8=3,13=1,38=5,53=1/2,8;
 8/6=4,10=90,11=11/1;
 11/6=1,8=1,9=11,15=111,16=1/1,2,10;
 10/6=1,13=1/2;
 6/7=2,8=2,9=2,10=2,28=1/1;
 7/10=1,18=20,25=1/1,2,3,16;
 1/10=4,18=20,19=15,26=3/3(2);
 2/9=110/2;
 99//99;
 2/9=110/2;
 3/5=1,6=6,7=101,11=2,25=1,30=1,70=2205,71=1,72=1,74=-5/1,2,3;
 4/5=5,16=3,69=1/1;
 5/5=2,8=3,13=1,38=5,53=1/2,8;
 7//1,2,3,16;
 1/18=20,19=15,26=3/3(-5);
 2/9=110/2;
 6/7=2,8=2,9=2,10=2,19=2,28=1/1;
 99/9=1/99;
 ----------------------------------
 RNLHGQLZWXBQNY-SCZZXKLOSA-N_conf_0
 ----------------------------------
 Symbolic Z-matrix:
 Charge =  0 Multiplicity = 1
 N                    -0.73399   2.50509   0.50346 
 C                    -0.44457   1.72144  -0.693 
 C                     0.97209   1.13029  -0.67165 
 C                     1.18461  -0.09553   0.25317 
 C                     2.5688   -0.76509  -0.05287 
 N                     2.7361   -1.2774   -1.41209 
 C                     0.05056  -1.13824   0.04467 
 C                    -1.4084   -0.61609  -0.03528 
 C                    -2.27383  -1.73139  -0.67674 
 C                    -1.49585   0.63206  -0.94287 
 C                    -2.0194   -0.36009   1.35416 
 C                     1.28273   0.33788   1.73317 
 H                    -0.07407   3.2776    0.57857 
 H                    -1.66082   2.92171   0.42656 
 H                    -0.4949    2.42359  -1.5355 
 H                     1.70222   1.91385  -0.42774 
 H                     1.19123   0.8428   -1.70769 
 H                     2.71987  -1.60531   0.63646 
 H                     3.37806  -0.04995   0.14087 
 H                     3.63232  -1.75909  -1.47783 
 H                     2.79118  -0.50181  -2.06949 
 H                     0.12156  -1.91753   0.81586 
 H                     0.24891  -1.65693  -0.90314 
 H                    -3.32048  -1.41871  -0.76756 
 H                    -1.91943  -1.98618  -1.68213 
 H                    -2.24776  -2.64696  -0.07468 
 H                    -1.3737    0.31003  -1.98736 
 H                    -2.50405   1.06528  -0.89103 
 H                    -1.92519  -1.24584   1.99289 
 H                    -1.56651   0.47359   1.88613 
 H                    -3.08847  -0.12945   1.27241 
 H                     2.14386   0.99893   1.88878 
 H                     1.41566  -0.53142   2.38777 
 H                     0.41165   0.87888   2.09372 
 

 GradGradGradGradGradGradGradGradGradGradGradGradGradGradGradGradGradGrad
 Berny optimization.
 Initialization pass.
                           ----------------------------
                           !    Initial Parameters    !
                           ! (Angstroms and Degrees)  !
 --------------------------                            --------------------------
 ! Name  Definition              Value          Derivative Info.                !
 --------------------------------------------------------------------------------
 ! R1    R(1,2)                  1.4592         calculate D2E/DX2 analytically  !
 ! R2    R(1,13)                 1.0188         calculate D2E/DX2 analytically  !
 ! R3    R(1,14)                 1.0191         calculate D2E/DX2 analytically  !
 ! R4    R(2,3)                  1.5352         calculate D2E/DX2 analytically  !
 ! R5    R(2,10)                 1.5344         calculate D2E/DX2 analytically  !
 ! R6    R(2,15)                 1.0979         calculate D2E/DX2 analytically  !
 ! R7    R(3,4)                  1.5502         calculate D2E/DX2 analytically  !
 ! R8    R(3,16)                 1.0984         calculate D2E/DX2 analytically  !
 ! R9    R(3,17)                 1.0973         calculate D2E/DX2 analytically  !
 ! R10   R(4,5)                  1.5678         calculate D2E/DX2 analytically  !
 ! R11   R(4,7)                  1.5546         calculate D2E/DX2 analytically  !
 ! R12   R(4,12)                 1.5453         calculate D2E/DX2 analytically  !
 ! R13   R(5,6)                  1.4622         calculate D2E/DX2 analytically  !
 ! R14   R(5,18)                 1.0973         calculate D2E/DX2 analytically  !
 ! R15   R(5,19)                 1.0972         calculate D2E/DX2 analytically  !
 ! R16   R(6,20)                 1.0196         calculate D2E/DX2 analytically  !
 ! R17   R(6,21)                 1.0182         calculate D2E/DX2 analytically  !
 ! R18   R(7,8)                  1.5516         calculate D2E/DX2 analytically  !
 ! R19   R(7,22)                 1.0987         calculate D2E/DX2 analytically  !
 ! R20   R(7,23)                 1.0985         calculate D2E/DX2 analytically  !
 ! R21   R(8,9)                  1.5506         calculate D2E/DX2 analytically  !
 ! R22   R(8,10)                 1.5457         calculate D2E/DX2 analytically  !
 ! R23   R(8,11)                 1.5393         calculate D2E/DX2 analytically  !
 ! R24   R(9,24)                 1.0961         calculate D2E/DX2 analytically  !
 ! R25   R(9,25)                 1.096          calculate D2E/DX2 analytically  !
 ! R26   R(9,26)                 1.0961         calculate D2E/DX2 analytically  !
 ! R27   R(10,27)                1.0998         calculate D2E/DX2 analytically  !
 ! R28   R(10,28)                1.0986         calculate D2E/DX2 analytically  !
 ! R29   R(11,29)                1.0961         calculate D2E/DX2 analytically  !
 ! R30   R(11,30)                1.0877         calculate D2E/DX2 analytically  !
 ! R31   R(11,31)                1.0967         calculate D2E/DX2 analytically  !
 ! R32   R(12,32)                1.0967         calculate D2E/DX2 analytically  !
 ! R33   R(12,33)                1.0963         calculate D2E/DX2 analytically  !
 ! R34   R(12,34)                1.087          calculate D2E/DX2 analytically  !
 ! A1    A(2,1,13)             109.8275         calculate D2E/DX2 analytically  !
 ! A2    A(2,1,14)             109.759          calculate D2E/DX2 analytically  !
 ! A3    A(13,1,14)            106.54           calculate D2E/DX2 analytically  !
 ! A4    A(1,2,3)              112.2351         calculate D2E/DX2 analytically  !
 ! A5    A(1,2,10)             112.2661         calculate D2E/DX2 analytically  !
 ! A6    A(1,2,15)             106.0598         calculate D2E/DX2 analytically  !
 ! A7    A(3,2,10)             111.1689         calculate D2E/DX2 analytically  !
 ! A8    A(3,2,15)             107.4119         calculate D2E/DX2 analytically  !
 ! A9    A(10,2,15)            107.3191         calculate D2E/DX2 analytically  !
 ! A10   A(2,3,4)              116.0588         calculate D2E/DX2 analytically  !
 ! A11   A(2,3,16)             109.9854         calculate D2E/DX2 analytically  !
 ! A12   A(2,3,17)             105.7857         calculate D2E/DX2 analytically  !
 ! A13   A(4,3,16)             109.9066         calculate D2E/DX2 analytically  !
 ! A14   A(4,3,17)             109.1917         calculate D2E/DX2 analytically  !
 ! A15   A(16,3,17)            105.296          calculate D2E/DX2 analytically  !
 ! A16   A(3,4,5)              110.0168         calculate D2E/DX2 analytically  !
 ! A17   A(3,4,7)              110.5097         calculate D2E/DX2 analytically  !
 ! A18   A(3,4,12)             110.996          calculate D2E/DX2 analytically  !
 ! A19   A(5,4,7)              109.3549         calculate D2E/DX2 analytically  !
 ! A20   A(5,4,12)             104.5177         calculate D2E/DX2 analytically  !
 ! A21   A(7,4,12)             111.2779         calculate D2E/DX2 analytically  !
 ! A22   A(4,5,6)              115.6022         calculate D2E/DX2 analytically  !
 ! A23   A(4,5,18)             109.0235         calculate D2E/DX2 analytically  !
 ! A24   A(4,5,19)             109.7774         calculate D2E/DX2 analytically  !
 ! A25   A(6,5,18)             107.4539         calculate D2E/DX2 analytically  !
 ! A26   A(6,5,19)             107.9458         calculate D2E/DX2 analytically  !
 ! A27   A(18,5,19)            106.6562         calculate D2E/DX2 analytically  !
 ! A28   A(5,6,20)             109.0288         calculate D2E/DX2 analytically  !
 ! A29   A(5,6,21)             109.8451         calculate D2E/DX2 analytically  !
 ! A30   A(20,6,21)            105.7051         calculate D2E/DX2 analytically  !
 ! A31   A(4,7,8)              117.8465         calculate D2E/DX2 analytically  !
 ! A32   A(4,7,22)             109.5406         calculate D2E/DX2 analytically  !
 ! A33   A(4,7,23)             107.4998         calculate D2E/DX2 analytically  !
 ! A34   A(8,7,22)             109.6102         calculate D2E/DX2 analytically  !
 ! A35   A(8,7,23)             106.5114         calculate D2E/DX2 analytically  !
 ! A36   A(22,7,23)            105.0141         calculate D2E/DX2 analytically  !
 ! A37   A(7,8,9)              107.7017         calculate D2E/DX2 analytically  !
 ! A38   A(7,8,10)             110.8045         calculate D2E/DX2 analytically  !
 ! A39   A(7,8,11)             112.5001         calculate D2E/DX2 analytically  !
 ! A40   A(9,8,10)             107.838          calculate D2E/DX2 analytically  !
 ! A41   A(9,8,11)             105.7537         calculate D2E/DX2 analytically  !
 ! A42   A(10,8,11)            111.9161         calculate D2E/DX2 analytically  !
 ! A43   A(8,9,24)             111.2251         calculate D2E/DX2 analytically  !
 ! A44   A(8,9,25)             111.4821         calculate D2E/DX2 analytically  !
 ! A45   A(8,9,26)             111.1191         calculate D2E/DX2 analytically  !
 ! A46   A(24,9,25)            107.4008         calculate D2E/DX2 analytically  !
 ! A47   A(24,9,26)            107.8484         calculate D2E/DX2 analytically  !
 ! A48   A(25,9,26)            107.5761         calculate D2E/DX2 analytically  !
 ! A49   A(2,10,8)             116.0349         calculate D2E/DX2 analytically  !
 ! A50   A(2,10,27)            106.6449         calculate D2E/DX2 analytically  !
 ! A51   A(2,10,28)            109.9452         calculate D2E/DX2 analytically  !
 ! A52   A(8,10,27)            108.3556         calculate D2E/DX2 analytically  !
 ! A53   A(8,10,28)            110.0386         calculate D2E/DX2 analytically  !
 ! A54   A(27,10,28)           105.2009         calculate D2E/DX2 analytically  !
 ! A55   A(8,11,29)            110.9464         calculate D2E/DX2 analytically  !
 ! A56   A(8,11,30)            113.8074         calculate D2E/DX2 analytically  !
 ! A57   A(8,11,31)            110.7706         calculate D2E/DX2 analytically  !
 ! A58   A(29,11,30)           107.3725         calculate D2E/DX2 analytically  !
 ! A59   A(29,11,31)           107.2872         calculate D2E/DX2 analytically  !
 ! A60   A(30,11,31)           106.3281         calculate D2E/DX2 analytically  !
 ! A61   A(4,12,32)            110.7825         calculate D2E/DX2 analytically  !
 ! A62   A(4,12,33)            110.927          calculate D2E/DX2 analytically  !
 ! A63   A(4,12,34)            113.9794         calculate D2E/DX2 analytically  !
 ! A64   A(32,12,33)           107.3392         calculate D2E/DX2 analytically  !
 ! A65   A(32,12,34)           106.3908         calculate D2E/DX2 analytically  !
 ! A66   A(33,12,34)           107.0837         calculate D2E/DX2 analytically  !
 ! D1    D(13,1,2,3)            60.0189         calculate D2E/DX2 analytically  !
 ! D2    D(13,1,2,10)         -173.8989         calculate D2E/DX2 analytically  !
 ! D3    D(13,1,2,15)          -56.9876         calculate D2E/DX2 analytically  !
 ! D4    D(14,1,2,3)           176.8318         calculate D2E/DX2 analytically  !
 ! D5    D(14,1,2,10)          -57.0861         calculate D2E/DX2 analytically  !
 ! D6    D(14,1,2,15)           59.8252         calculate D2E/DX2 analytically  !
 ! D7    D(1,2,3,4)             75.8319         calculate D2E/DX2 analytically  !
 ! D8    D(1,2,3,16)           -49.6993         calculate D2E/DX2 analytically  !
 ! D9    D(1,2,3,17)          -162.9356         calculate D2E/DX2 analytically  !
 ! D10   D(10,2,3,4)           -50.8435         calculate D2E/DX2 analytically  !
 ! D11   D(10,2,3,16)         -176.3746         calculate D2E/DX2 analytically  !
 ! D12   D(10,2,3,17)           70.389          calculate D2E/DX2 analytically  !
 ! D13   D(15,2,3,4)          -167.9735         calculate D2E/DX2 analytically  !
 ! D14   D(15,2,3,16)           66.4954         calculate D2E/DX2 analytically  !
 ! D15   D(15,2,3,17)          -46.741          calculate D2E/DX2 analytically  !
 ! D16   D(1,2,10,8)           -75.8788         calculate D2E/DX2 analytically  !
 ! D17   D(1,2,10,27)          163.3343         calculate D2E/DX2 analytically  !
 ! D18   D(1,2,10,28)           49.7795         calculate D2E/DX2 analytically  !
 ! D19   D(3,2,10,8)            50.7795         calculate D2E/DX2 analytically  !
 ! D20   D(3,2,10,27)          -70.0074         calculate D2E/DX2 analytically  !
 ! D21   D(3,2,10,28)          176.4378         calculate D2E/DX2 analytically  !
 ! D22   D(15,2,10,8)          167.966          calculate D2E/DX2 analytically  !
 ! D23   D(15,2,10,27)          47.1792         calculate D2E/DX2 analytically  !
 ! D24   D(15,2,10,28)         -66.3757         calculate D2E/DX2 analytically  !
 ! D25   D(2,3,4,5)            168.1506         calculate D2E/DX2 analytically  !
 ! D26   D(2,3,4,7)             47.2952         calculate D2E/DX2 analytically  !
 ! D27   D(2,3,4,12)           -76.6618         calculate D2E/DX2 analytically  !
 ! D28   D(16,3,4,5)           -66.2782         calculate D2E/DX2 analytically  !
 ! D29   D(16,3,4,7)           172.8663         calculate D2E/DX2 analytically  !
 ! D30   D(16,3,4,12)           48.9093         calculate D2E/DX2 analytically  !
 ! D31   D(17,3,4,5)            48.7539         calculate D2E/DX2 analytically  !
 ! D32   D(17,3,4,7)           -72.1015         calculate D2E/DX2 analytically  !
 ! D33   D(17,3,4,12)          163.9414         calculate D2E/DX2 analytically  !
 ! D34   D(3,4,5,6)            -61.0817         calculate D2E/DX2 analytically  !
 ! D35   D(3,4,5,18)           177.7859         calculate D2E/DX2 analytically  !
 ! D36   D(3,4,5,19)            61.2878         calculate D2E/DX2 analytically  !
 ! D37   D(7,4,5,6)             60.4653         calculate D2E/DX2 analytically  !
 ! D38   D(7,4,5,18)           -60.6671         calculate D2E/DX2 analytically  !
 ! D39   D(7,4,5,19)          -177.1653         calculate D2E/DX2 analytically  !
 ! D40   D(12,4,5,6)           179.6927         calculate D2E/DX2 analytically  !
 ! D41   D(12,4,5,18)           58.5602         calculate D2E/DX2 analytically  !
 ! D42   D(12,4,5,19)          -57.9379         calculate D2E/DX2 analytically  !
 ! D43   D(3,4,7,8)            -44.6264         calculate D2E/DX2 analytically  !
 ! D44   D(3,4,7,22)          -170.8022         calculate D2E/DX2 analytically  !
 ! D45   D(3,4,7,23)            75.6114         calculate D2E/DX2 analytically  !
 ! D46   D(5,4,7,8)           -165.8751         calculate D2E/DX2 analytically  !
 ! D47   D(5,4,7,22)            67.9491         calculate D2E/DX2 analytically  !
 ! D48   D(5,4,7,23)           -45.6374         calculate D2E/DX2 analytically  !
 ! D49   D(12,4,7,8)            79.1683         calculate D2E/DX2 analytically  !
 ! D50   D(12,4,7,22)          -47.0075         calculate D2E/DX2 analytically  !
 ! D51   D(12,4,7,23)         -160.594          calculate D2E/DX2 analytically  !
 ! D52   D(3,4,12,32)          -61.8743         calculate D2E/DX2 analytically  !
 ! D53   D(3,4,12,33)          179.0209         calculate D2E/DX2 analytically  !
 ! D54   D(3,4,12,34)           58.069          calculate D2E/DX2 analytically  !
 ! D55   D(5,4,12,32)           56.6877         calculate D2E/DX2 analytically  !
 ! D56   D(5,4,12,33)          -62.4171         calculate D2E/DX2 analytically  !
 ! D57   D(5,4,12,34)          176.6311         calculate D2E/DX2 analytically  !
 ! D58   D(7,4,12,32)          174.6078         calculate D2E/DX2 analytically  !
 ! D59   D(7,4,12,33)           55.503          calculate D2E/DX2 analytically  !
 ! D60   D(7,4,12,34)          -65.4489         calculate D2E/DX2 analytically  !
 ! D61   D(4,5,6,20)          -175.186          calculate D2E/DX2 analytically  !
 ! D62   D(4,5,6,21)            69.4171         calculate D2E/DX2 analytically  !
 ! D63   D(18,5,6,20)          -53.2113         calculate D2E/DX2 analytically  !
 ! D64   D(18,5,6,21)         -168.6081         calculate D2E/DX2 analytically  !
 ! D65   D(19,5,6,20)           61.4755         calculate D2E/DX2 analytically  !
 ! D66   D(19,5,6,21)          -53.9214         calculate D2E/DX2 analytically  !
 ! D67   D(4,7,8,9)            162.4279         calculate D2E/DX2 analytically  !
 ! D68   D(4,7,8,10)            44.7015         calculate D2E/DX2 analytically  !
 ! D69   D(4,7,8,11)           -81.4245         calculate D2E/DX2 analytically  !
 ! D70   D(22,7,8,9)           -71.4301         calculate D2E/DX2 analytically  !
 ! D71   D(22,7,8,10)          170.8434         calculate D2E/DX2 analytically  !
 ! D72   D(22,7,8,11)           44.7174         calculate D2E/DX2 analytically  !
 ! D73   D(23,7,8,9)            41.6769         calculate D2E/DX2 analytically  !
 ! D74   D(23,7,8,10)          -76.0495         calculate D2E/DX2 analytically  !
 ! D75   D(23,7,8,11)          157.8245         calculate D2E/DX2 analytically  !
 ! D76   D(7,8,9,24)          -179.6102         calculate D2E/DX2 analytically  !
 ! D77   D(7,8,9,25)           -59.768          calculate D2E/DX2 analytically  !
 ! D78   D(7,8,9,26)            60.2248         calculate D2E/DX2 analytically  !
 ! D79   D(10,8,9,24)          -59.982          calculate D2E/DX2 analytically  !
 ! D80   D(10,8,9,25)           59.8602         calculate D2E/DX2 analytically  !
 ! D81   D(10,8,9,26)          179.853          calculate D2E/DX2 analytically  !
 ! D82   D(11,8,9,24)           59.8976         calculate D2E/DX2 analytically  !
 ! D83   D(11,8,9,25)          179.7398         calculate D2E/DX2 analytically  !
 ! D84   D(11,8,9,26)          -60.2673         calculate D2E/DX2 analytically  !
 ! D85   D(7,8,10,2)           -47.3026         calculate D2E/DX2 analytically  !
 ! D86   D(7,8,10,27)           72.5622         calculate D2E/DX2 analytically  !
 ! D87   D(7,8,10,28)         -172.9134         calculate D2E/DX2 analytically  !
 ! D88   D(9,8,10,2)          -164.9457         calculate D2E/DX2 analytically  !
 ! D89   D(9,8,10,27)          -45.081          calculate D2E/DX2 analytically  !
 ! D90   D(9,8,10,28)           69.4434         calculate D2E/DX2 analytically  !
 ! D91   D(11,8,10,2)           79.1481         calculate D2E/DX2 analytically  !
 ! D92   D(11,8,10,27)        -160.9871         calculate D2E/DX2 analytically  !
 ! D93   D(11,8,10,28)         -46.4627         calculate D2E/DX2 analytically  !
 ! D94   D(7,8,11,29)          -52.973          calculate D2E/DX2 analytically  !
 ! D95   D(7,8,11,30)           68.2477         calculate D2E/DX2 analytically  !
 ! D96   D(7,8,11,31)         -172.0177         calculate D2E/DX2 analytically  !
 ! D97   D(9,8,11,29)           64.3372         calculate D2E/DX2 analytically  !
 ! D98   D(9,8,11,30)         -174.4421         calculate D2E/DX2 analytically  !
 ! D99   D(9,8,11,31)          -54.7075         calculate D2E/DX2 analytically  !
 ! D100  D(10,8,11,29)        -178.4968         calculate D2E/DX2 analytically  !
 ! D101  D(10,8,11,30)         -57.276          calculate D2E/DX2 analytically  !
 ! D102  D(10,8,11,31)          62.4586         calculate D2E/DX2 analytically  !
 --------------------------------------------------------------------------------
 Trust Radius=3.00D-01 FncErr=1.00D-07 GrdErr=1.00D-06 EigMax=2.50D+02 EigMin=1.00D-04
 Number of steps in this run=    204 maximum allowed number of steps=    204.
 GradGradGradGradGradGradGradGradGradGradGradGradGradGradGradGradGradGrad

                          Input orientation:                          
 ---------------------------------------------------------------------
 Center     Atomic      Atomic             Coordinates (Angstroms)
 Number     Number       Type             X           Y           Z
 ---------------------------------------------------------------------
      1          7           0       -0.733989    2.505087    0.503458
      2          6           0       -0.444573    1.721437   -0.692996
      3          6           0        0.972092    1.130289   -0.671648
      4          6           0        1.184611   -0.095526    0.253168
      5          6           0        2.568797   -0.765088   -0.052868
      6          7           0        2.736100   -1.277404   -1.412092
      7          6           0        0.050564   -1.138244    0.044675
      8          6           0       -1.408401   -0.616094   -0.035276
      9          6           0       -2.273828   -1.731391   -0.676738
     10          6           0       -1.495849    0.632057   -0.942865
     11          6           0       -2.019398   -0.360087    1.354156
     12          6           0        1.282733    0.337884    1.733166
     13          1           0       -0.074074    3.277596    0.578567
     14          1           0       -1.660822    2.921711    0.426561
     15          1           0       -0.494900    2.423594   -1.535495
     16          1           0        1.702218    1.913851   -0.427743
     17          1           0        1.191227    0.842799   -1.707694
     18          1           0        2.719865   -1.605315    0.636460
     19          1           0        3.378065   -0.049947    0.140868
     20          1           0        3.632323   -1.759094   -1.477830
     21          1           0        2.791182   -0.501808   -2.069491
     22          1           0        0.121559   -1.917530    0.815859
     23          1           0        0.248910   -1.656932   -0.903143
     24          1           0       -3.320480   -1.418708   -0.767563
     25          1           0       -1.919428   -1.986183   -1.682127
     26          1           0       -2.247760   -2.646963   -0.074680
     27          1           0       -1.373699    0.310032   -1.987356
     28          1           0       -2.504047    1.065277   -0.891033
     29          1           0       -1.925191   -1.245842    1.992895
     30          1           0       -1.566510    0.473594    1.886125
     31          1           0       -3.088469   -0.129445    1.272411
     32          1           0        2.143865    0.998934    1.888783
     33          1           0        1.415658   -0.531421    2.387769
     34          1           0        0.411648    0.878881    2.093718
 ---------------------------------------------------------------------
                    Distance matrix (angstroms):
                    1          2          3          4          5
     1  N    0.000000
     2  C    1.459237   0.000000
     3  C    2.486294   1.535204   0.000000
     4  C    3.241428   2.617407   1.550184   0.000000
     5  C    4.681019   3.958910   2.554371   1.567783   0.000000
     6  N    5.478878   4.430218   3.075219   2.564576   1.462172
     7  C    3.754979   2.994511   2.551190   1.554604   2.547598
     8  C    3.238339   2.612588   3.020193   2.660433   3.980027
     9  C    4.659583   3.907488   4.327265   3.937204   4.977346
    10  C    2.486066   1.534394   2.532296   3.024027   4.389243
    11  C    3.253488   3.317175   3.908211   3.398211   4.816148
    12  C    3.205639   3.283910   2.550986   1.545272   2.461793
    13  H    1.018773   2.043471   2.696003   3.614986   4.871014
    14  H    1.019072   2.042873   3.368604   4.150936   5.631343
    15  H    2.054541   1.097890   2.137975   3.516538   4.663916
    16  H    2.674285   2.171656   1.098428   2.183839   2.840459
    17  H    3.370290   2.116001   1.097298   2.173817   2.687276
    18  H    5.370494   4.780000   3.499912   2.187095   1.097259
    19  H    4.854757   4.294844   2.800329   2.196800   1.097212
    20  H    6.416652   5.417669   4.009400   3.428573   2.037069
    21  H    5.299842   4.160249   2.815457   2.853223   2.045859
    22  H    4.515429   3.979854   3.496467   2.183209   2.841089
    23  H    4.501891   3.455207   2.888802   2.156520   2.626829
    24  H    4.868429   4.258746   4.993271   4.805054   5.968382
    25  H    5.133572   4.110965   4.369709   4.117646   4.928461
    26  H    5.400868   4.766206   4.999145   4.289346   5.171185
    27  H    3.381072   2.128546   2.811875   3.424817   4.521217
    28  H    2.674091   2.170530   3.483661   4.032723   5.457701
    29  H    4.207951   4.267433   4.597828   3.744428   4.961068
    30  H    2.594576   3.076967   3.663052   3.249479   4.732314
    31  H    3.616024   3.778728   4.674874   4.393088   5.845090
    32  H    3.531241   3.726607   2.818884   2.189348   2.657508
    33  H    4.170371   4.245814   3.509709   2.190869   2.709435
    34  H    2.546755   3.034599   2.832764   2.221387   3.458866
                    6          7          8          9         10
     6  N    0.000000
     7  C    3.058372   0.000000
     8  C    4.416995   1.551648   0.000000
     9  C    5.083918   2.505006   1.550588   0.000000
    10  C    4.666435   2.549626   1.545719   2.502391   0.000000
    11  C    5.577487   2.570022   1.539279   2.463684   2.556318
    12  C    3.822836   2.558945   3.358522   4.768507   3.868876
    13  H    5.710327   4.449744   4.161497   5.612901   3.366761
    14  H    6.351862   4.422433   3.576741   4.821245   2.673025
    15  H    4.914467   3.934610   3.510676   4.600646   2.136051
    16  H    3.495993   3.502345   4.028722   5.399882   3.483673
    17  H    2.639939   2.880354   3.418102   4.438010   2.801742
    18  H    2.074693   2.773722   4.297950   5.165013   5.027161
    19  H    2.080974   3.502271   4.823050   5.953118   5.039310
    20  H    1.019589   3.941126   5.366219   5.960296   5.683479
    21  H    1.018213   3.519337   4.667718   5.394994   4.575322
    22  H    3.494188   1.098660   2.181501   2.828493   3.494212
    23  H    2.566941   1.098515   2.140845   2.533971   2.878408
    24  H    6.092417   3.478840   2.199199   1.096129   2.750572
    25  H    4.716909   2.753491   2.202365   1.096050   2.753382
    26  H    5.338841   2.751867   2.197841   1.096096   3.474347
    27  H    4.443122   2.873182   2.160909   2.587539   1.099809
    28  H    5.763576   3.501013   2.181690   2.814298   1.098558
    29  H    5.772570   2.776823   2.185665   2.735735   3.511342
    30  H    5.697078   2.933239   2.214544   3.454059   2.834306
    31  H    6.515365   3.518315   2.183919   2.651236   2.832627
    32  H    4.053176   3.514281   4.350737   5.792458   4.626051
    33  H    4.091332   2.778813   3.722046   4.944030   4.574240
    34  H    4.726875   2.897888   3.174925   4.658404   3.594483
                   11         12         13         14         15
    11  C    0.000000
    12  C    3.396304   0.000000
    13  H    4.197447   3.437431   0.000000
    14  H    3.429171   4.128910   1.633257   0.000000
    15  H    4.292209   4.265479   2.318550   2.336057   0.000000
    16  H    4.711304   2.707243   2.455132   3.613261   2.512823
    17  H    4.596736   3.478912   3.571585   4.124452   2.317669
    18  H    4.952403   2.654079   5.626035   6.303051   5.593229
    19  H    5.540836   2.660120   4.814706   5.856856   4.891672
    20  H    6.474513   4.497597   6.582887   7.318062   5.876408
    21  H    5.906194   4.176206   5.431925   6.145820   4.431869
    22  H    2.701683   2.697530   5.204221   5.171721   4.975364
    23  H    3.452887   3.463842   5.162301   5.136065   4.195689
    24  H    2.704659   5.525290   5.865704   4.797878   4.830828
    25  H    3.445751   5.226792   6.018592   5.347979   4.636477
    26  H    2.706201   4.964071   6.344450   5.621910   5.560310
    27  H    3.468673   4.571617   4.132725   3.567955   2.333154
    28  H    2.703225   4.664250   3.599840   2.427639   2.509387
    29  H    1.096095   3.586980   5.088069   4.460022   5.287724
    30  H    1.087715   2.856572   3.435040   2.851754   4.081462
    31  H    1.096719   4.420193   4.601731   3.473211   4.596623
    32  H    4.411974   1.096700   3.439218   4.506751   4.551748
    33  H    3.591284   1.096296   4.472261   5.023464   5.270137
    34  H    2.827009   1.086952   2.878445   3.353760   4.047117
                   16         17         18         19         20
    16  H    0.000000
    17  H    1.745433   0.000000
    18  H    3.814795   3.718206   0.000000
    19  H    2.643537   2.999406   1.760115   0.000000
    20  H    4.280013   3.575141   2.307910   2.367702   0.000000
    21  H    3.117144   2.121019   2.923180   2.331157   1.624299
    22  H    4.327183   3.889978   2.623139   3.814224   4.196614
    23  H    3.884404   2.789968   2.911814   3.669328   3.433393
    24  H    6.037294   5.133592   6.204182   6.897046   6.997271
    25  H    5.468095   4.204756   5.200380   5.927542   5.560148
    26  H    6.043840   5.164476   5.125237   6.200069   6.110034
    27  H    3.803405   2.634558   5.225919   5.219021   5.440694
    28  H    4.315944   3.790974   6.062554   6.075178   6.780593
    29  H    5.385280   5.269615   4.852389   5.743229   6.572314
    30  H    4.255927   4.544994   4.925093   5.269615   6.582474
    31  H    5.478710   5.304912   6.026556   6.565270   7.442354
    32  H    2.529509   3.723781   2.946558   2.382983   4.599598
    33  H    3.740131   4.325698   2.433370   3.021824   4.622081
    34  H    3.015709   3.880693   3.690894   3.670963   5.485217
                   21         22         23         24         25
    21  H    0.000000
    22  H    4.178086   0.000000
    23  H    3.026190   1.743301   0.000000
    24  H    6.315705   3.821476   3.579899   0.000000
    25  H    4.954117   3.226496   2.327426   1.766749   0.000000
    26  H    5.828542   2.634162   2.810672   1.771842   1.768705
    27  H    4.244062   3.880186   2.770798   2.875134   2.379830
    28  H    5.646589   4.324862   3.871607   2.617631   3.206091
    29  H    6.269030   2.454743   3.644550   3.097877   3.748856
    30  H    5.965551   3.116492   3.951570   3.701253   4.348273
    31  H    6.773276   3.702698   4.266656   2.424360   3.680140
    32  H    4.282426   3.707647   4.294103   6.539130   6.178404
    33  H    4.664773   2.463106   3.668538   5.759722   5.459229
    34  H    4.990069   3.088202   3.929123   5.233987   5.281999
                   26         27         28         29         30
    26  H    0.000000
    27  H    3.628517   0.000000
    28  H    3.809573   1.746426   0.000000
    29  H    2.518344   4.308977   3.740774   0.000000
    30  H    3.747898   3.881725   2.990263   1.759691   0.000000
    31  H    2.976465   3.709402   2.539568   1.765972   1.748331
    32  H    6.036068   5.279421   5.416166   4.648340   3.747382
    33  H    4.894875   5.256450   5.353884   3.439127   3.186696
    34  H    4.919957   4.490681   4.176693   3.159973   2.029893
                   31         32         33         34
    31  H    0.000000
    32  H    5.387993   0.000000
    33  H    4.657550   1.766708   0.000000
    34  H    3.733911   1.748423   1.755976   0.000000
 Stoichiometry    C10H22N2
 Framework group  C1[X(C10H22N2)]
 Deg. of freedom    96
 Full point group                 C1      NOp   1
 Largest Abelian subgroup         C1      NOp   1
 Largest concise Abelian subgroup C1      NOp   1
                         Standard orientation:                         
 ---------------------------------------------------------------------
 Center     Atomic      Atomic             Coordinates (Angstroms)
 Number     Number       Type             X           Y           Z
 ---------------------------------------------------------------------
      1          7           0       -1.198219    2.363375   -0.025811
      2          6           0       -0.667180    1.430847   -1.014629
      3          6           0        0.812660    1.104235   -0.769174
      4          6           0        1.110062    0.127352    0.397155
      5          6           0        2.604747   -0.341856    0.336292
      6          7           0        2.991734   -1.063101   -0.875317
      7          6           0        0.176918   -1.113626    0.319631
      8          6           0       -1.327736   -0.871930    0.027723
      9          6           0       -1.939849   -2.218303   -0.438023
     10          6           0       -1.507483    0.151089   -1.116990
     11          6           0       -2.114818   -0.468598    1.287566
     12          6           0        0.983068    0.840047    1.762366
     13          1           0       -0.675569    3.237226   -0.059277
     14          1           0       -2.164249    2.594195   -0.253882
     15          1           0       -0.734127    1.944113   -1.982843
     16          1           0        1.384669    2.032294   -0.634805
     17          1           0        1.181943    0.669750   -1.706679
     18          1           0        2.808012   -1.000175    1.190268
     19          1           0        3.270284    0.524109    0.441357
     20          1           0        3.952769   -1.388748   -0.775690
     21          1           0        2.997486   -0.426225   -1.669743
     22          1           0        0.283513   -1.711324    1.235299
     23          1           0        0.551645   -1.758841   -0.486603
     24          1           0       -3.006282   -2.111060   -0.667630
     25          1           0       -1.445903   -2.592381   -1.342129
     26          1           0       -1.838642   -2.987126    0.336635
     27          1           0       -1.227332   -0.334907   -2.062984
     28          1           0       -2.569674    0.408169   -1.228742
     29          1           0       -1.955103   -1.190108    2.097096
     30          1           0       -1.853479    0.514571    1.672537
     31          1           0       -3.191736   -0.442851    1.081714
     32          1           0        1.711864    1.655389    1.844974
     33          1           0        1.176631    0.144012    2.586948
     34          1           0        0.006351    1.282466    1.940558
 ---------------------------------------------------------------------
 Rotational constants (GHZ):           1.1353914           0.7589880           0.6291979
 Standard basis: 6-31G(d,p) (6D, 7F)
 There are   290 symmetry adapted cartesian basis functions of A   symmetry.
 There are   290 symmetry adapted basis functions of A   symmetry.
   290 basis functions,   490 primitive gaussians,   290 cartesian basis functions
    48 alpha electrons       48 beta electrons
       nuclear repulsion energy       818.8015287726 Hartrees.
 NAtoms=   34 NActive=   34 NUniq=   34 SFac= 1.00D+00 NAtFMM=   60 NAOKFM=F Big=F
 Integral buffers will be    131072 words long.
 Raffenetti 2 integral format.
 Two-electron integral symmetry is turned on.
 Force inversion solution in PCM.
 ------------------------------------------------------------------------------
 Polarizable Continuum Model (PCM)
 =================================
 Model                : PCM.
 Atomic radii         : UFF (Universal Force Field).
 Polarization charges : Total charges.
 Charge compensation  : None.
 Solution method      : Matrix inversion.
 Cavity type          : Scaled VdW (van der Waals Surface) (Alpha=1.100).
 Cavity algorithm     : GePol (No added spheres)
                        Default sphere list used, NSphG=   34.
                        Lebedev-Laikov grids with approx.  5.0 points / Ang**2.
                        Smoothing algorithm: York/Karplus (Gamma=1.0000).
                        Polarization charges: spherical gaussians, with
                                              point-specific exponents (IZeta= 3).
                        Self-potential: point-specific (ISelfS= 7).
                        Self-field    : sphere-specific E.n sum rule (ISelfD= 2).
 1st derivatives      : Analytical E(r).r(x)/FMM algorithm (CHGder, D1EAlg=3).
                        Cavity 1st derivative terms included.
 2nd derivatives      : Analytical E(r).r(xy)/FMM algorithm (CHGder, D2EAlg=3).
                        Cavity 2nd derivative terms included.
 Solvent              : Water, Eps=  78.355300 Eps(inf)=   1.777849
 ------------------------------------------------------------------------------
 One-electron integrals computed using PRISM.
 NBasis=   290 RedAO= T EigKep=  2.58D-03  NBF=   290
 NBsUse=   290 1.00D-06 EigRej= -1.00D+00 NBFU=   290
 ExpMin= 1.61D-01 ExpMax= 4.17D+03 ExpMxC= 6.27D+02 IAcc=3 IRadAn=         5 AccDes= 0.00D+00
 Harris functional with IExCor=  402 and IRadAn=       5 diagonalized for initial guess.
 HarFok:  IExCor=  402 AccDes= 0.00D+00 IRadAn=         5 IDoV= 1 UseB2=F ITyADJ=14
 ICtDFT=  3500011 ScaDFX=  1.000000  1.000000  1.000000  1.000000
 FoFCou: FMM=F IPFlag=           0 FMFlag=      100000 FMFlg1=           0
         NFxFlg=           0 DoJE=T BraDBF=F KetDBF=T FulRan=T
         wScrn=  0.000000 ICntrl=       500 IOpCl=  0 I1Cent=   200000004 NGrid=           0
         NMat0=    1 NMatS0=      1 NMatT0=    0 NMatD0=    1 NMtDS0=    0 NMtDT0=    0
 Petite list used in FoFCou.
 Requested convergence on RMS density matrix=1.00D-08 within  32 cycles.
 Requested convergence on MAX density matrix=1.00D-06.
 Requested convergence on             energy=1.00D-06.
 No special actions if energy rises.
 Inv3:  Mode=1 IEnd=    11713728.
 Iteration    1 A*A^-1 deviation from unit magnitude is 3.11D-15 for   1621.
 Iteration    1 A*A^-1 deviation from orthogonality  is 4.22D-15 for   1621    442.
 Iteration    1 A^-1*A deviation from unit magnitude is 2.66D-15 for    369.
 Iteration    1 A^-1*A deviation from orthogonality  is 9.30D-15 for   1642   1621.
 Error on total polarization charges =  0.01041
 SCF Done:  E(RB3LYP) =  -503.847445933     A.U. after   11 cycles
            NFock= 11  Conv=0.56D-08     -V/T= 2.0098
 QCSCF skips out because SCF is already converged.
 DoSCS=F DFT=T ScalE2(SS,OS)=  1.000000  1.000000
 Range of M.O.s used for correlation:     1   290
 NBasis=   290 NAE=    48 NBE=    48 NFC=     0 NFV=     0
 NROrb=    290 NOA=    48 NOB=    48 NVA=   242 NVB=   242
 Symmetrizing basis deriv contribution to polar:
 IMax=3 JMax=2 DiffMx= 0.00D+00
 G2DrvN: will do    35 centers at a time, making    1 passes.
 Calling FoFCou, ICntrl=  3107 FMM=F I1Cent=   0 AccDes= 0.00D+00.
 NEqPCM:  Using equilibrium solvation (IEInf=0, Eps=  78.3553, EpsInf=   1.7778)
 G2PCM: DoFxE=T DoFxN=T DoGrad=T DoDP/DQ/DG/TGxP=FFFF NFrqRd=   0 IEInf=0 SqF1=F DoCFld=F IF1Alg=4.
 End of G2Drv F.D. properties file   721 does not exist.
 End of G2Drv F.D. properties file   722 does not exist.
 End of G2Drv F.D. properties file   788 does not exist.
          IDoAtm=1111111111111111111111111111111111
 NEqPCM:  Using equilibrium solvation (IEInf=0, Eps=  78.3553, EpsInf=   1.7778)
          Differentiating once with respect to nuclear coordinates.
 Keep R1 ints in memory in canonical form, NReq=902566861.
          There are   105 degrees of freedom in the 1st order CPHF.  IDoFFX=6 NUNeed=     0.
     99 vectors produced by pass  0 Test12= 1.16D-14 1.00D-09 XBig12= 7.24D-02 6.83D-02.
 AX will form    99 AO Fock derivatives at one time.
     99 vectors produced by pass  1 Test12= 1.16D-14 1.00D-09 XBig12= 5.42D-03 1.11D-02.
     99 vectors produced by pass  2 Test12= 1.16D-14 1.00D-09 XBig12= 4.90D-05 6.90D-04.
     99 vectors produced by pass  3 Test12= 1.16D-14 1.00D-09 XBig12= 9.89D-08 4.33D-05.
     99 vectors produced by pass  4 Test12= 1.16D-14 1.00D-09 XBig12= 9.11D-11 1.06D-06.
     41 vectors produced by pass  5 Test12= 1.16D-14 1.00D-09 XBig12= 6.08D-14 2.62D-08.
 InvSVY:  IOpt=1 It=  1 EMax= 3.89D-16
 Solved reduced A of dimension   536 with   105 vectors.
 End of Minotr F.D. properties file   721 does not exist.
 End of Minotr F.D. properties file   722 does not exist.
 End of Minotr F.D. properties file   788 does not exist.

 **********************************************************************

            Population analysis using the SCF density.

 **********************************************************************

 Orbital symmetries:
       Occupied  (A) (A) (A) (A) (A) (A) (A) (A) (A) (A) (A) (A)
                 (A) (A) (A) (A) (A) (A) (A) (A) (A) (A) (A) (A)
                 (A) (A) (A) (A) (A) (A) (A) (A) (A) (A) (A) (A)
                 (A) (A) (A) (A) (A) (A) (A) (A) (A) (A) (A) (A)
       Virtual   (A) (A) (A) (A) (A) (A) (A) (A) (A) (A) (A) (A)
                 (A) (A) (A) (A) (A) (A) (A) (A) (A) (A) (A) (A)
                 (A) (A) (A) (A) (A) (A) (A) (A) (A) (A) (A) (A)
                 (A) (A) (A) (A) (A) (A) (A) (A) (A) (A) (A) (A)
                 (A) (A) (A) (A) (A) (A) (A) (A) (A) (A) (A) (A)
                 (A) (A) (A) (A) (A) (A) (A) (A) (A) (A) (A) (A)
                 (A) (A) (A) (A) (A) (A) (A) (A) (A) (A) (A) (A)
                 (A) (A) (A) (A) (A) (A) (A) (A) (A) (A) (A) (A)
                 (A) (A) (A) (A) (A) (A) (A) (A) (A) (A) (A) (A)
                 (A) (A) (A) (A) (A) (A) (A) (A) (A) (A) (A) (A)
                 (A) (A) (A) (A) (A) (A) (A) (A) (A) (A) (A) (A)
                 (A) (A) (A) (A) (A) (A) (A) (A) (A) (A) (A) (A)
                 (A) (A) (A) (A) (A) (A) (A) (A) (A) (A) (A) (A)
                 (A) (A) (A) (A) (A) (A) (A) (A) (A) (A) (A) (A)
                 (A) (A) (A) (A) (A) (A) (A) (A) (A) (A) (A) (A)
                 (A) (A) (A) (A) (A) (A) (A) (A) (A) (A) (A) (A)
                 (A) (A) (A) (A) (A) (A) (A) (A) (A) (A) (A) (A)
                 (A) (A) (A) (A) (A) (A) (A) (A) (A) (A) (A) (A)
                 (A) (A) (A) (A) (A) (A) (A) (A) (A) (A) (A) (A)
                 (A) (A) (A) (A) (A) (A) (A) (A) (A) (A) (A) (A)
                 (A) (A)
 The electronic state is 1-A.
 Alpha  occ. eigenvalues --  -14.30522 -14.30159 -10.20255 -10.19621 -10.18808
 Alpha  occ. eigenvalues --  -10.18654 -10.17208 -10.17047 -10.16420 -10.16393
 Alpha  occ. eigenvalues --  -10.15732 -10.15690  -0.88259  -0.87252  -0.81607
 Alpha  occ. eigenvalues --   -0.77567  -0.72706  -0.67336  -0.66897  -0.66554
 Alpha  occ. eigenvalues --   -0.64095  -0.57954  -0.54536  -0.50453  -0.48153
 Alpha  occ. eigenvalues --   -0.46773  -0.46223  -0.44898  -0.44703  -0.42715
 Alpha  occ. eigenvalues --   -0.42271  -0.40670  -0.40114  -0.38841  -0.37704
 Alpha  occ. eigenvalues --   -0.37038  -0.36493  -0.35319  -0.34860  -0.33463
 Alpha  occ. eigenvalues --   -0.33077  -0.32059  -0.31487  -0.29936  -0.28985
 Alpha  occ. eigenvalues --   -0.28323  -0.22753  -0.21924
 Alpha virt. eigenvalues --    0.06791   0.09176   0.10458   0.11611   0.13041
 Alpha virt. eigenvalues --    0.13328   0.14081   0.14213   0.14983   0.16499
 Alpha virt. eigenvalues --    0.16777   0.17123   0.17148   0.18071   0.18773
 Alpha virt. eigenvalues --    0.19278   0.19882   0.20602   0.21369   0.22114
 Alpha virt. eigenvalues --    0.22821   0.23393   0.23944   0.24491   0.25595
 Alpha virt. eigenvalues --    0.26199   0.26482   0.27010   0.28132   0.29374
 Alpha virt. eigenvalues --    0.30138   0.31885   0.33143   0.33452   0.49180
 Alpha virt. eigenvalues --    0.50596   0.51238   0.52326   0.53127   0.53866
 Alpha virt. eigenvalues --    0.54921   0.57540   0.61789   0.61935   0.62058
 Alpha virt. eigenvalues --    0.62954   0.65304   0.66129   0.67895   0.69109
 Alpha virt. eigenvalues --    0.69690   0.70588   0.72510   0.74226   0.74838
 Alpha virt. eigenvalues --    0.75664   0.76328   0.77618   0.78593   0.81052
 Alpha virt. eigenvalues --    0.82234   0.82655   0.84427   0.85849   0.86140
 Alpha virt. eigenvalues --    0.86741   0.87090   0.88315   0.88656   0.89504
 Alpha virt. eigenvalues --    0.90074   0.90383   0.90937   0.92383   0.92650
 Alpha virt. eigenvalues --    0.92993   0.93661   0.94538   0.95186   0.95711
 Alpha virt. eigenvalues --    0.96046   0.96761   0.97675   0.99632   0.99951
 Alpha virt. eigenvalues --    1.01478   1.04450   1.06603   1.07292   1.08484
 Alpha virt. eigenvalues --    1.11595   1.16528   1.20361   1.22932   1.24380
 Alpha virt. eigenvalues --    1.28876   1.30414   1.33964   1.36467   1.38299
 Alpha virt. eigenvalues --    1.46949   1.47850   1.48108   1.49565   1.51482
 Alpha virt. eigenvalues --    1.52991   1.55826   1.56611   1.61507   1.63210
 Alpha virt. eigenvalues --    1.69101   1.70471   1.73078   1.74984   1.75852
 Alpha virt. eigenvalues --    1.79806   1.80869   1.82691   1.84003   1.85708
 Alpha virt. eigenvalues --    1.86756   1.87274   1.87577   1.88198   1.89782
 Alpha virt. eigenvalues --    1.90480   1.91304   1.93417   1.94340   1.95711
 Alpha virt. eigenvalues --    2.00730   2.01734   2.02197   2.04337   2.04887
 Alpha virt. eigenvalues --    2.05908   2.05994   2.07965   2.08132   2.09309
 Alpha virt. eigenvalues --    2.10540   2.11058   2.12573   2.13178   2.14667
 Alpha virt. eigenvalues --    2.15460   2.15709   2.17142   2.17715   2.20036
 Alpha virt. eigenvalues --    2.21338   2.22130   2.23390   2.23888   2.25450
 Alpha virt. eigenvalues --    2.27709   2.28542   2.30395   2.31914   2.33071
 Alpha virt. eigenvalues --    2.34004   2.34924   2.37032   2.37523   2.39749
 Alpha virt. eigenvalues --    2.40966   2.41768   2.43230   2.45510   2.47311
 Alpha virt. eigenvalues --    2.50964   2.51675   2.54975   2.57016   2.60972
 Alpha virt. eigenvalues --    2.61957   2.63261   2.63807   2.67111   2.67530
 Alpha virt. eigenvalues --    2.68968   2.70358   2.72308   2.73744   2.74122
 Alpha virt. eigenvalues --    2.75053   2.75998   2.78151   2.79451   2.82510
 Alpha virt. eigenvalues --    2.83124   2.84169   2.86712   2.88110   2.89510
 Alpha virt. eigenvalues --    2.89958   2.91149   2.91922   2.93037   2.94376
 Alpha virt. eigenvalues --    2.96001   2.96362   2.97773   2.98568   2.99298
 Alpha virt. eigenvalues --    3.00594   3.01098   3.04938   3.20196   3.23648
 Alpha virt. eigenvalues --    3.25276   3.27778   3.30518   3.32017   3.34845
 Alpha virt. eigenvalues --    3.36491   3.37708   3.43830   3.44537   3.44855
 Alpha virt. eigenvalues --    3.45955   3.47661   3.48059   3.50059   3.50723
 Alpha virt. eigenvalues --    3.52231   3.53546   3.53810   3.55874   3.58285
 Alpha virt. eigenvalues --    4.04334   4.08893   4.27189   4.41044   4.51320
 Alpha virt. eigenvalues --    4.57233   4.59885   4.63692   4.70366   4.78483
 Alpha virt. eigenvalues --    4.83836   4.85218
          Condensed to atoms (all electrons):
               1          2          3          4          5          6
     1  N    6.843611   0.281388  -0.055344  -0.001371  -0.000059  -0.000001
     2  C    0.281388   4.802849   0.362546  -0.027871   0.003678   0.000012
     3  C   -0.055344   0.362546   5.032969   0.377154  -0.043210  -0.005388
     4  C   -0.001371  -0.027871   0.377154   4.876441   0.364527  -0.045983
     5  C   -0.000059   0.003678  -0.043210   0.364527   4.874631   0.286306
     6  N   -0.000001   0.000012  -0.005388  -0.045983   0.286306   6.816506
     7  C   -0.001291  -0.012702  -0.050366   0.371195  -0.040755  -0.010658
     8  C   -0.000710  -0.029133  -0.020619  -0.023209   0.003296   0.000154
     9  C   -0.000058   0.004217   0.000530   0.003673  -0.000120  -0.000005
    10  C   -0.053362   0.360102  -0.033542  -0.019133   0.000444   0.000013
    11  C   -0.005316  -0.002940  -0.000301  -0.002152  -0.000056  -0.000004
    12  C   -0.006160  -0.003515  -0.052873   0.372199  -0.055017   0.003430
    13  H    0.331764  -0.030358  -0.005210  -0.000356  -0.000013   0.000000
    14  H    0.331789  -0.030773   0.006710  -0.000001   0.000004   0.000000
    15  H   -0.062230   0.394124  -0.055065   0.005076  -0.000145   0.000001
    16  H   -0.005908  -0.032931   0.366136  -0.034650  -0.002732  -0.000236
    17  H    0.004680  -0.031377   0.358827  -0.034922  -0.009652   0.002361
    18  H    0.000002  -0.000134   0.005214  -0.026979   0.374982  -0.040867
    19  H   -0.000006  -0.000044  -0.009872  -0.043229   0.380346  -0.056050
    20  H    0.000000   0.000003   0.000228   0.005151  -0.031211   0.337935
    21  H    0.000001  -0.000204   0.003880  -0.005729  -0.039038   0.338064
    22  H   -0.000021   0.000199   0.005268  -0.033340  -0.002793   0.000168
    23  H    0.000044  -0.000243  -0.004170  -0.040329  -0.012457   0.020406
    24  H   -0.000005   0.000038  -0.000004  -0.000149   0.000002  -0.000000
    25  H    0.000001   0.000050  -0.000009   0.000066  -0.000001  -0.000022
    26  H    0.000003  -0.000171  -0.000007   0.000041  -0.000001   0.000001
    27  H    0.004668  -0.032337  -0.004676   0.000102  -0.000062   0.000002
    28  H   -0.006223  -0.031884   0.005145   0.000307   0.000006   0.000000
    29  H    0.000307  -0.000013  -0.000033  -0.000290  -0.000012   0.000000
    30  H    0.010406   0.000047  -0.000064   0.001123  -0.000034   0.000000
    31  H    0.000079  -0.000269   0.000002  -0.000024   0.000003   0.000000
    32  H    0.000148  -0.000351  -0.005418  -0.031363  -0.007064   0.000021
    33  H    0.000383   0.000011   0.005165  -0.030430  -0.006865   0.000039
    34  H    0.010240   0.000044  -0.004908  -0.023158   0.004363  -0.000098
               7          8          9         10         11         12
     1  N   -0.001291  -0.000710  -0.000058  -0.053362  -0.005316  -0.006160
     2  C   -0.012702  -0.029133   0.004217   0.360102  -0.002940  -0.003515
     3  C   -0.050366  -0.020619   0.000530  -0.033542  -0.000301  -0.052873
     4  C    0.371195  -0.023209   0.003673  -0.019133  -0.002152   0.372199
     5  C   -0.040755   0.003296  -0.000120   0.000444  -0.000056  -0.055017
     6  N   -0.010658   0.000154  -0.000005   0.000013  -0.000004   0.003430
     7  C    5.008773   0.381793  -0.049529  -0.049287  -0.051511  -0.048979
     8  C    0.381793   4.805408   0.377769   0.380193   0.383631  -0.002791
     9  C   -0.049529   0.377769   5.008755  -0.049524  -0.065056  -0.000026
    10  C   -0.049287   0.380193  -0.049524   5.015736  -0.054033  -0.000442
    11  C   -0.051511   0.383631  -0.065056  -0.054033   5.007163   0.000597
    12  C   -0.048979  -0.002791  -0.000026  -0.000442   0.000597   5.012337
    13  H    0.000031  -0.000020   0.000004   0.006517   0.000059   0.000312
    14  H    0.000037  -0.000433  -0.000014  -0.005980   0.000342   0.000072
    15  H    0.000039   0.005291  -0.000182  -0.052642  -0.000076  -0.000058
    16  H    0.005266   0.000285   0.000007   0.005076  -0.000016  -0.008287
    17  H   -0.004338   0.000273  -0.000079  -0.004774   0.000074   0.006328
    18  H   -0.007412  -0.000004  -0.000002  -0.000006  -0.000007  -0.005218
    19  H    0.005570  -0.000115   0.000002   0.000002  -0.000000  -0.003313
    20  H    0.000239   0.000001  -0.000000  -0.000000   0.000000  -0.000204
    21  H    0.000170  -0.000013   0.000000   0.000011   0.000000  -0.000033
    22  H    0.362875  -0.031675  -0.002906   0.005375  -0.010374  -0.009713
    23  H    0.361517  -0.039664  -0.009702  -0.003768   0.006216   0.006582
    24  H    0.005090  -0.028225   0.371125  -0.004984  -0.005743   0.000003
    25  H   -0.006664  -0.027770   0.370770  -0.006718   0.006002   0.000002
    26  H   -0.004931  -0.029210   0.372268   0.005147  -0.004947  -0.000009
    27  H   -0.003889  -0.035828  -0.009530   0.364912   0.006258   0.000083
    28  H    0.005148  -0.034047  -0.003334   0.366748  -0.008355  -0.000019
    29  H   -0.006774  -0.030267  -0.006246   0.005119   0.367897  -0.000113
    30  H   -0.002524  -0.025890   0.005455  -0.004876   0.375543  -0.003602
    31  H    0.004984  -0.030037  -0.008341  -0.004934   0.370087   0.000071
    32  H    0.005309  -0.000003   0.000003   0.000013   0.000043   0.368471
    33  H   -0.006777  -0.000291  -0.000013  -0.000036  -0.000101   0.366415
    34  H   -0.002589   0.001253  -0.000040  -0.000096  -0.003287   0.377655
              13         14         15         16         17         18
     1  N    0.331764   0.331789  -0.062230  -0.005908   0.004680   0.000002
     2  C   -0.030358  -0.030773   0.394124  -0.032931  -0.031377  -0.000134
     3  C   -0.005210   0.006710  -0.055065   0.366136   0.358827   0.005214
     4  C   -0.000356  -0.000001   0.005076  -0.034650  -0.034922  -0.026979
     5  C   -0.000013   0.000004  -0.000145  -0.002732  -0.009652   0.374982
     6  N    0.000000   0.000000   0.000001  -0.000236   0.002361  -0.040867
     7  C    0.000031   0.000037   0.000039   0.005266  -0.004338  -0.007412
     8  C   -0.000020  -0.000433   0.005291   0.000285   0.000273  -0.000004
     9  C    0.000004  -0.000014  -0.000182   0.000007  -0.000079  -0.000002
    10  C    0.006517  -0.005980  -0.052642   0.005076  -0.004774  -0.000006
    11  C    0.000059   0.000342  -0.000076  -0.000016   0.000074  -0.000007
    12  C    0.000312   0.000072  -0.000058  -0.008287   0.006328  -0.005218
    13  H    0.484587  -0.030820  -0.005745   0.005181  -0.000218   0.000000
    14  H   -0.030820   0.484968  -0.004973   0.000003  -0.000290  -0.000000
    15  H   -0.005745  -0.004973   0.723538  -0.003454  -0.003818   0.000003
    16  H    0.005181   0.000003  -0.003454   0.649699  -0.036708  -0.000118
    17  H   -0.000218  -0.000290  -0.003818  -0.036708   0.656377   0.000096
    18  H    0.000000  -0.000000   0.000003  -0.000118   0.000096   0.644186
    19  H    0.000001  -0.000000  -0.000001   0.004644   0.000592  -0.045556
    20  H   -0.000000  -0.000000  -0.000000  -0.000035  -0.000248  -0.006029
    21  H    0.000000  -0.000000   0.000003   0.000133   0.003039   0.006782
    22  H   -0.000001  -0.000001   0.000014  -0.000169  -0.000119   0.003981
    23  H   -0.000001  -0.000002  -0.000017  -0.000061   0.003414  -0.000727
    24  H   -0.000000   0.000001  -0.000001  -0.000000   0.000000  -0.000000
    25  H   -0.000000  -0.000000  -0.000005  -0.000000   0.000006   0.000000
    26  H   -0.000000   0.000000   0.000003  -0.000000   0.000001   0.000001
    27  H   -0.000282  -0.000196  -0.004395  -0.000058   0.003682   0.000000
    28  H    0.000021   0.005568  -0.003627  -0.000189  -0.000079  -0.000000
    29  H   -0.000005  -0.000017   0.000009  -0.000001  -0.000000   0.000000
    30  H    0.000064  -0.000639   0.000114  -0.000003  -0.000003   0.000001
    31  H   -0.000003   0.000137  -0.000008  -0.000000  -0.000001   0.000000
    32  H    0.000146  -0.000003  -0.000011   0.004688  -0.000013  -0.000358
    33  H   -0.000019  -0.000007   0.000010   0.000011  -0.000193   0.005284
    34  H   -0.000599   0.000096   0.000138  -0.000061  -0.000022  -0.000051
              19         20         21         22         23         24
     1  N   -0.000006   0.000000   0.000001  -0.000021   0.000044  -0.000005
     2  C   -0.000044   0.000003  -0.000204   0.000199  -0.000243   0.000038
     3  C   -0.009872   0.000228   0.003880   0.005268  -0.004170  -0.000004
     4  C   -0.043229   0.005151  -0.005729  -0.033340  -0.040329  -0.000149
     5  C    0.380346  -0.031211  -0.039038  -0.002793  -0.012457   0.000002
     6  N   -0.056050   0.337935   0.338064   0.000168   0.020406  -0.000000
     7  C    0.005570   0.000239   0.000170   0.362875   0.361517   0.005090
     8  C   -0.000115   0.000001  -0.000013  -0.031675  -0.039664  -0.028225
     9  C    0.000002  -0.000000   0.000000  -0.002906  -0.009702   0.371125
    10  C    0.000002  -0.000000   0.000011   0.005375  -0.003768  -0.004984
    11  C   -0.000000   0.000000   0.000000  -0.010374   0.006216  -0.005743
    12  C   -0.003313  -0.000204  -0.000033  -0.009713   0.006582   0.000003
    13  H    0.000001  -0.000000   0.000000  -0.000001  -0.000001  -0.000000
    14  H   -0.000000  -0.000000  -0.000000  -0.000001  -0.000002   0.000001
    15  H   -0.000001  -0.000000   0.000003   0.000014  -0.000017  -0.000001
    16  H    0.004644  -0.000035   0.000133  -0.000169  -0.000061  -0.000000
    17  H    0.000592  -0.000248   0.003039  -0.000119   0.003414   0.000000
    18  H   -0.045556  -0.006029   0.006782   0.003981  -0.000727  -0.000000
    19  H    0.693123  -0.002782  -0.006607  -0.000087   0.000805  -0.000000
    20  H   -0.002782   0.477081  -0.031528  -0.000029  -0.000431   0.000000
    21  H   -0.006607  -0.031528   0.481927   0.000008  -0.000662  -0.000000
    22  H   -0.000087  -0.000029   0.000008   0.661732  -0.036873  -0.000160
    23  H    0.000805  -0.000431  -0.000662  -0.036873   0.655178   0.000185
    24  H   -0.000000   0.000000  -0.000000  -0.000160   0.000185   0.625876
    25  H   -0.000000   0.000000   0.000002  -0.000240   0.006235  -0.031985
    26  H    0.000000  -0.000000  -0.000000   0.003603  -0.000071  -0.032207
    27  H    0.000000   0.000000  -0.000004  -0.000140   0.002964  -0.000069
    28  H   -0.000000   0.000000  -0.000000  -0.000172  -0.000132   0.003622
    29  H    0.000000  -0.000000  -0.000000   0.005363   0.000026  -0.000162
    30  H    0.000001  -0.000000  -0.000000   0.000049  -0.000104  -0.000013
    31  H   -0.000000  -0.000000  -0.000000   0.000091  -0.000219   0.004792
    32  H    0.006723  -0.000011  -0.000015   0.000099  -0.000201  -0.000000
    33  H   -0.000305  -0.000005   0.000001   0.005106   0.000002   0.000000
    34  H   -0.000019   0.000003   0.000002   0.000077  -0.000064   0.000001
              25         26         27         28         29         30
     1  N    0.000001   0.000003   0.004668  -0.006223   0.000307   0.010406
     2  C    0.000050  -0.000171  -0.032337  -0.031884  -0.000013   0.000047
     3  C   -0.000009  -0.000007  -0.004676   0.005145  -0.000033  -0.000064
     4  C    0.000066   0.000041   0.000102   0.000307  -0.000290   0.001123
     5  C   -0.000001  -0.000001  -0.000062   0.000006  -0.000012  -0.000034
     6  N   -0.000022   0.000001   0.000002   0.000000   0.000000   0.000000
     7  C   -0.006664  -0.004931  -0.003889   0.005148  -0.006774  -0.002524
     8  C   -0.027770  -0.029210  -0.035828  -0.034047  -0.030267  -0.025890
     9  C    0.370770   0.372268  -0.009530  -0.003334  -0.006246   0.005455
    10  C   -0.006718   0.005147   0.364912   0.366748   0.005119  -0.004876
    11  C    0.006002  -0.004947   0.006258  -0.008355   0.367897   0.375543
    12  C    0.000002  -0.000009   0.000083  -0.000019  -0.000113  -0.003602
    13  H   -0.000000  -0.000000  -0.000282   0.000021  -0.000005   0.000064
    14  H   -0.000000   0.000000  -0.000196   0.005568  -0.000017  -0.000639
    15  H   -0.000005   0.000003  -0.004395  -0.003627   0.000009   0.000114
    16  H   -0.000000  -0.000000  -0.000058  -0.000189  -0.000001  -0.000003
    17  H    0.000006   0.000001   0.003682  -0.000079  -0.000000  -0.000003
    18  H    0.000000   0.000001   0.000000  -0.000000   0.000000   0.000001
    19  H   -0.000000   0.000000   0.000000  -0.000000   0.000000   0.000001
    20  H    0.000000  -0.000000   0.000000   0.000000  -0.000000  -0.000000
    21  H    0.000002  -0.000000  -0.000004  -0.000000  -0.000000  -0.000000
    22  H   -0.000240   0.003603  -0.000140  -0.000172   0.005363   0.000049
    23  H    0.006235  -0.000071   0.002964  -0.000132   0.000026  -0.000104
    24  H   -0.031985  -0.032207  -0.000069   0.003622  -0.000162  -0.000013
    25  H    0.623559  -0.031814   0.005722  -0.000209  -0.000014  -0.000230
    26  H   -0.031814   0.624639   0.000149  -0.000136   0.004284   0.000007
    27  H    0.005722   0.000149   0.652330  -0.035861  -0.000200  -0.000032
    28  H   -0.000209  -0.000136  -0.035861   0.649911   0.000015  -0.000092
    29  H   -0.000014   0.004284  -0.000200   0.000015   0.640102  -0.030851
    30  H   -0.000230   0.000007  -0.000032  -0.000092  -0.030851   0.585284
    31  H    0.000081  -0.000126  -0.000048   0.004495  -0.033347  -0.031043
    32  H   -0.000000   0.000000  -0.000001  -0.000000   0.000001   0.000107
    33  H   -0.000000   0.000001  -0.000000  -0.000001   0.000252   0.000335
    34  H    0.000000   0.000001  -0.000005  -0.000007   0.000318   0.003199
              31         32         33         34
     1  N    0.000079   0.000148   0.000383   0.010240
     2  C   -0.000269  -0.000351   0.000011   0.000044
     3  C    0.000002  -0.005418   0.005165  -0.004908
     4  C   -0.000024  -0.031363  -0.030430  -0.023158
     5  C    0.000003  -0.007064  -0.006865   0.004363
     6  N    0.000000   0.000021   0.000039  -0.000098
     7  C    0.004984   0.005309  -0.006777  -0.002589
     8  C   -0.030037  -0.000003  -0.000291   0.001253
     9  C   -0.008341   0.000003  -0.000013  -0.000040
    10  C   -0.004934   0.000013  -0.000036  -0.000096
    11  C    0.370087   0.000043  -0.000101  -0.003287
    12  C    0.000071   0.368471   0.366415   0.377655
    13  H   -0.000003   0.000146  -0.000019  -0.000599
    14  H    0.000137  -0.000003  -0.000007   0.000096
    15  H   -0.000008  -0.000011   0.000010   0.000138
    16  H   -0.000000   0.004688   0.000011  -0.000061
    17  H   -0.000001  -0.000013  -0.000193  -0.000022
    18  H    0.000000  -0.000358   0.005284  -0.000051
    19  H   -0.000000   0.006723  -0.000305  -0.000019
    20  H   -0.000000  -0.000011  -0.000005   0.000003
    21  H   -0.000000  -0.000015   0.000001   0.000002
    22  H    0.000091   0.000099   0.005106   0.000077
    23  H   -0.000219  -0.000201   0.000002  -0.000064
    24  H    0.004792  -0.000000   0.000000   0.000001
    25  H    0.000081  -0.000000  -0.000000   0.000000
    26  H   -0.000126   0.000000   0.000001   0.000001
    27  H   -0.000048  -0.000001  -0.000000  -0.000005
    28  H    0.004495  -0.000000  -0.000001  -0.000007
    29  H   -0.033347   0.000001   0.000252   0.000318
    30  H   -0.031043   0.000107   0.000335   0.003199
    31  H    0.639785  -0.000003  -0.000000   0.000098
    32  H   -0.000003   0.639404  -0.033499  -0.030402
    33  H   -0.000000  -0.033499   0.642169  -0.030874
    34  H    0.000098  -0.030402  -0.030874   0.574514
 Mulliken charges:
               1
     1  N   -0.621449
     2  C    0.057942
     3  C   -0.178694
     4  C    0.047610
     5  C   -0.041291
     6  N   -0.646106
     7  C   -0.157060
     8  C    0.050605
     9  C   -0.309870
    10  C   -0.167272
    11  C   -0.309635
    12  C   -0.314186
    13  H    0.244962
    14  H    0.244422
    15  H    0.068091
    16  H    0.084488
    17  H    0.087106
    18  H    0.092934
    19  H    0.076178
    20  H    0.251872
    21  H    0.249808
    22  H    0.074803
    23  H    0.086324
    24  H    0.092972
    25  H    0.093182
    26  H    0.093481
    27  H    0.086737
    28  H    0.083379
    29  H    0.084653
    30  H    0.118264
    31  H    0.083700
    32  H    0.083541
    33  H    0.084231
    34  H    0.124275
 Sum of Mulliken charges =  -0.00000
 Mulliken charges with hydrogens summed into heavy atoms:
               1
     1  N   -0.132065
     2  C    0.126034
     3  C   -0.007100
     4  C    0.047610
     5  C    0.127822
     6  N   -0.144426
     7  C    0.004067
     8  C    0.050605
     9  C   -0.030235
    10  C    0.002845
    11  C   -0.023018
    12  C   -0.022139
 APT charges:
               1
     1  N   -1.395314
     2  C   -0.477826
     3  C   -0.697890
     4  C   -0.150876
     5  C   -0.700702
     6  N   -1.472716
     7  C   -0.616867
     8  C   -0.185447
     9  C   -1.175239
    10  C   -0.723201
    11  C   -1.060111
    12  C   -1.049065
    13  H    0.644259
    14  H    0.683724
    15  H    0.464291
    16  H    0.423999
    17  H    0.338709
    18  H    0.418000
    19  H    0.444998
    20  H    0.926995
    21  H    0.430316
    22  H    0.364555
    23  H    0.304225
    24  H    0.501482
    25  H    0.308487
    26  H    0.412317
    27  H    0.341814
    28  H    0.467798
    29  H    0.389558
    30  H    0.233678
    31  H    0.499368
    32  H    0.444988
    33  H    0.389946
    34  H    0.271746
 Sum of APT charges =  -0.00000
 APT charges with hydrogens summed into heavy atoms:
               1
     1  N   -0.067332
     2  C   -0.013535
     3  C    0.064818
     4  C   -0.150876
     5  C    0.162296
     6  N   -0.115404
     7  C    0.051913
     8  C   -0.185447
     9  C    0.047047
    10  C    0.086412
    11  C    0.062493
    12  C    0.057615
 Electronic spatial extent (au):  <R**2>=           2234.9023
 Charge=             -0.0000 electrons
 Dipole moment (field-independent basis, Debye):
    X=              0.9641    Y=              2.2854    Z=             -1.4632  Tot=              2.8798
 Quadrupole moment (field-independent basis, Debye-Ang):
   XX=            -69.2946   YY=            -75.9420   ZZ=            -78.5414
   XY=             -0.8847   XZ=              0.6029   YZ=             -4.5724
 Traceless Quadrupole moment (field-independent basis, Debye-Ang):
   XX=              5.2981   YY=             -1.3493   ZZ=             -3.9487
   XY=             -0.8847   XZ=              0.6029   YZ=             -4.5724
 Octapole moment (field-independent basis, Debye-Ang**2):
  XXX=             37.3911  YYY=             35.2360  ZZZ=             -8.4378  XYY=             -6.6050
  XXY=              5.8445  XXZ=            -12.8497  XZZ=              7.0479  YZZ=             -0.1582
  YYZ=             -2.0344  XYZ=             -0.3132
 Hexadecapole moment (field-independent basis, Debye-Ang**3):
 XXXX=          -1326.9165 YYYY=           -844.9850 ZZZZ=           -565.1012 XXXY=            -78.5670
 XXXZ=            -33.7449 YYYX=            -35.3041 YYYZ=            -21.8106 ZZZX=            -16.8402
 ZZZY=             -4.6966 XXYY=           -394.1610 XXZZ=           -341.0995 YYZZ=           -253.2408
 XXYZ=             -9.5957 YYXZ=             11.0365 ZZXY=             -4.2607
 N-N= 8.188015287726D+02 E-N=-2.805038024956D+03  KE= 4.989423752731D+02
  Exact polarizability:   0.000   0.000   0.000   0.000   0.000   0.000
 Approx polarizability: 167.147  -1.849 163.218  -0.530  -0.389 162.830
 D2PCM: PCM CHGder 2nd derivatives, FixD1E=F FixD2E=F DoIter=F DoCFld=F I1PDM=0
 Calling FoFJK, ICntrl=    100147 FMM=F ISym2X=0 I1Cent= 0 IOpClX= 0 NMat=1 NMatS=1 NMatT=0.
 ***** Axes restored to original set *****
 -------------------------------------------------------------------
 Center     Atomic                   Forces (Hartrees/Bohr)
 Number     Number              X              Y              Z
 -------------------------------------------------------------------
      1        7          -0.002551759   -0.000362483    0.017690272
      2        6          -0.001435525    0.008111262   -0.005102559
      3        6           0.001893831   -0.002951102   -0.001624026
      4        6           0.004223793   -0.003027710    0.005460993
      5        6           0.001696887    0.003624176   -0.003637154
      6        7          -0.006338169   -0.007230213   -0.008726032
      7        6           0.002257698    0.000656978   -0.007220574
      8        6          -0.006694215   -0.005817294    0.001524688
      9        6           0.002035936    0.000391694   -0.001792260
     10        6           0.001901225   -0.000862431   -0.001878297
     11        6          -0.001603794    0.002635655    0.005881462
     12        6           0.001327546    0.000772447    0.004109822
     13        1          -0.001075180   -0.000515615   -0.001120071
     14        1           0.001712066    0.000177110   -0.000998410
     15        1           0.002288194   -0.004260281   -0.010302904
     16        1          -0.000334999    0.000238189    0.001462426
     17        1          -0.000429093   -0.001451947   -0.000258604
     18        1          -0.002011917    0.000467899    0.000593058
     19        1          -0.001707514    0.006122352    0.009608823
     20        1          -0.001892073    0.001322393    0.000108547
     21        1           0.001497676   -0.000725971    0.000982958
     22        1          -0.000433052    0.001343447    0.001273041
     23        1           0.002433685    0.001983578    0.000070646
     24        1          -0.000030175    0.000303662    0.000811517
     25        1           0.000587771    0.000048894   -0.000075114
     26        1          -0.000152333    0.000180217    0.000513241
     27        1           0.000875143   -0.000342098    0.000882888
     28        1           0.000032931    0.000110444    0.001384606
     29        1          -0.000285274   -0.001547880   -0.000989584
     30        1           0.002239254    0.002080199   -0.001668477
     31        1          -0.000536318   -0.000780094   -0.001371739
     32        1           0.001255031   -0.000429861   -0.000988715
     33        1           0.001449071   -0.001493759   -0.000958511
     34        1          -0.002196349    0.001228140   -0.003645953
 -------------------------------------------------------------------
 Cartesian Forces:  Max     0.017690272 RMS     0.003503784
 FormGI is forming the generalized inverse of G from B-inverse, IUseBI=4.

 GradGradGradGradGradGradGradGradGradGradGradGradGradGradGradGradGradGrad
 Berny optimization.
 Internal  Forces:  Max     0.012767624 RMS     0.002148298
 Search for a local minimum.
 Step number   1 out of a maximum of  204
 All quantities printed in internal units (Hartrees-Bohrs-Radians)
 Mixed Optimization -- RFO/linear search
 Second derivative matrix not updated -- analytic derivatives used.
 ITU=  0
     Eigenvalues ---    0.00099   0.00188   0.00219   0.00246   0.00366
     Eigenvalues ---    0.00416   0.00539   0.00615   0.00639   0.02174
     Eigenvalues ---    0.02312   0.03020   0.03225   0.03645   0.03725
     Eigenvalues ---    0.03815   0.04073   0.04175   0.04432   0.04526
     Eigenvalues ---    0.04564   0.04609   0.04632   0.04647   0.04720
     Eigenvalues ---    0.04786   0.04809   0.04900   0.05022   0.05235
     Eigenvalues ---    0.05428   0.05736   0.05956   0.06676   0.07053
     Eigenvalues ---    0.07690   0.07819   0.08295   0.08734   0.08757
     Eigenvalues ---    0.09465   0.10717   0.11658   0.11737   0.11981
     Eigenvalues ---    0.12229   0.13327   0.13945   0.14200   0.14389
     Eigenvalues ---    0.14645   0.14839   0.14979   0.15283   0.15389
     Eigenvalues ---    0.15674   0.17106   0.17594   0.18035   0.19272
     Eigenvalues ---    0.21287   0.21870   0.23260   0.24178   0.24516
     Eigenvalues ---    0.26014   0.26545   0.26655   0.27062   0.28278
     Eigenvalues ---    0.29737   0.30812   0.31150   0.31710   0.32290
     Eigenvalues ---    0.32468   0.32700   0.32805   0.33035   0.33126
     Eigenvalues ---    0.33176   0.33225   0.33345   0.33381   0.33484
     Eigenvalues ---    0.33668   0.33778   0.34164   0.35669   0.36334
     Eigenvalues ---    0.37089   0.37277   0.43953   0.43983   0.44262
     Eigenvalues ---    0.44422
 RFO step:  Lambda=-6.20443066D-03 EMin= 9.92950208D-04
 Linear search not attempted -- first point.
 Iteration  1 RMS(Cart)=  0.02770092 RMS(Int)=  0.00059616
 Iteration  2 RMS(Cart)=  0.00071227 RMS(Int)=  0.00014772
 Iteration  3 RMS(Cart)=  0.00000080 RMS(Int)=  0.00014772
 Variable       Old X    -DE/DX   Delta X   Delta X   Delta X     New X
                                 (Linear)    (Quad)   (Total)
    R1        2.75756   0.01277   0.00000   0.02935   0.02935   2.78690
    R2        1.92520  -0.00117   0.00000   0.00012   0.00012   1.92532
    R3        1.92577  -0.00141   0.00000  -0.00045  -0.00045   1.92531
    R4        2.90111   0.00121   0.00000   0.00890   0.00894   2.91005
    R5        2.89959   0.00073   0.00000   0.00869   0.00870   2.90829
    R6        2.07471   0.00508   0.00000   0.01292   0.01292   2.08763
    R7        2.92942  -0.00203   0.00000  -0.00274  -0.00270   2.92672
    R8        2.07573   0.00027   0.00000   0.00133   0.00133   2.07705
    R9        2.07359   0.00054   0.00000   0.00025   0.00025   2.07384
   R10        2.96268  -0.00905   0.00000  -0.02359  -0.02359   2.93909
   R11        2.93778  -0.00248   0.00000  -0.00727  -0.00728   2.93050
   R12        2.92014  -0.00129   0.00000  -0.00376  -0.00376   2.91638
   R13        2.76311   0.00866   0.00000   0.01543   0.01543   2.77853
   R14        2.07352  -0.00027   0.00000   0.00021   0.00021   2.07373
   R15        2.07343   0.00443   0.00000   0.01242   0.01242   2.08585
   R16        1.92674  -0.00230   0.00000  -0.00358  -0.00358   1.92316
   R17        1.92414  -0.00111   0.00000  -0.00118  -0.00118   1.92296
   R18        2.93219   0.00107   0.00000   0.00330   0.00326   2.93545
   R19        2.07617  -0.00009   0.00000   0.00147   0.00147   2.07763
   R20        2.07589  -0.00056   0.00000  -0.00406  -0.00406   2.07184
   R21        2.93019  -0.00181   0.00000  -0.01136  -0.01136   2.91883
   R22        2.92099   0.00009   0.00000   0.00599   0.00595   2.92693
   R23        2.90882   0.00215   0.00000   0.00839   0.00839   2.91721
   R24        2.07138   0.00005   0.00000   0.00067   0.00067   2.07206
   R25        2.07123   0.00024   0.00000  -0.00020  -0.00020   2.07103
   R26        2.07132   0.00013   0.00000   0.00088   0.00088   2.07220
   R27        2.07834  -0.00064   0.00000  -0.00220  -0.00220   2.07613
   R28        2.07597   0.00008   0.00000   0.00094   0.00094   2.07692
   R29        2.07132   0.00065   0.00000   0.00129   0.00129   2.07261
   R30        2.05548   0.00171   0.00000   0.00253   0.00253   2.05801
   R31        2.07250   0.00046   0.00000   0.00088   0.00088   2.07338
   R32        2.07246   0.00059   0.00000   0.00131   0.00131   2.07377
   R33        2.07170   0.00079   0.00000   0.00114   0.00114   2.07284
   R34        2.05404   0.00116   0.00000   0.00233   0.00233   2.05637
    A1        1.91685  -0.00119   0.00000  -0.01850  -0.01877   1.89809
    A2        1.91566  -0.00119   0.00000  -0.01860  -0.01887   1.89679
    A3        1.85947   0.00003   0.00000  -0.01542  -0.01603   1.84344
    A4        1.95887  -0.00060   0.00000  -0.00963  -0.00984   1.94903
    A5        1.95941  -0.00112   0.00000  -0.01165  -0.01181   1.94760
    A6        1.85109   0.00545   0.00000   0.06901   0.06923   1.92032
    A7        1.94026  -0.00046   0.00000  -0.00978  -0.01011   1.93015
    A8        1.87469  -0.00170   0.00000  -0.01874  -0.01908   1.85561
    A9        1.87307  -0.00135   0.00000  -0.01612  -0.01648   1.85659
   A10        2.02561  -0.00015   0.00000   0.00478   0.00502   2.03063
   A11        1.91961   0.00029   0.00000  -0.00474  -0.00477   1.91484
   A12        1.84631  -0.00002   0.00000  -0.00190  -0.00200   1.84431
   A13        1.91823  -0.00046   0.00000  -0.00281  -0.00292   1.91531
   A14        1.90575  -0.00029   0.00000  -0.00826  -0.00827   1.89748
   A15        1.83776   0.00073   0.00000   0.01400   0.01404   1.85180
   A16        1.92015  -0.00027   0.00000  -0.01110  -0.01139   1.90877
   A17        1.92876  -0.00014   0.00000  -0.01293  -0.01311   1.91565
   A18        1.93725  -0.00049   0.00000   0.00386   0.00396   1.94121
   A19        1.90860  -0.00138   0.00000  -0.01423  -0.01458   1.89403
   A20        1.82418   0.00098   0.00000   0.01431   0.01444   1.83862
   A21        1.94217   0.00133   0.00000   0.02086   0.02090   1.96306
   A22        2.01764  -0.00602   0.00000  -0.01291  -0.01294   2.00470
   A23        1.90282   0.00017   0.00000  -0.02131  -0.02174   1.88108
   A24        1.91598  -0.00516   0.00000  -0.03350  -0.03371   1.88227
   A25        1.87542   0.00137   0.00000  -0.00316  -0.00367   1.87175
   A26        1.88401   0.01059   0.00000   0.07552   0.07559   1.95960
   A27        1.86150  -0.00043   0.00000  -0.00301  -0.00408   1.85743
   A28        1.90291  -0.00026   0.00000  -0.00629  -0.00634   1.89657
   A29        1.91716  -0.00042   0.00000  -0.00616  -0.00621   1.91095
   A30        1.84490  -0.00042   0.00000  -0.01167  -0.01177   1.83313
   A31        2.05681   0.00143   0.00000   0.01376   0.01376   2.07057
[...]
    19    C    2  S      Ryd( 4S)     0.00004
    20    C    2  px     Val( 2p)     1.03980
    21    C    2  px     Ryd( 3p)     0.00192
    22    C    2  py     Val( 2p)     1.00258
    23    C    2  py     Ryd( 3p)     0.00365
    24    C    2  pz     Val( 2p)     1.06625
    25    C    2  pz     Ryd( 3p)     0.00517
    26    C    2  dxy    Ryd( 3d)     0.00100
    27    C    2  dxz    Ryd( 3d)     0.00074
    28    C    2  dyz    Ryd( 3d)     0.00147
    29    C    2  dx2y2  Ryd( 3d)     0.00090
    30    C    2  dz2    Ryd( 3d)     0.00073

    31    C    3  S      Cor( 1S)     1.99921
    32    C    3  S      Val( 2S)     1.03096
    33    C    3  S      Ryd( 3S)     0.00132
    34    C    3  S      Ryd( 4S)     0.00003
    35    C    3  px     Val( 2p)     1.07573
    36    C    3  px     Ryd( 3p)     0.00353
    37    C    3  py     Val( 2p)     1.19503
    38    C    3  py     Ryd( 3p)     0.00430
    39    C    3  pz     Val( 2p)     1.16283
    40    C    3  pz     Ryd( 3p)     0.00330
    41    C    3  dxy    Ryd( 3d)     0.00069
    42    C    3  dxz    Ryd( 3d)     0.00040
    43    C    3  dyz    Ryd( 3d)     0.00069
    44    C    3  dx2y2  Ryd( 3d)     0.00054
    45    C    3  dz2    Ryd( 3d)     0.00077

    46    C    4  S      Cor( 1S)     1.99910
    47    C    4  S      Val( 2S)     0.91270
    48    C    4  S      Ryd( 3S)     0.00065
    49    C    4  S      Ryd( 4S)     0.00002
    50    C    4  px     Val( 2p)     1.05221
    51    C    4  px     Ryd( 3p)     0.00340
    52    C    4  py     Val( 2p)     1.03940
    53    C    4  py     Ryd( 3p)     0.00282
    54    C    4  pz     Val( 2p)     1.03565
    55    C    4  pz     Ryd( 3p)     0.00391
    56    C    4  dxy    Ryd( 3d)     0.00080
    57    C    4  dxz    Ryd( 3d)     0.00041
    58    C    4  dyz    Ryd( 3d)     0.00093
    59    C    4  dx2y2  Ryd( 3d)     0.00070
    60    C    4  dz2    Ryd( 3d)     0.00083

    61    C    5  S      Cor( 1S)     1.99926
    62    C    5  S      Val( 2S)     1.01213
    63    C    5  S      Ryd( 3S)     0.00283
    64    C    5  S      Ryd( 4S)     0.00004
    65    C    5  px     Val( 2p)     1.07420
    66    C    5  px     Ryd( 3p)     0.00173
    67    C    5  py     Val( 2p)     1.16143
    68    C    5  py     Ryd( 3p)     0.00454
    69    C    5  pz     Val( 2p)     0.99428
    70    C    5  pz     Ryd( 3p)     0.00305
    71    C    5  dxy    Ryd( 3d)     0.00103
    72    C    5  dxz    Ryd( 3d)     0.00078
    73    C    5  dyz    Ryd( 3d)     0.00142
    74    C    5  dx2y2  Ryd( 3d)     0.00066
    75    C    5  dz2    Ryd( 3d)     0.00096

    76    N    6  S      Cor( 1S)     1.99965
    77    N    6  S      Val( 2S)     1.44038
    78    N    6  S      Ryd( 3S)     0.00057
    79    N    6  S      Ryd( 4S)     0.00002
    80    N    6  px     Val( 2p)     1.62262
    81    N    6  px     Ryd( 3p)     0.00391
    82    N    6  py     Val( 2p)     1.50529
    83    N    6  py     Ryd( 3p)     0.00285
    84    N    6  pz     Val( 2p)     1.34073
    85    N    6  pz     Ryd( 3p)     0.00240
    86    N    6  dxy    Ryd( 3d)     0.00126
    87    N    6  dxz    Ryd( 3d)     0.00067
    88    N    6  dyz    Ryd( 3d)     0.00098
    89    N    6  dx2y2  Ryd( 3d)     0.00093
    90    N    6  dz2    Ryd( 3d)     0.00064

    91    C    7  S      Cor( 1S)     1.99920
    92    C    7  S      Val( 2S)     1.01770
    93    C    7  S      Ryd( 3S)     0.00141
    94    C    7  S      Ryd( 4S)     0.00003
    95    C    7  px     Val( 2p)     1.04805
    96    C    7  px     Ryd( 3p)     0.00329
    97    C    7  py     Val( 2p)     1.13644
    98    C    7  py     Ryd( 3p)     0.00306
    99    C    7  pz     Val( 2p)     1.25530
   100    C    7  pz     Ryd( 3p)     0.00560
   101    C    7  dxy    Ryd( 3d)     0.00067
   102    C    7  dxz    Ryd( 3d)     0.00042
   103    C    7  dyz    Ryd( 3d)     0.00098
   104    C    7  dx2y2  Ryd( 3d)     0.00062
   105    C    7  dz2    Ryd( 3d)     0.00051

   106    C    8  S      Cor( 1S)     1.99913
   107    C    8  S      Val( 2S)     0.91116
   108    C    8  S      Ryd( 3S)     0.00046
   109    C    8  S      Ryd( 4S)     0.00002
   110    C    8  px     Val( 2p)     1.04920
   111    C    8  px     Ryd( 3p)     0.00279
   112    C    8  py     Val( 2p)     1.03797
   113    C    8  py     Ryd( 3p)     0.00353
   114    C    8  pz     Val( 2p)     1.03538
   115    C    8  pz     Ryd( 3p)     0.00270
   116    C    8  dxy    Ryd( 3d)     0.00061
   117    C    8  dxz    Ryd( 3d)     0.00070
   118    C    8  dyz    Ryd( 3d)     0.00085
   119    C    8  dx2y2  Ryd( 3d)     0.00084
   120    C    8  dz2    Ryd( 3d)     0.00069

   121    C    9  S      Cor( 1S)     1.99939
   122    C    9  S      Val( 2S)     1.09310
   123    C    9  S      Ryd( 3S)     0.00060
   124    C    9  S      Ryd( 4S)     0.00001
   125    C    9  px     Val( 2p)     1.22258
   126    C    9  px     Ryd( 3p)     0.00216
   127    C    9  py     Val( 2p)     1.12121
   128    C    9  py     Ryd( 3p)     0.00266
   129    C    9  pz     Val( 2p)     1.23561
   130    C    9  pz     Ryd( 3p)     0.00229
   131    C    9  dxy    Ryd( 3d)     0.00032
   132    C    9  dxz    Ryd( 3d)     0.00041
   133    C    9  dyz    Ryd( 3d)     0.00091
   134    C    9  dx2y2  Ryd( 3d)     0.00083
   135    C    9  dz2    Ryd( 3d)     0.00043

   136    C   10  S      Cor( 1S)     1.99921
   137    C   10  S      Val( 2S)     1.03195
   138    C   10  S      Ryd( 3S)     0.00135
   139    C   10  S      Ryd( 4S)     0.00003
   140    C   10  px     Val( 2p)     1.20439
   141    C   10  px     Ryd( 3p)     0.00456
   142    C   10  py     Val( 2p)     1.05614
   143    C   10  py     Ryd( 3p)     0.00354
   144    C   10  pz     Val( 2p)     1.16915
   145    C   10  pz     Ryd( 3p)     0.00315
   146    C   10  dxy    Ryd( 3d)     0.00059
   147    C   10  dxz    Ryd( 3d)     0.00035
   148    C   10  dyz    Ryd( 3d)     0.00073
   149    C   10  dx2y2  Ryd( 3d)     0.00067
   150    C   10  dz2    Ryd( 3d)     0.00076

   151    C   11  S      Cor( 1S)     1.99936
   152    C   11  S      Val( 2S)     1.09526
   153    C   11  S      Ryd( 3S)     0.00066
   154    C   11  S      Ryd( 4S)     0.00001
   155    C   11  px     Val( 2p)     1.20321
   156    C   11  px     Ryd( 3p)     0.00192
   157    C   11  py     Val( 2p)     1.22631
   158    C   11  py     Ryd( 3p)     0.00226
   159    C   11  pz     Val( 2p)     1.14730
   160    C   11  pz     Ryd( 3p)     0.00246
   161    C   11  dxy    Ryd( 3d)     0.00019
   162    C   11  dxz    Ryd( 3d)     0.00040
   163    C   11  dyz    Ryd( 3d)     0.00079
   164    C   11  dx2y2  Ryd( 3d)     0.00094
   165    C   11  dz2    Ryd( 3d)     0.00057

   166    C   12  S      Cor( 1S)     1.99936
   167    C   12  S      Val( 2S)     1.09239
   168    C   12  S      Ryd( 3S)     0.00055
   169    C   12  S      Ryd( 4S)     0.00002
   170    C   12  px     Val( 2p)     1.24150
   171    C   12  px     Ryd( 3p)     0.00234
   172    C   12  py     Val( 2p)     1.21264
   173    C   12  py     Ryd( 3p)     0.00197
   174    C   12  pz     Val( 2p)     1.12798
   175    C   12  pz     Ryd( 3p)     0.00225
   176    C   12  dxy    Ryd( 3d)     0.00087
   177    C   12  dxz    Ryd( 3d)     0.00021
   178    C   12  dyz    Ryd( 3d)     0.00079
   179    C   12  dx2y2  Ryd( 3d)     0.00027
   180    C   12  dz2    Ryd( 3d)     0.00073

   181    H   13  S      Val( 1S)     0.67025
   182    H   13  S      Ryd( 2S)     0.06387
   183    H   13  px     Ryd( 2p)     0.00039
   184    H   13  py     Ryd( 2p)     0.00062
   185    H   13  pz     Ryd( 2p)     0.00023

   186    H   14  S      Val( 1S)     0.67000
   187    H   14  S      Ryd( 2S)     0.06467
   188    H   14  px     Ryd( 2p)     0.00068
   189    H   14  py     Ryd( 2p)     0.00025
   190    H   14  pz     Ryd( 2p)     0.00031

   191    H   15  S      Val( 1S)     0.69899
   192    H   15  S      Ryd( 2S)     0.03693
   193    H   15  px     Ryd( 2p)     0.00012
   194    H   15  py     Ryd( 2p)     0.00012
   195    H   15  pz     Ryd( 2p)     0.00038

   196    H   16  S      Val( 1S)     0.77683
   197    H   16  S      Ryd( 2S)     0.02570
   198    H   16  px     Ryd( 2p)     0.00017
   199    H   16  py     Ryd( 2p)     0.00028
   200    H   16  pz     Ryd( 2p)     0.00009

   201    H   17  S      Val( 1S)     0.77453
   202    H   17  S      Ryd( 2S)     0.01687
   203    H   17  px     Ryd( 2p)     0.00014
   204    H   17  py     Ryd( 2p)     0.00014
   205    H   17  pz     Ryd( 2p)     0.00026

   206    H   18  S      Val( 1S)     0.76515
   207    H   18  S      Ryd( 2S)     0.00329
   208    H   18  px     Ryd( 2p)     0.00010
   209    H   18  py     Ryd( 2p)     0.00020
   210    H   18  pz     Ryd( 2p)     0.00025

   211    H   19  S      Val( 1S)     0.78758
   212    H   19  S      Ryd( 2S)     0.00389
   213    H   19  px     Ryd( 2p)     0.00020
   214    H   19  py     Ryd( 2p)     0.00027
   215    H   19  pz     Ryd( 2p)     0.00009

   216    H   20  S      Val( 1S)     0.60797
   217    H   20  S      Ryd( 2S)     0.00417
   218    H   20  px     Ryd( 2p)     0.00065
   219    H   20  py     Ryd( 2p)     0.00046
   220    H   20  pz     Ryd( 2p)     0.00030

   221    H   21  S      Val( 1S)     0.61449
   222    H   21  S      Ryd( 2S)     0.00601
   223    H   21  px     Ryd( 2p)     0.00050
   224    H   21  py     Ryd( 2p)     0.00048
   225    H   21  pz     Ryd( 2p)     0.00043

   226    H   22  S      Val( 1S)     0.77187
   227    H   22  S      Ryd( 2S)     0.00818
   228    H   22  px     Ryd( 2p)     0.00009
   229    H   22  py     Ryd( 2p)     0.00018
   230    H   22  pz     Ryd( 2p)     0.00027

   231    H   23  S      Val( 1S)     0.75246
   232    H   23  S      Ryd( 2S)     0.00721
   233    H   23  px     Ryd( 2p)     0.00017
   234    H   23  py     Ryd( 2p)     0.00017
   235    H   23  pz     Ryd( 2p)     0.00024

   236    H   24  S      Val( 1S)     0.76842
   237    H   24  S      Ryd( 2S)     0.00305
   238    H   24  px     Ryd( 2p)     0.00033
   239    H   24  py     Ryd( 2p)     0.00008
   240    H   24  pz     Ryd( 2p)     0.00010

   241    H   25  S      Val( 1S)     0.77121
   242    H   25  S      Ryd( 2S)     0.00477
   243    H   25  px     Ryd( 2p)     0.00014
   244    H   25  py     Ryd( 2p)     0.00012
   245    H   25  pz     Ryd( 2p)     0.00026

   246    H   26  S      Val( 1S)     0.76356
   247    H   26  S      Ryd( 2S)     0.00248
   248    H   26  px     Ryd( 2p)     0.00009
   249    H   26  py     Ryd( 2p)     0.00021
   250    H   26  pz     Ryd( 2p)     0.00022

   251    H   27  S      Val( 1S)     0.77931
   252    H   27  S      Ryd( 2S)     0.01897
   253    H   27  px     Ryd( 2p)     0.00011
   254    H   27  py     Ryd( 2p)     0.00015
   255    H   27  pz     Ryd( 2p)     0.00027

   256    H   28  S      Val( 1S)     0.77817
   257    H   28  S      Ryd( 2S)     0.02595
   258    H   28  px     Ryd( 2p)     0.00034
   259    H   28  py     Ryd( 2p)     0.00010
   260    H   28  pz     Ryd( 2p)     0.00009

   261    H   29  S      Val( 1S)     0.76818
   262    H   29  S      Ryd( 2S)     0.00630
   263    H   29  px     Ryd( 2p)     0.00009
   264    H   29  py     Ryd( 2p)     0.00019
   265    H   29  pz     Ryd( 2p)     0.00024

   266    H   30  S      Val( 1S)     0.77474
   267    H   30  S      Ryd( 2S)     0.00248
   268    H   30  px     Ryd( 2p)     0.00012
   269    H   30  py     Ryd( 2p)     0.00031
   270    H   30  pz     Ryd( 2p)     0.00011

   271    H   31  S      Val( 1S)     0.77246
   272    H   31  S      Ryd( 2S)     0.00747
   273    H   31  px     Ryd( 2p)     0.00033
   274    H   31  py     Ryd( 2p)     0.00008
   275    H   31  pz     Ryd( 2p)     0.00009

   276    H   32  S      Val( 1S)     0.77155
   277    H   32  S      Ryd( 2S)     0.00666
   278    H   32  px     Ryd( 2p)     0.00021
   279    H   32  py     Ryd( 2p)     0.00022
   280    H   32  pz     Ryd( 2p)     0.00008

   281    H   33  S      Val( 1S)     0.76587
   282    H   33  S      Ryd( 2S)     0.00545
   283    H   33  px     Ryd( 2p)     0.00009
   284    H   33  py     Ryd( 2p)     0.00018
   285    H   33  pz     Ryd( 2p)     0.00024

   286    H   34  S      Val( 1S)     0.76871
   287    H   34  S      Ryd( 2S)     0.00203
   288    H   34  px     Ryd( 2p)     0.00030
   289    H   34  py     Ryd( 2p)     0.00015
   290    H   34  pz     Ryd( 2p)     0.00009


 Summary of Natural Population Analysis:                  
                                                          
                                       Natural Population 
                Natural  -----------------------------------------------
    Atom  No    Charge         Core      Valence    Rydberg      Total
 -----------------------------------------------------------------------
      N    1   -0.42311      1.99933     5.40833    0.01545     7.42311
      C    2   -0.10590      1.99912     4.08952    0.01725     6.10590
      C    3   -0.47934      1.99921     4.46456    0.01557     6.47934
      C    4   -0.05356      1.99910     4.03996    0.01450     6.05356
      C    5   -0.25834      1.99926     4.24204    0.01704     6.25834
      N    6   -0.92289      1.99965     5.90902    0.01423     7.92289
      C    7   -0.47327      1.99920     4.45748    0.01659     6.47327
      C    8   -0.04603      1.99913     4.03372    0.01318     6.04603
      C    9   -0.68251      1.99939     4.67250    0.01062     6.68251
      C   10   -0.47657      1.99921     4.46163    0.01573     6.47657
      C   11   -0.68162      1.99936     4.67207    0.01020     6.68162
      C   12   -0.68386      1.99936     4.67450    0.01000     6.68386
      H   13    0.26463      0.00000     0.67025    0.06512     0.73537
      H   14    0.26408      0.00000     0.67000    0.06592     0.73592
      H   15    0.26346      0.00000     0.69899    0.03755     0.73654
      H   16    0.19694      0.00000     0.77683    0.02623     0.80306
      H   17    0.20806      0.00000     0.77453    0.01741     0.79194
      H   18    0.23101      0.00000     0.76515    0.00384     0.76899
      H   19    0.20797      0.00000     0.78758    0.00445     0.79203
      H   20    0.38644      0.00000     0.60797    0.00559     0.61356
      H   21    0.37810      0.00000     0.61449    0.00741     0.62190
      H   22    0.21941      0.00000     0.77187    0.00872     0.78059
      H   23    0.23975      0.00000     0.75246    0.00779     0.76025
      H   24    0.22801      0.00000     0.76842    0.00357     0.77199
      H   25    0.22350      0.00000     0.77121    0.00529     0.77650
      H   26    0.23344      0.00000     0.76356    0.00301     0.76656
      H   27    0.20118      0.00000     0.77931    0.01951     0.79882
      H   28    0.19534      0.00000     0.77817    0.02649     0.80466
      H   29    0.22501      0.00000     0.76818    0.00682     0.77499
      H   30    0.22225      0.00000     0.77474    0.00302     0.77775
      H   31    0.21957      0.00000     0.77246    0.00798     0.78043
      H   32    0.22128      0.00000     0.77155    0.00717     0.77872
      H   33    0.22816      0.00000     0.76587    0.00597     0.77184
      H   34    0.22871      0.00000     0.76871    0.00258     0.77129
 =======================================================================
   * Total *   -0.00071     23.99131    71.49762    0.51178    96.00071

                                 Natural Population      
 --------------------------------------------------------
   Core                      23.99131 ( 99.9638% of  24)
   Valence                   71.49762 ( 99.3023% of  72)
   Natural Minimal Basis     95.48894 ( 99.4676% of  96)
   Natural Rydberg Basis      0.51178 (  0.5331% of  96)
 --------------------------------------------------------

    Atom  No          Natural Electron Configuration
 ----------------------------------------------------------------------------
      N    1      [core]2S( 1.48)2p( 3.92)3S( 0.01)
      C    2      [core]2S( 0.98)2p( 3.11)3p( 0.01)
      C    3      [core]2S( 1.03)2p( 3.43)3p( 0.01)
      C    4      [core]2S( 0.91)2p( 3.13)3p( 0.01)
      C    5      [core]2S( 1.01)2p( 3.23)3p( 0.01)
      N    6      [core]2S( 1.44)2p( 4.47)3p( 0.01)
      C    7      [core]2S( 1.02)2p( 3.44)3p( 0.01)
      C    8      [core]2S( 0.91)2p( 3.12)3p( 0.01)
      C    9      [core]2S( 1.09)2p( 3.58)3p( 0.01)
      C   10      [core]2S( 1.03)2p( 3.43)3p( 0.01)
      C   11      [core]2S( 1.10)2p( 3.58)3p( 0.01)
      C   12      [core]2S( 1.09)2p( 3.58)3p( 0.01)
      H   13            1S( 0.67)2S( 0.06)
      H   14            1S( 0.67)2S( 0.06)
      H   15            1S( 0.70)2S( 0.04)
      H   16            1S( 0.78)2S( 0.03)
      H   17            1S( 0.77)2S( 0.02)
      H   18            1S( 0.77)
      H   19            1S( 0.79)
      H   20            1S( 0.61)
      H   21            1S( 0.61)2S( 0.01)
      H   22            1S( 0.77)2S( 0.01)
      H   23            1S( 0.75)2S( 0.01)
      H   24            1S( 0.77)
      H   25            1S( 0.77)
      H   26            1S( 0.76)
      H   27            1S( 0.78)2S( 0.02)
      H   28            1S( 0.78)2S( 0.03)
      H   29            1S( 0.77)2S( 0.01)
      H   30            1S( 0.77)
      H   31            1S( 0.77)2S( 0.01)
      H   32            1S( 0.77)2S( 0.01)
      H   33            1S( 0.77)2S( 0.01)
      H   34            1S( 0.77)


 NBO analysis skipped by request.
 1\1\GINC-DRG2-W002\SP\RB3LYP TD-FC\6-31G(d,p)\C10H22N2\QDUEZ\18-Jul-20
 24\0\\# TD(NStates=10, Root=1) B3LYP/6-31G** SCRF=(Solvent=water) volu
 me pop=NPA density=current Geom=AllCheck Guess=Read\\RNLHGQLZWXBQNY-SC
 ZZXKLOSA-N_conf_0\\0,1\N,0,-0.7586204603,2.4892418596,0.5298259887\C,0
 ,-0.4523769444,1.7272207281,-0.6972182986\C,0,0.9696221775,1.136560093
 1,-0.6557745808\C,0,1.1831653342,-0.0822119019,0.2750733239\C,0,2.5466
 250303,-0.7513244286,-0.0692712795\N,0,2.6728919005,-1.1991012494,-1.4
 654722587\C,0,0.0594813269,-1.1226462465,0.0336251235\C,0,-1.410803168
 6,-0.6272051873,-0.0318629753\C,0,-2.2557543529,-1.7514861204,-0.66940
 99354\C,0,-1.4923765283,0.6194494174,-0.9482196812\C,0,-2.0104590667,-
 0.3437477249,1.3622834671\C,0,1.2914217665,0.3462371465,1.7530218859\H
 ,0,-0.0949600189,3.2583925807,0.6099052443\H,0,-1.6716319479,2.9286878
 79,0.4213288242\H,0,-0.4860718111,2.3885102345,-1.5818305525\H,0,1.690
 1489672,1.928033985,-0.404238061\H,0,1.1979503222,0.8269267282,-1.6830
 657774\H,0,2.654634684,-1.6347250879,0.5723795894\H,0,3.3498509793,-0.
 0545881368,0.2237241764\H,0,3.4133433604,-1.8937607327,-1.5244148613\H
 ,0,2.9861644248,-0.4258365208,-2.0470489256\H,0,0.1360277822,-1.915124
 0289,0.7921524395\H,0,0.2896025316,-1.5968329561,-0.9280119389\H,0,-3.
 3050289707,-1.4482930221,-0.7667786927\H,0,-1.8872108112,-2.0135326844
 ,-1.6676970588\H,0,-2.2285130975,-2.658492231,-0.0536146399\H,0,-1.352
 9382271,0.2882935251,-1.9864295249\H,0,-2.5037909662,1.0473358431,-0.9
 015344205\H,0,-1.8956276982,-1.2167048427,2.0163570563\H,0,-1.55051914
 05,0.5203960123,1.8392050897\H,0,-3.0846428513,-0.1379101081,1.2738885
 152\H,0,2.1811933577,0.9710820647,1.9026070691\H,0,1.3909634387,-0.530
 5524623,2.4047899898\H,0,0.4282386779,0.9277075756,2.0717256798\\Versi
 on=ES64L-G16RevA.03\State=1-A\HF=-503.851135\RMSD=5.840e-09\Dipole=0.5
 847906,0.8961388,0.1728889\Quadrupole=1.6688556,1.0834555,-2.7523111,-
 2.7981205,-1.8120765,-1.0876603\PG=C01 [X(C10H22N2)]\\@


 NATURE REVEALS EVERY SECRET ONCE.
                    - RALPH WALDO EMERSON
 Job cpu time:       0 days  1 hours 10 minutes 11.1 seconds.
 Elapsed time:       0 days  0 hours 23 minutes 27.6 seconds.
 File lengths (MBytes):  RWF=    683 Int=      0 D2E=      0 Chk=     44 Scr=      1
 Normal termination of Gaussian 16 at Thu Jul 18 23:12:20 2024.
