 Entering Gaussian System, Link 0=g16
 Initial command:
 /opt/sw/arch/manual/gaussian/G16_A03/g16/l1.exe "/scratch/1380981/Gau-109941.inp" -scrdir="/scratch/1380981/"
 Entering Link 1 = /opt/sw/arch/manual/gaussian/G16_A03/g16/l1.exe PID=    109942.
  
 Copyright (c) 1988,1990,1992,1993,1995,1998,2003,2009,2016,
            Gaussian, Inc.  All Rights Reserved.
  
 This is part of the Gaussian(R) 16 program.  It is based on
 the Gaussian(R) 09 system (copyright 2009, Gaussian, Inc.),
 the Gaussian(R) 03 system (copyright 2003, Gaussian, Inc.),
 the Gaussian(R) 98 system (copyright 1998, Gaussian, Inc.),
 the Gaussian(R) 94 system (copyright 1995, Gaussian, Inc.),
 the Gaussian 92(TM) system (copyright 1992, Gaussian, Inc.),
 the Gaussian 90(TM) system (copyright 1990, Gaussian, Inc.),
 the Gaussian 88(TM) system (copyright 1988, Gaussian, Inc.),
 the Gaussian 86(TM) system (copyright 1986, Carnegie Mellon
 University), and the Gaussian 82(TM) system (copyright 1983,
 Carnegie Mellon University). Gaussian is a federally registered
 trademark of Gaussian, Inc.
  
 This software contains proprietary and confidential information,
 including trade secrets, belonging to Gaussian, Inc.
  
 This software is provided under written license and may be
 used, copied, transmitted, or stored only in accord with that
 written license.
  
 The following legend is applicable only to US Government
 contracts under FAR:
  
                    RESTRICTED RIGHTS LEGEND
  
 Use, reproduction and disclosure by the US Government is
 subject to restrictions as set forth in subparagraphs (a)
 and (c) of the Commercial Computer Software - Restricted
 Rights clause in FAR 52.227-19.
  
 Gaussian, Inc.
 340 Quinnipiac St., Bldg. 40, Wallingford CT 06492
  
  
 ---------------------------------------------------------------
 Warning -- This program may not be used in any manner that
 competes with the business of Gaussian, Inc. or will provide
 assistance to any competitor of Gaussian, Inc.  The licensee
 of this program is prohibited from giving any competitor of
 Gaussian, Inc. access to this program.  By using this program,
 the user acknowledges that Gaussian, Inc. is engaged in the
 business of creating and licensing software in the field of
 computational chemistry and represents and warrants to the
 licensee that it is not a competitor of Gaussian, Inc. and that
 it will not use this program in any manner prohibited above.
 ---------------------------------------------------------------
  

 Cite this work as:
 Gaussian 16, Revision A.03,
 M. J. Frisch, G. W. Trucks, H. B. Schlegel, G. E. Scuseria, 
 M. A. Robb, J. R. Cheeseman, G. Scalmani, V. Barone, 
 G. A. Petersson, H. Nakatsuji, X. Li, M. Caricato, A. V. Marenich, 
 J. Bloino, B. G. Janesko, R. Gomperts, B. Mennucci, H. P. Hratchian, 
 J. V. Ortiz, A. F. Izmaylov, J. L. Sonnenberg, D. Williams-Young, 
 F. Ding, F. Lipparini, F. Egidi, J. Goings, B. Peng, A. Petrone, 
 T. Henderson, D. Ranasinghe, V. G. Zakrzewski, J. Gao, N. Rega, 
 G. Zheng, W. Liang, M. Hada, M. Ehara, K. Toyota, R. Fukuda, 
 J. Hasegawa, M. Ishida, T. Nakajima, Y. Honda, O. Kitao, H. Nakai, 
 T. Vreven, K. Throssell, J. A. Montgomery, Jr., J. E. Peralta, 
 F. Ogliaro, M. J. Bearpark, J. J. Heyd, E. N. Brothers, K. N. Kudin, 
 V. N. Staroverov, T. A. Keith, R. Kobayashi, J. Normand, 
 K. Raghavachari, A. P. Rendell, J. C. Burant, S. S. Iyengar, 
 J. Tomasi, M. Cossi, J. M. Millam, M. Klene, C. Adamo, R. Cammi, 
 J. W. Ochterski, R. L. Martin, K. Morokuma, O. Farkas, 
 J. B. Foresman, and D. J. Fox, Gaussian, Inc., Wallingford CT, 2016.
 
 ******************************************
 Gaussian 16:  ES64L-G16RevA.03 25-Dec-2016
                18-Jul-2024 
 ******************************************
 %nprocshared=5
 Will use up to    5 processors via shared memory.
 %mem=10GB
 %Chk=RNLHGQLZWXBQNY-SCZZXKLOSA-N_conf_2_0.chk
 -------------------------------------------------------
 # opt=CalcFc B3LYP/6-31G** SCRF=(Solvent=water) scf=xqc
 -------------------------------------------------------
 1/10=4,18=20,19=15,26=3,38=1/1,3;
 2/9=110,12=2,17=6,18=5,40=1/2;
 3/5=1,6=6,7=101,11=2,25=1,30=1,70=2201,71=2,72=1,74=-5,140=1/1,2,3;
 4//1;
 5/5=2,8=3,13=1,38=5,53=1/2,8;
 8/6=4,10=90,11=11/1;
 11/6=1,8=1,9=11,15=111,16=1/1,2,10;
 10/6=1,13=1/2;
 6/7=2,8=2,9=2,10=2,28=1/1;
 7/10=1,18=20,25=1/1,2,3,16;
 1/10=4,18=20,19=15,26=3/3(2);
 2/9=110/2;
 99//99;
 2/9=110/2;
 3/5=1,6=6,7=101,11=2,25=1,30=1,70=2205,71=1,72=1,74=-5/1,2,3;
 4/5=5,16=3,69=1/1;
 5/5=2,8=3,13=1,38=5,53=1/2,8;
 7//1,2,3,16;
 1/18=20,19=15,26=3/3(-5);
 2/9=110/2;
 6/7=2,8=2,9=2,10=2,19=2,28=1/1;
 99/9=1/99;
 ----------------------------------
 RNLHGQLZWXBQNY-SCZZXKLOSA-N_conf_2
 ----------------------------------
 Symbolic Z-matrix:
 Charge =  0 Multiplicity = 1
 N                     0.48705   3.19417   0.26143 
 C                     0.44462   1.74305   0.46986 
 C                    -0.98303   1.22231   0.25771 
 C                    -1.10655  -0.31437   0.40585 
 C                    -2.53481  -0.77793  -0.03347 
 N                    -2.90366  -0.44482  -1.40735 
 C                    -0.02217  -1.02801  -0.45102 
 C                     1.42707  -0.47444  -0.38564 
 C                     2.2121   -1.04868  -1.58927 
 C                     1.42333   1.06607  -0.4967 
 C                     2.17525  -0.93063   0.88052 
 C                    -0.99     -0.71191   1.89537 
 H                     0.19184   3.40894  -0.69124 
 H                    -0.19806   3.64285   0.86875 
 H                     0.75992   1.56263   1.50166 
 H                    -1.31238   1.52206  -0.74631 
 H                    -1.66669   1.71575   0.96178 
 H                    -2.62751  -1.86336   0.09649 
 H                    -3.28207  -0.31691   0.6243 
 H                    -2.34575  -0.99255  -2.06038 
 H                    -3.87033  -0.72571  -1.57104 
 H                    -0.32846  -0.96182  -1.50258 
 H                    -0.01901  -2.10192  -0.22 
 H                     3.24408  -0.67968  -1.60331 
 H                     2.2473   -2.14343  -1.55053 
 H                     1.74991  -0.76418  -2.54142 
 H                     1.15752   1.34843  -1.52577 
 H                     2.43811   1.45192  -0.32883 
 H                     1.83549  -0.42788   1.78573 
 H                     3.24729  -0.71381   0.79884 
 H                     2.07133  -2.01058   1.03323 
 H                    -0.95807  -1.8011    2.011 
 H                    -1.8529   -0.34728   2.46581 
 H                    -0.11077  -0.29717   2.38653 
 

 GradGradGradGradGradGradGradGradGradGradGradGradGradGradGradGradGradGrad
 Berny optimization.
 Initialization pass.
                           ----------------------------
                           !    Initial Parameters    !
                           ! (Angstroms and Degrees)  !
 --------------------------                            --------------------------
 ! Name  Definition              Value          Derivative Info.                !
 --------------------------------------------------------------------------------
 ! R1    R(1,2)                  1.4666         calculate D2E/DX2 analytically  !
 ! R2    R(1,13)                 1.0202         calculate D2E/DX2 analytically  !
 ! R3    R(1,14)                 1.0196         calculate D2E/DX2 analytically  !
 ! R4    R(2,3)                  1.5344         calculate D2E/DX2 analytically  !
 ! R5    R(2,10)                 1.5331         calculate D2E/DX2 analytically  !
 ! R6    R(2,15)                 1.0939         calculate D2E/DX2 analytically  !
 ! R7    R(3,4)                  1.5487         calculate D2E/DX2 analytically  !
 ! R8    R(3,16)                 1.0984         calculate D2E/DX2 analytically  !
 ! R9    R(3,17)                 1.0985         calculate D2E/DX2 analytically  !
 ! R10   R(4,5)                  1.5646         calculate D2E/DX2 analytically  !
 ! R11   R(4,7)                  1.5554         calculate D2E/DX2 analytically  !
 ! R12   R(4,12)                 1.5461         calculate D2E/DX2 analytically  !
 ! R13   R(5,6)                  1.461          calculate D2E/DX2 analytically  !
 ! R14   R(5,18)                 1.0971         calculate D2E/DX2 analytically  !
 ! R15   R(5,19)                 1.0971         calculate D2E/DX2 analytically  !
 ! R16   R(6,20)                 1.0187         calculate D2E/DX2 analytically  !
 ! R17   R(6,21)                 1.0199         calculate D2E/DX2 analytically  !
 ! R18   R(7,8)                  1.5527         calculate D2E/DX2 analytically  !
 ! R19   R(7,22)                 1.0973         calculate D2E/DX2 analytically  !
 ! R20   R(7,23)                 1.0985         calculate D2E/DX2 analytically  !
 ! R21   R(8,9)                  1.5475         calculate D2E/DX2 analytically  !
 ! R22   R(8,10)                 1.5445         calculate D2E/DX2 analytically  !
 ! R23   R(8,11)                 1.5398         calculate D2E/DX2 analytically  !
 ! R24   R(9,24)                 1.0961         calculate D2E/DX2 analytically  !
 ! R25   R(9,25)                 1.096          calculate D2E/DX2 analytically  !
 ! R26   R(9,26)                 1.096          calculate D2E/DX2 analytically  !
 ! R27   R(10,27)                1.0997         calculate D2E/DX2 analytically  !
 ! R28   R(10,28)                1.0986         calculate D2E/DX2 analytically  !
 ! R29   R(11,29)                1.0898         calculate D2E/DX2 analytically  !
 ! R30   R(11,30)                1.0968         calculate D2E/DX2 analytically  !
 ! R31   R(11,31)                1.0956         calculate D2E/DX2 analytically  !
 ! R32   R(12,32)                1.0958         calculate D2E/DX2 analytically  !
 ! R33   R(12,33)                1.0968         calculate D2E/DX2 analytically  !
 ! R34   R(12,34)                1.0892         calculate D2E/DX2 analytically  !
 ! A1    A(2,1,13)             109.4282         calculate D2E/DX2 analytically  !
 ! A2    A(2,1,14)             109.3494         calculate D2E/DX2 analytically  !
 ! A3    A(13,1,14)            105.6132         calculate D2E/DX2 analytically  !
 ! A4    A(1,2,3)              110.0632         calculate D2E/DX2 analytically  !
 ! A5    A(1,2,10)             109.1982         calculate D2E/DX2 analytically  !
 ! A6    A(1,2,15)             106.7924         calculate D2E/DX2 analytically  !
 ! A7    A(3,2,10)             110.9124         calculate D2E/DX2 analytically  !
 ! A8    A(3,2,15)             110.037          calculate D2E/DX2 analytically  !
 ! A9    A(10,2,15)            109.7458         calculate D2E/DX2 analytically  !
 ! A10   A(2,3,4)              113.4357         calculate D2E/DX2 analytically  !
 ! A11   A(2,3,16)             108.2262         calculate D2E/DX2 analytically  !
 ! A12   A(2,3,17)             109.7555         calculate D2E/DX2 analytically  !
 ! A13   A(4,3,16)             109.5308         calculate D2E/DX2 analytically  !
 ! A14   A(4,3,17)             109.5586         calculate D2E/DX2 analytically  !
 ! A15   A(16,3,17)            106.0627         calculate D2E/DX2 analytically  !
 ! A16   A(3,4,5)              109.8727         calculate D2E/DX2 analytically  !
 ! A17   A(3,4,7)              110.2998         calculate D2E/DX2 analytically  !
 ! A18   A(3,4,12)             109.9547         calculate D2E/DX2 analytically  !
 ! A19   A(5,4,7)              110.2304         calculate D2E/DX2 analytically  !
 ! A20   A(5,4,12)             105.2578         calculate D2E/DX2 analytically  !
 ! A21   A(7,4,12)             111.1133         calculate D2E/DX2 analytically  !
 ! A22   A(4,5,6)              115.2754         calculate D2E/DX2 analytically  !
 ! A23   A(4,5,18)             109.6946         calculate D2E/DX2 analytically  !
 ! A24   A(4,5,19)             109.2041         calculate D2E/DX2 analytically  !
 ! A25   A(6,5,18)             108.3993         calculate D2E/DX2 analytically  !
 ! A26   A(6,5,19)             107.2194         calculate D2E/DX2 analytically  !
 ! A27   A(18,5,19)            106.6888         calculate D2E/DX2 analytically  !
 ! A28   A(5,6,20)             109.9964         calculate D2E/DX2 analytically  !
 ! A29   A(5,6,21)             109.1124         calculate D2E/DX2 analytically  !
 ! A30   A(20,6,21)            105.553          calculate D2E/DX2 analytically  !
 ! A31   A(4,7,8)              117.6404         calculate D2E/DX2 analytically  !
 ! A32   A(4,7,22)             107.798          calculate D2E/DX2 analytically  !
 ! A33   A(4,7,23)             109.5539         calculate D2E/DX2 analytically  !
 ! A34   A(8,7,22)             106.2234         calculate D2E/DX2 analytically  !
 ! A35   A(8,7,23)             109.6938         calculate D2E/DX2 analytically  !
 ! A36   A(22,7,23)            105.1484         calculate D2E/DX2 analytically  !
 ! A37   A(7,8,9)              107.9651         calculate D2E/DX2 analytically  !
 ! A38   A(7,8,10)             110.5054         calculate D2E/DX2 analytically  !
 ! A39   A(7,8,11)             112.4886         calculate D2E/DX2 analytically  !
 ! A40   A(9,8,10)             108.3861         calculate D2E/DX2 analytically  !
 ! A41   A(9,8,11)             106.4476         calculate D2E/DX2 analytically  !
 ! A42   A(10,8,11)            110.8424         calculate D2E/DX2 analytically  !
 ! A43   A(8,9,24)             111.2646         calculate D2E/DX2 analytically  !
 ! A44   A(8,9,25)             111.0664         calculate D2E/DX2 analytically  !
 ! A45   A(8,9,26)             111.436          calculate D2E/DX2 analytically  !
 ! A46   A(24,9,25)            107.8479         calculate D2E/DX2 analytically  !
 ! A47   A(24,9,26)            107.3702         calculate D2E/DX2 analytically  !
 ! A48   A(25,9,26)            107.6704         calculate D2E/DX2 analytically  !
 ! A49   A(2,10,8)             113.3684         calculate D2E/DX2 analytically  !
 ! A50   A(2,10,27)            108.8013         calculate D2E/DX2 analytically  !
 ! A51   A(2,10,28)            109.7714         calculate D2E/DX2 analytically  !
 ! A52   A(8,10,27)            108.9027         calculate D2E/DX2 analytically  !
 ! A53   A(8,10,28)            109.6998         calculate D2E/DX2 analytically  !
 ! A54   A(27,10,28)           106.0264         calculate D2E/DX2 analytically  !
 ! A55   A(8,11,29)            113.2571         calculate D2E/DX2 analytically  !
 ! A56   A(8,11,30)            110.8004         calculate D2E/DX2 analytically  !
 ! A57   A(8,11,31)            111.1339         calculate D2E/DX2 analytically  !
 ! A58   A(29,11,30)           105.9855         calculate D2E/DX2 analytically  !
 ! A59   A(29,11,31)           108.0222         calculate D2E/DX2 analytically  !
 ! A60   A(30,11,31)           107.3344         calculate D2E/DX2 analytically  !
 ! A61   A(4,12,32)            111.0667         calculate D2E/DX2 analytically  !
 ! A62   A(4,12,33)            110.8724         calculate D2E/DX2 analytically  !
 ! A63   A(4,12,34)            113.4158         calculate D2E/DX2 analytically  !
 ! A64   A(32,12,33)           107.3672         calculate D2E/DX2 analytically  !
 ! A65   A(32,12,34)           107.9014         calculate D2E/DX2 analytically  !
 ! A66   A(33,12,34)           105.9008         calculate D2E/DX2 analytically  !
 ! D1    D(13,1,2,3)           -60.1427         calculate D2E/DX2 analytically  !
 ! D2    D(13,1,2,10)           61.8322         calculate D2E/DX2 analytically  !
 ! D3    D(13,1,2,15)         -179.5637         calculate D2E/DX2 analytically  !
 ! D4    D(14,1,2,3)            55.0925         calculate D2E/DX2 analytically  !
 ! D5    D(14,1,2,10)          177.0675         calculate D2E/DX2 analytically  !
 ! D6    D(14,1,2,15)          -64.3284         calculate D2E/DX2 analytically  !
 ! D7    D(1,2,3,4)            177.7864         calculate D2E/DX2 analytically  !
 ! D8    D(1,2,3,16)            56.0266         calculate D2E/DX2 analytically  !
 ! D9    D(1,2,3,17)           -59.3004         calculate D2E/DX2 analytically  !
 ! D10   D(10,2,3,4)            56.8342         calculate D2E/DX2 analytically  !
 ! D11   D(10,2,3,16)          -64.9256         calculate D2E/DX2 analytically  !
 ! D12   D(10,2,3,17)          179.7474         calculate D2E/DX2 analytically  !
 ! D13   D(15,2,3,4)           -64.789          calculate D2E/DX2 analytically  !
 ! D14   D(15,2,3,16)          173.4512         calculate D2E/DX2 analytically  !
 ! D15   D(15,2,3,17)           58.1242         calculate D2E/DX2 analytically  !
 ! D16   D(1,2,10,8)          -178.3938         calculate D2E/DX2 analytically  !
 ! D17   D(1,2,10,27)          -57.0678         calculate D2E/DX2 analytically  !
 ! D18   D(1,2,10,28)           58.5451         calculate D2E/DX2 analytically  !
 ! D19   D(3,2,10,8)           -56.9323         calculate D2E/DX2 analytically  !
 ! D20   D(3,2,10,27)           64.3937         calculate D2E/DX2 analytically  !
 ! D21   D(3,2,10,28)         -179.9934         calculate D2E/DX2 analytically  !
 ! D22   D(15,2,10,8)           64.8614         calculate D2E/DX2 analytically  !
 ! D23   D(15,2,10,27)        -173.8126         calculate D2E/DX2 analytically  !
 ! D24   D(15,2,10,28)         -58.1997         calculate D2E/DX2 analytically  !
 ! D25   D(2,3,4,5)           -171.5771         calculate D2E/DX2 analytically  !
 ! D26   D(2,3,4,7)            -49.8585         calculate D2E/DX2 analytically  !
 ! D27   D(2,3,4,12)            73.0229         calculate D2E/DX2 analytically  !
 ! D28   D(16,3,4,5)           -50.5484         calculate D2E/DX2 analytically  !
 ! D29   D(16,3,4,7)            71.1702         calculate D2E/DX2 analytically  !
 ! D30   D(16,3,4,12)         -165.9484         calculate D2E/DX2 analytically  !
 ! D31   D(17,3,4,5)            65.4012         calculate D2E/DX2 analytically  !
 ! D32   D(17,3,4,7)          -172.8802         calculate D2E/DX2 analytically  !
 ! D33   D(17,3,4,12)          -49.9988         calculate D2E/DX2 analytically  !
 ! D34   D(3,4,5,6)             58.7495         calculate D2E/DX2 analytically  !
 ! D35   D(3,4,5,18)          -178.5837         calculate D2E/DX2 analytically  !
 ! D36   D(3,4,5,19)           -61.9896         calculate D2E/DX2 analytically  !
 ! D37   D(7,4,5,6)            -63.0104         calculate D2E/DX2 analytically  !
 ! D38   D(7,4,5,18)            59.6563         calculate D2E/DX2 analytically  !
 ! D39   D(7,4,5,19)           176.2505         calculate D2E/DX2 analytically  !
 ! D40   D(12,4,5,6)           177.0921         calculate D2E/DX2 analytically  !
 ! D41   D(12,4,5,18)          -60.2411         calculate D2E/DX2 analytically  !
 ! D42   D(12,4,5,19)           56.353          calculate D2E/DX2 analytically  !
 ! D43   D(3,4,7,8)             45.2342         calculate D2E/DX2 analytically  !
 ! D44   D(3,4,7,22)           -74.7223         calculate D2E/DX2 analytically  !
 ! D45   D(3,4,7,23)           171.3693         calculate D2E/DX2 analytically  !
 ! D46   D(5,4,7,8)            166.7407         calculate D2E/DX2 analytically  !
 ! D47   D(5,4,7,22)            46.7841         calculate D2E/DX2 analytically  !
 ! D48   D(5,4,7,23)           -67.1242         calculate D2E/DX2 analytically  !
 ! D49   D(12,4,7,8)           -76.967          calculate D2E/DX2 analytically  !
 ! D50   D(12,4,7,22)          163.0764         calculate D2E/DX2 analytically  !
 ! D51   D(12,4,7,23)           49.168          calculate D2E/DX2 analytically  !
 ! D52   D(3,4,12,32)         -173.4121         calculate D2E/DX2 analytically  !
 ! D53   D(3,4,12,33)           67.2986         calculate D2E/DX2 analytically  !
 ! D54   D(3,4,12,34)          -51.6917         calculate D2E/DX2 analytically  !
 ! D55   D(5,4,12,32)           68.3004         calculate D2E/DX2 analytically  !
 ! D56   D(5,4,12,33)          -50.9889         calculate D2E/DX2 analytically  !
 ! D57   D(5,4,12,34)         -169.9792         calculate D2E/DX2 analytically  !
 ! D58   D(7,4,12,32)          -51.0108         calculate D2E/DX2 analytically  !
 ! D59   D(7,4,12,33)         -170.3001         calculate D2E/DX2 analytically  !
 ! D60   D(7,4,12,34)           70.7096         calculate D2E/DX2 analytically  !
 ! D61   D(4,5,6,20)            68.846          calculate D2E/DX2 analytically  !
 ! D62   D(4,5,6,21)          -175.8085         calculate D2E/DX2 analytically  !
 ! D63   D(18,5,6,20)          -54.5091         calculate D2E/DX2 analytically  !
 ! D64   D(18,5,6,21)           60.8364         calculate D2E/DX2 analytically  !
 ! D65   D(19,5,6,20)         -169.3399         calculate D2E/DX2 analytically  !
 ! D66   D(19,5,6,21)          -53.9944         calculate D2E/DX2 analytically  !
 ! D67   D(4,7,8,9)           -163.817          calculate D2E/DX2 analytically  !
 ! D68   D(4,7,8,10)           -45.4393         calculate D2E/DX2 analytically  !
 ! D69   D(4,7,8,11)            79.0294         calculate D2E/DX2 analytically  !
 ! D70   D(22,7,8,9)           -43.0382         calculate D2E/DX2 analytically  !
 ! D71   D(22,7,8,10)           75.3394         calculate D2E/DX2 analytically  !
 ! D72   D(22,7,8,11)         -160.1919         calculate D2E/DX2 analytically  !
 ! D73   D(23,7,8,9)            70.1164         calculate D2E/DX2 analytically  !
 ! D74   D(23,7,8,10)         -171.506          calculate D2E/DX2 analytically  !
 ! D75   D(23,7,8,11)          -47.0373         calculate D2E/DX2 analytically  !
 ! D76   D(7,8,9,24)           179.2261         calculate D2E/DX2 analytically  !
 ! D77   D(7,8,9,25)           -60.6186         calculate D2E/DX2 analytically  !
 ! D78   D(7,8,9,26)            59.4271         calculate D2E/DX2 analytically  !
 ! D79   D(10,8,9,24)           59.5013         calculate D2E/DX2 analytically  !
 ! D80   D(10,8,9,25)          179.6567         calculate D2E/DX2 analytically  !
 ! D81   D(10,8,9,26)          -60.2977         calculate D2E/DX2 analytically  !
 ! D82   D(11,8,9,24)          -59.7775         calculate D2E/DX2 analytically  !
 ! D83   D(11,8,9,25)           60.3778         calculate D2E/DX2 analytically  !
 ! D84   D(11,8,9,26)         -179.5766         calculate D2E/DX2 analytically  !
 ! D85   D(7,8,10,2)            50.1627         calculate D2E/DX2 analytically  !
 ! D86   D(7,8,10,27)          -71.1064         calculate D2E/DX2 analytically  !
 ! D87   D(7,8,10,28)          173.2632         calculate D2E/DX2 analytically  !
 ! D88   D(9,8,10,2)           168.2831         calculate D2E/DX2 analytically  !
 ! D89   D(9,8,10,27)           47.014          calculate D2E/DX2 analytically  !
 ! D90   D(9,8,10,28)          -68.6164         calculate D2E/DX2 analytically  !
 ! D91   D(11,8,10,2)          -75.2422         calculate D2E/DX2 analytically  !
 ! D92   D(11,8,10,27)         163.4887         calculate D2E/DX2 analytically  !
 ! D93   D(11,8,10,28)          47.8583         calculate D2E/DX2 analytically  !
 ! D94   D(7,8,11,29)          -73.3957         calculate D2E/DX2 analytically  !
 ! D95   D(7,8,11,30)          167.6631         calculate D2E/DX2 analytically  !
 ! D96   D(7,8,11,31)           48.4182         calculate D2E/DX2 analytically  !
 ! D97   D(9,8,11,29)          168.5518         calculate D2E/DX2 analytically  !
 ! D98   D(9,8,11,30)           49.6106         calculate D2E/DX2 analytically  !
 ! D99   D(9,8,11,31)          -69.6343         calculate D2E/DX2 analytically  !
 ! D100  D(10,8,11,29)          50.8871         calculate D2E/DX2 analytically  !
 ! D101  D(10,8,11,30)         -68.0541         calculate D2E/DX2 analytically  !
 ! D102  D(10,8,11,31)         172.701          calculate D2E/DX2 analytically  !
 --------------------------------------------------------------------------------
 Trust Radius=3.00D-01 FncErr=1.00D-07 GrdErr=1.00D-06 EigMax=2.50D+02 EigMin=1.00D-04
 Number of steps in this run=    204 maximum allowed number of steps=    204.
 GradGradGradGradGradGradGradGradGradGradGradGradGradGradGradGradGradGrad

                          Input orientation:                          
 ---------------------------------------------------------------------
 Center     Atomic      Atomic             Coordinates (Angstroms)
 Number     Number       Type             X           Y           Z
 ---------------------------------------------------------------------
      1          7           0        0.487050    3.194167    0.261433
      2          6           0        0.444623    1.743046    0.469864
      3          6           0       -0.983027    1.222305    0.257707
      4          6           0       -1.106550   -0.314368    0.405854
      5          6           0       -2.534813   -0.777929   -0.033472
      6          7           0       -2.903665   -0.444820   -1.407351
      7          6           0       -0.022169   -1.028009   -0.451017
      8          6           0        1.427072   -0.474442   -0.385641
      9          6           0        2.212104   -1.048680   -1.589268
     10          6           0        1.423328    1.066073   -0.496697
     11          6           0        2.175250   -0.930634    0.880519
     12          6           0       -0.990001   -0.711908    1.895368
     13          1           0        0.191843    3.408940   -0.691239
     14          1           0       -0.198059    3.642853    0.868751
     15          1           0        0.759916    1.562626    1.501664
     16          1           0       -1.312379    1.522062   -0.746313
     17          1           0       -1.666689    1.715754    0.961780
     18          1           0       -2.627512   -1.863356    0.096493
     19          1           0       -3.282073   -0.316910    0.624296
     20          1           0       -2.345754   -0.992555   -2.060384
     21          1           0       -3.870332   -0.725709   -1.571037
     22          1           0       -0.328463   -0.961822   -1.502582
     23          1           0       -0.019007   -2.101924   -0.220001
     24          1           0        3.244085   -0.679682   -1.603312
     25          1           0        2.247301   -2.143427   -1.550526
     26          1           0        1.749907   -0.764182   -2.541424
     27          1           0        1.157522    1.348432   -1.525771
     28          1           0        2.438112    1.451920   -0.328831
     29          1           0        1.835493   -0.427881    1.785729
     30          1           0        3.247293   -0.713811    0.798836
     31          1           0        2.071330   -2.010580    1.033233
     32          1           0       -0.958066   -1.801102    2.011005
     33          1           0       -1.852901   -0.347281    2.465809
     34          1           0       -0.110770   -0.297171    2.386527
 ---------------------------------------------------------------------
                    Distance matrix (angstroms):
                    1          2          3          4          5
     1  N    0.000000
     2  C    1.466627   0.000000
     3  C    2.459548   1.534394   0.000000
     4  C    3.856194   2.577438   1.548732   0.000000
     5  C    4.999617   3.935187   2.548286   1.564554   0.000000
     6  N    5.246333   4.418339   3.039831   2.556237   1.461012
     7  C    4.312036   2.957138   2.547441   1.555441   2.559349
     8  C    3.842009   2.571837   3.016857   2.659197   3.989067
     9  C    4.939904   3.893295   4.333308   3.941217   5.002702
    10  C    2.445436   1.533100   2.526673   3.020016   4.391104
    11  C    4.499696   3.211273   3.872694   3.372729   4.800353
    12  C    4.484289   3.180724   2.534396   1.546051   2.472089
    13  H    1.020224   2.046280   2.657478   4.092977   5.039562
    14  H    1.019574   2.044852   2.616983   4.086469   5.081116
    15  H    2.067499   1.093880   2.168202   2.864892   4.323203
    16  H    2.655076   2.148249   1.098355   2.177689   2.700453
    17  H    2.704585   2.168032   1.098455   2.178120   2.821811
    18  H    5.941905   4.752215   3.500232   2.192805   1.097103
    19  H    5.163876   4.260930   2.790910   2.186463   1.097084
    20  H    5.562756   4.655306   3.483702   2.842164   2.046994
    21  H    6.140859   5.373905   3.933903   3.422833   2.037263
    22  H    4.587924   3.435770   2.880535   2.160264   2.657081
    23  H    5.341951   3.933784   3.494001   2.183987   2.849042
    24  H    5.107369   4.243189   4.994940   4.806062   5.989133
    25  H    5.905216   4.736697   5.003287   4.291992   5.199486
    26  H    5.011919   4.130111   4.387505   4.128938   4.964760
    27  H    2.655252   2.155575   2.789024   3.409120   4.514610
    28  H    2.681506   2.167180   3.478641   4.027924   5.457971
    29  H    4.154637   2.894641   3.605832   3.251548   4.746747
    30  H    4.814564   3.741567   4.683693   4.389754   5.842055
    31  H    5.494998   4.129560   4.514652   3.656455   4.886087
    32  H    5.486535   4.111403   3.495092   2.192928   2.777211
    33  H    4.782938   3.692137   2.845346   2.191241   2.626188
    34  H    4.130721   2.853865   2.757084   2.216967   3.458830
                    6          7          8          9         10
     6  N    0.000000
     7  C    3.091553   0.000000
     8  C    4.449724   1.552742   0.000000
     9  C    5.154496   2.507592   1.547496   0.000000
    10  C    4.672788   2.544941   1.544517   2.507600   0.000000
    11  C    5.591577   2.571210   1.539820   2.472882   2.539478
    12  C    3.826408   2.557762   3.331912   4.744427   3.835016
    13  H    4.994642   4.448598   4.086544   4.975770   2.653946
    14  H    5.404629   4.856921   4.600725   5.819040   3.336636
    15  H    5.090583   3.337067   2.855988   4.299027   2.163361
    16  H    2.614916   2.873100   3.408915   4.443115   2.784659
    17  H    3.436709   3.496953   4.022916   5.403237   3.478138
    18  H    2.085677   2.790230   4.312909   5.189159   5.034156
    19  H    2.070542   3.505558   4.818800   5.968361   5.030910
    20  H    1.018691   2.826724   4.160219   4.582485   4.570453
    21  H    1.019871   4.019227   5.434223   6.091032   5.691003
    22  H    2.628312   1.097263   2.137054   2.543529   2.862330
    23  H    3.532286   1.098486   2.183409   2.821714   3.491861
    24  H    6.155354   3.481024   2.196903   1.096057   2.754526
    25  H    5.425699   2.757457   2.194366   1.095998   3.477122
    26  H    4.800400   2.753118   2.198993   1.095977   2.763584
    27  H    4.441060   2.862558   2.166892   2.619603   1.099714
    28  H    5.770217   3.495420   2.176305   2.809410   1.098565
    29  H    5.714514   2.968855   2.209938   3.452222   2.758849
    30  H    6.540176   3.514290   2.184832   2.624270   2.858888
    31  H    5.758353   2.747941   2.188148   2.796887   3.496624
    32  H    4.160530   2.745019   3.632192   4.855727   4.492248
    33  H    4.014347   3.510391   4.348006   5.784451   4.637637
    34  H    4.713340   2.931490   3.175107   4.665561   3.539050
                   11         12         13         14         15
    11  C    0.000000
    12  C    3.331152   0.000000
    13  H    5.023568   5.006863   0.000000
    14  H    5.152623   4.543683   1.624902   0.000000
    15  H    2.933486   2.896674   2.922397   2.376055   0.000000
    16  H    4.563535   3.474626   2.413716   2.889272   3.057687
    17  H    4.665883   2.687571   3.008901   2.424714   2.490649
    18  H    4.954916   2.691325   6.030455   6.067698   5.018618
    19  H    5.497697   2.650517   5.261243   5.025000   4.543138
    20  H    5.393721   4.191039   5.261855   5.888925   5.372367
    21  H    6.526957   4.506934   5.862647   6.206648   6.009756
    22  H    3.456693   3.470757   4.475774   5.181048   4.072211
    23  H    2.719895   2.711044   5.534993   5.849778   4.123079
    24  H    2.715660   5.492658   5.183135   6.053409   4.565076
    25  H    2.717727   4.939996   5.982647   6.731547   5.026232
    26  H    3.452292   5.214878   4.823453   5.903035   4.768719
    27  H    3.467008   4.534429   2.423773   3.582695   3.060937
    28  H    2.684808   4.623979   3.001165   3.630949   2.485822
    29  H    1.089771   2.841850   4.853674   4.641881   2.280280
    30  H    1.096796   4.376877   5.343517   5.554805   3.444297
    31  H    1.095629   3.435342   5.989780   6.094135   3.834976
    32  H    3.442874   1.095781   5.980715   5.614179   3.811241
    33  H    4.368002   1.096791   5.315743   4.605460   3.377000
    34  H    2.809844   1.089170   4.826953   4.223157   2.236051
                   16         17         18         19         20
    16  H    0.000000
    17  H    1.755173   0.000000
    18  H    3.728398   3.805513   0.000000
    19  H    3.023256   2.618222   1.760261   0.000000
    20  H    3.019594   4.114553   2.343032   2.922447   0.000000
    21  H    3.503679   4.151138   2.370547   2.309254   1.623270
    22  H    2.776636   3.877285   2.942011   3.696394   2.093215
    23  H    3.883695   4.322745   2.638444   3.814015   3.167248
    24  H    5.132591   6.036018   6.226241   6.905402   5.617215
    25  H    5.172416   6.043532   5.153146   6.216107   4.762417
    26  H    4.222195   5.485950   5.227675   5.961766   4.130132
    27  H    2.595788   3.781402   5.222433   5.206357   4.247231
    28  H    3.774307   4.310995   6.068979   6.062815   5.644388
    29  H    4.485823   4.188000   4.983225   5.248878   5.709140
    30  H    5.308222   5.484210   6.027278   6.543746   6.287688
    31  H    5.205365   5.278585   4.793566   5.629802   5.487939
    32  H    4.332638   3.737820   2.540922   3.086550   4.376715
    33  H    3.755573   2.559862   2.917561   2.331228   4.598446
    34  H    3.816825   2.915931   3.745822   3.628086   5.025310
                   21         22         23         24         25
    21  H    0.000000
    22  H    3.550389   0.000000
    23  H    4.307199   1.743734   0.000000
    24  H    7.114639   3.585087   3.818912   0.000000
    25  H    6.279791   2.834264   2.628340   1.771698   0.000000
    26  H    5.703527   2.331926   3.210547   1.766285   1.769632
    27  H    5.439064   2.746991   3.872236   2.910842   3.658047
    28  H    6.788344   3.854579   4.321931   2.611057   3.802035
    29  H    6.626690   3.972504   3.203833   3.678741   3.774028
    30  H    7.501801   4.259585   3.692371   2.402393   2.926310
    31  H    6.613354   3.645444   2.438944   3.177737   2.593149
    32  H    4.740125   3.666890   2.439204   5.654993   4.803756
    33  H    4.528725   4.295311   3.695337   6.530505   6.014045
    34  H    5.475423   3.951496   3.171679   5.226872   4.946671
                   26         27         28         29         30
    26  H    0.000000
    27  H    2.417769   0.000000
    28  H    3.206291   1.755929   0.000000
    29  H    4.341046   3.818503   2.892779   0.000000
    30  H    3.660879   3.744834   2.572314   1.746108   0.000000
    31  H    3.799341   4.320475   3.738804   1.768278   1.766194
    32  H    5.397493   5.186912   5.252715   3.120971   4.509612
    33  H    6.182751   5.279280   5.427700   3.751434   5.378208
    34  H    5.288187   4.429746   4.114522   2.041075   3.737773
                   31         32         33         34
    31  H    0.000000
    32  H    3.190166   0.000000
    33  H    4.496491   1.766684   0.000000
    34  H    3.086866   1.766561   1.744653   0.000000
 Stoichiometry    C10H22N2
 Framework group  C1[X(C10H22N2)]
 Deg. of freedom    96
 Full point group                 C1      NOp   1
 Largest Abelian subgroup         C1      NOp   1
 Largest concise Abelian subgroup C1      NOp   1
                         Standard orientation:                         
 ---------------------------------------------------------------------
 Center     Atomic      Atomic             Coordinates (Angstroms)
 Number     Number       Type             X           Y           Z
 ---------------------------------------------------------------------
      1          7           0        0.946846    2.979770   -0.347888
      2          6           0        0.699834    1.626098    0.159606
      3          6           0       -0.781168    1.262456   -0.009991
      4          6           0       -1.119002   -0.176451    0.452595
      5          6           0       -2.587814   -0.533734    0.049146
      6          7           0       -2.877403   -0.459976   -1.380978
      7          6           0       -0.125417   -1.193376   -0.178315
      8          6           0        1.384663   -0.832477   -0.157833
      9          6           0        2.108576   -1.750363   -1.171823
     10          6           0        1.596211    0.634744   -0.591474
     11          6           0        2.035165   -1.098038    1.212338
     12          6           0       -1.090631   -0.254704    1.996404
     13          1           0        0.704749    3.020370   -1.338140
     14          1           0        0.317378    3.634382    0.115559
     15          1           0        0.964861    1.633210    1.220871
     16          1           0       -1.044225    1.378654   -1.070029
     17          1           0       -1.405103    1.981086    0.538533
     18          1           0       -2.832383   -1.543926    0.400335
     19          1           0       -3.278205    0.151806    0.556088
     20          1           0       -2.386584   -1.203726   -1.874600
     21          1           0       -3.869855   -0.641137   -1.530498
     22          1           0       -0.396892   -1.316468   -1.234314
     23          1           0       -0.275654   -2.183103    0.273948
     24          1           0        3.181705   -1.530831   -1.211077
     25          1           0        1.991325   -2.805941   -0.901233
     26          1           0        1.710753   -1.620417   -2.184748
     27          1           0        1.394212    0.720414   -1.669077
     28          1           0        2.650721    0.912101   -0.457579
     29          1           0        1.748707   -0.371797    1.972677
     30          1           0        3.128395   -1.045588    1.141195
     31          1           0        1.779754   -2.096551    1.584008
     32          1           0       -1.212002   -1.287880    2.340719
     33          1           0       -1.906962    0.333775    2.432576
     34          1           0       -0.173319    0.138084    2.432921
 ---------------------------------------------------------------------
 Rotational constants (GHZ):           1.0236405           0.7581901           0.6102693
 Standard basis: 6-31G(d,p) (6D, 7F)
 There are   290 symmetry adapted cartesian basis functions of A   symmetry.
 There are   290 symmetry adapted basis functions of A   symmetry.
   290 basis functions,   490 primitive gaussians,   290 cartesian basis functions
    48 alpha electrons       48 beta electrons
       nuclear repulsion energy       812.3417918173 Hartrees.
 NAtoms=   34 NActive=   34 NUniq=   34 SFac= 1.00D+00 NAtFMM=   60 NAOKFM=F Big=F
 Integral buffers will be    131072 words long.
 Raffenetti 2 integral format.
 Two-electron integral symmetry is turned on.
 Force inversion solution in PCM.
 ------------------------------------------------------------------------------
 Polarizable Continuum Model (PCM)
 =================================
 Model                : PCM.
 Atomic radii         : UFF (Universal Force Field).
 Polarization charges : Total charges.
 Charge compensation  : None.
 Solution method      : Matrix inversion.
 Cavity type          : Scaled VdW (van der Waals Surface) (Alpha=1.100).
 Cavity algorithm     : GePol (No added spheres)
                        Default sphere list used, NSphG=   34.
                        Lebedev-Laikov grids with approx.  5.0 points / Ang**2.
                        Smoothing algorithm: York/Karplus (Gamma=1.0000).
                        Polarization charges: spherical gaussians, with
                                              point-specific exponents (IZeta= 3).
                        Self-potential: point-specific (ISelfS= 7).
                        Self-field    : sphere-specific E.n sum rule (ISelfD= 2).
 1st derivatives      : Analytical E(r).r(x)/FMM algorithm (CHGder, D1EAlg=3).
                        Cavity 1st derivative terms included.
 2nd derivatives      : Analytical E(r).r(xy)/FMM algorithm (CHGder, D2EAlg=3).
                        Cavity 2nd derivative terms included.
 Solvent              : Water, Eps=  78.355300 Eps(inf)=   1.777849
 ------------------------------------------------------------------------------
 One-electron integrals computed using PRISM.
 NBasis=   290 RedAO= T EigKep=  2.22D-03  NBF=   290
 NBsUse=   290 1.00D-06 EigRej= -1.00D+00 NBFU=   290
 ExpMin= 1.61D-01 ExpMax= 4.17D+03 ExpMxC= 6.27D+02 IAcc=3 IRadAn=         5 AccDes= 0.00D+00
 Harris functional with IExCor=  402 and IRadAn=       5 diagonalized for initial guess.
 HarFok:  IExCor=  402 AccDes= 0.00D+00 IRadAn=         5 IDoV= 1 UseB2=F ITyADJ=14
 ICtDFT=  3500011 ScaDFX=  1.000000  1.000000  1.000000  1.000000
 FoFCou: FMM=F IPFlag=           0 FMFlag=      100000 FMFlg1=           0
         NFxFlg=           0 DoJE=T BraDBF=F KetDBF=T FulRan=T
         wScrn=  0.000000 ICntrl=       500 IOpCl=  0 I1Cent=   200000004 NGrid=           0
         NMat0=    1 NMatS0=      1 NMatT0=    0 NMatD0=    1 NMtDS0=    0 NMtDT0=    0
 Petite list used in FoFCou.
 Requested convergence on RMS density matrix=1.00D-08 within  32 cycles.
 Requested convergence on MAX density matrix=1.00D-06.
 Requested convergence on             energy=1.00D-06.
 No special actions if energy rises.
 Inv3:  Mode=1 IEnd=    11904192.
 Iteration    1 A*A^-1 deviation from unit magnitude is 3.77D-15 for    616.
 Iteration    1 A*A^-1 deviation from orthogonality  is 2.75D-15 for    616    558.
 Iteration    1 A^-1*A deviation from unit magnitude is 3.11D-15 for    952.
 Iteration    1 A^-1*A deviation from orthogonality  is 1.74D-15 for   1112    973.
 Error on total polarization charges =  0.01031
 SCF Done:  E(RB3LYP) =  -503.853074784     A.U. after   11 cycles
            NFock= 11  Conv=0.57D-08     -V/T= 2.0098
 QCSCF skips out because SCF is already converged.
 DoSCS=F DFT=T ScalE2(SS,OS)=  1.000000  1.000000
 Range of M.O.s used for correlation:     1   290
 NBasis=   290 NAE=    48 NBE=    48 NFC=     0 NFV=     0
 NROrb=    290 NOA=    48 NOB=    48 NVA=   242 NVB=   242
 Symmetrizing basis deriv contribution to polar:
 IMax=3 JMax=2 DiffMx= 0.00D+00
 G2DrvN: will do    35 centers at a time, making    1 passes.
 Calling FoFCou, ICntrl=  3107 FMM=F I1Cent=   0 AccDes= 0.00D+00.
 NEqPCM:  Using equilibrium solvation (IEInf=0, Eps=  78.3553, EpsInf=   1.7778)
 G2PCM: DoFxE=T DoFxN=T DoGrad=T DoDP/DQ/DG/TGxP=FFFF NFrqRd=   0 IEInf=0 SqF1=F DoCFld=F IF1Alg=4.
 End of G2Drv F.D. properties file   721 does not exist.
 End of G2Drv F.D. properties file   722 does not exist.
 End of G2Drv F.D. properties file   788 does not exist.
          IDoAtm=1111111111111111111111111111111111
 NEqPCM:  Using equilibrium solvation (IEInf=0, Eps=  78.3553, EpsInf=   1.7778)
          Differentiating once with respect to nuclear coordinates.
 Keep R1 ints in memory in canonical form, NReq=902566861.
          There are   105 degrees of freedom in the 1st order CPHF.  IDoFFX=6 NUNeed=     0.
     99 vectors produced by pass  0 Test12= 1.16D-14 1.00D-09 XBig12= 7.77D-02 6.87D-02.
 AX will form    99 AO Fock derivatives at one time.
     99 vectors produced by pass  1 Test12= 1.16D-14 1.00D-09 XBig12= 1.01D-02 1.54D-02.
     99 vectors produced by pass  2 Test12= 1.16D-14 1.00D-09 XBig12= 2.04D-04 1.46D-03.
     99 vectors produced by pass  3 Test12= 1.16D-14 1.00D-09 XBig12= 9.24D-07 7.86D-05.
     99 vectors produced by pass  4 Test12= 1.16D-14 1.00D-09 XBig12= 8.58D-10 2.40D-06.
     40 vectors produced by pass  5 Test12= 1.16D-14 1.00D-09 XBig12= 4.84D-13 5.89D-08.
      1 vectors produced by pass  6 Test12= 1.16D-14 1.00D-09 XBig12= 3.19D-16 2.16D-09.
 InvSVY:  IOpt=1 It=  1 EMax= 2.78D-16
 Solved reduced A of dimension   536 with   105 vectors.
 End of Minotr F.D. properties file   721 does not exist.
 End of Minotr F.D. properties file   722 does not exist.
 End of Minotr F.D. properties file   788 does not exist.

 **********************************************************************

            Population analysis using the SCF density.

 **********************************************************************

 Orbital symmetries:
       Occupied  (A) (A) (A) (A) (A) (A) (A) (A) (A) (A) (A) (A)
                 (A) (A) (A) (A) (A) (A) (A) (A) (A) (A) (A) (A)
                 (A) (A) (A) (A) (A) (A) (A) (A) (A) (A) (A) (A)
                 (A) (A) (A) (A) (A) (A) (A) (A) (A) (A) (A) (A)
       Virtual   (A) (A) (A) (A) (A) (A) (A) (A) (A) (A) (A) (A)
                 (A) (A) (A) (A) (A) (A) (A) (A) (A) (A) (A) (A)
                 (A) (A) (A) (A) (A) (A) (A) (A) (A) (A) (A) (A)
                 (A) (A) (A) (A) (A) (A) (A) (A) (A) (A) (A) (A)
                 (A) (A) (A) (A) (A) (A) (A) (A) (A) (A) (A) (A)
                 (A) (A) (A) (A) (A) (A) (A) (A) (A) (A) (A) (A)
                 (A) (A) (A) (A) (A) (A) (A) (A) (A) (A) (A) (A)
                 (A) (A) (A) (A) (A) (A) (A) (A) (A) (A) (A) (A)
                 (A) (A) (A) (A) (A) (A) (A) (A) (A) (A) (A) (A)
                 (A) (A) (A) (A) (A) (A) (A) (A) (A) (A) (A) (A)
                 (A) (A) (A) (A) (A) (A) (A) (A) (A) (A) (A) (A)
                 (A) (A) (A) (A) (A) (A) (A) (A) (A) (A) (A) (A)
                 (A) (A) (A) (A) (A) (A) (A) (A) (A) (A) (A) (A)
                 (A) (A) (A) (A) (A) (A) (A) (A) (A) (A) (A) (A)
                 (A) (A) (A) (A) (A) (A) (A) (A) (A) (A) (A) (A)
                 (A) (A) (A) (A) (A) (A) (A) (A) (A) (A) (A) (A)
                 (A) (A) (A) (A) (A) (A) (A) (A) (A) (A) (A) (A)
                 (A) (A) (A) (A) (A) (A) (A) (A) (A) (A) (A) (A)
                 (A) (A) (A) (A) (A) (A) (A) (A) (A) (A) (A) (A)
                 (A) (A) (A) (A) (A) (A) (A) (A) (A) (A) (A) (A)
                 (A) (A)
 The electronic state is 1-A.
 Alpha  occ. eigenvalues --  -14.30570 -14.30354 -10.20110 -10.19740 -10.19174
 Alpha  occ. eigenvalues --  -10.18987 -10.17212 -10.17095 -10.16697 -10.16600
 Alpha  occ. eigenvalues --  -10.16581 -10.16460  -0.88341  -0.87361  -0.82273
 Alpha  occ. eigenvalues --   -0.77923  -0.72064  -0.68238  -0.67119  -0.66768
 Alpha  occ. eigenvalues --   -0.64534  -0.58293  -0.54948  -0.51660  -0.48130
 Alpha  occ. eigenvalues --   -0.47148  -0.46356  -0.45143  -0.43870  -0.42860
 Alpha  occ. eigenvalues --   -0.42501  -0.40990  -0.40872  -0.38936  -0.38191
 Alpha  occ. eigenvalues --   -0.37186  -0.36605  -0.35535  -0.35435  -0.34132
 Alpha  occ. eigenvalues --   -0.33074  -0.32422  -0.31880  -0.30476  -0.29595
 Alpha  occ. eigenvalues --   -0.28568  -0.23294  -0.22251
 Alpha virt. eigenvalues --    0.07359   0.08678   0.09529   0.10419   0.12298
 Alpha virt. eigenvalues --    0.12899   0.13199   0.14423   0.14820   0.16096
 Alpha virt. eigenvalues --    0.16265   0.17680   0.17817   0.18401   0.19014
 Alpha virt. eigenvalues --    0.19432   0.19750   0.20009   0.21642   0.21975
 Alpha virt. eigenvalues --    0.22484   0.23078   0.24062   0.24753   0.25073
 Alpha virt. eigenvalues --    0.25674   0.26202   0.27784   0.28590   0.28992
 Alpha virt. eigenvalues --    0.30702   0.31304   0.32302   0.33335   0.48718
 Alpha virt. eigenvalues --    0.50389   0.51344   0.52765   0.53172   0.54620
 Alpha virt. eigenvalues --    0.55406   0.57345   0.59941   0.62021   0.62527
 Alpha virt. eigenvalues --    0.63697   0.64872   0.66233   0.67886   0.68897
 Alpha virt. eigenvalues --    0.69395   0.70170   0.72351   0.73140   0.73771
 Alpha virt. eigenvalues --    0.74729   0.76030   0.77017   0.78534   0.79195
 Alpha virt. eigenvalues --    0.81508   0.82959   0.83532   0.84388   0.85088
 Alpha virt. eigenvalues --    0.86449   0.87375   0.88307   0.88398   0.88734
 Alpha virt. eigenvalues --    0.89663   0.90582   0.90975   0.91702   0.92009
 Alpha virt. eigenvalues --    0.92714   0.93669   0.93745   0.94302   0.95500
 Alpha virt. eigenvalues --    0.96180   0.97351   0.98141   0.98991   1.00857
 Alpha virt. eigenvalues --    1.02518   1.03585   1.05703   1.06230   1.07379
 Alpha virt. eigenvalues --    1.12326   1.15275   1.17223   1.21979   1.28216
 Alpha virt. eigenvalues --    1.28469   1.31658   1.34552   1.35544   1.41099
 Alpha virt. eigenvalues --    1.43709   1.46224   1.47641   1.49677   1.50716
 Alpha virt. eigenvalues --    1.53283   1.55117   1.57753   1.60905   1.66160
 Alpha virt. eigenvalues --    1.68115   1.69809   1.72868   1.75384   1.76086
 Alpha virt. eigenvalues --    1.78643   1.80604   1.83137   1.83478   1.84819
 Alpha virt. eigenvalues --    1.85175   1.86338   1.87081   1.87684   1.88984
 Alpha virt. eigenvalues --    1.90132   1.91093   1.91657   1.94204   1.94848
 Alpha virt. eigenvalues --    2.00090   2.00584   2.02387   2.04090   2.04497
 Alpha virt. eigenvalues --    2.05542   2.06339   2.07911   2.08927   2.09322
 Alpha virt. eigenvalues --    2.10540   2.10801   2.11381   2.13237   2.14372
 Alpha virt. eigenvalues --    2.14684   2.15355   2.17334   2.17746   2.19283
 Alpha virt. eigenvalues --    2.20110   2.20613   2.21743   2.23348   2.24655
 Alpha virt. eigenvalues --    2.26623   2.27492   2.28329   2.30858   2.32277
 Alpha virt. eigenvalues --    2.33538   2.34896   2.36796   2.37816   2.39363
 Alpha virt. eigenvalues --    2.40790   2.41403   2.42771   2.45528   2.49258
 Alpha virt. eigenvalues --    2.49484   2.52593   2.55549   2.58400   2.61241
 Alpha virt. eigenvalues --    2.62267   2.63942   2.64935   2.65624   2.67088
 Alpha virt. eigenvalues --    2.68795   2.70618   2.72760   2.73836   2.74515
 Alpha virt. eigenvalues --    2.75236   2.77374   2.79057   2.80939   2.81418
 Alpha virt. eigenvalues --    2.82114   2.83608   2.87027   2.87890   2.89324
 Alpha virt. eigenvalues --    2.89361   2.91201   2.91732   2.92281   2.93847
 Alpha virt. eigenvalues --    2.95874   2.96405   2.97263   2.98183   2.99603
 Alpha virt. eigenvalues --    2.99740   3.02260   3.04916   3.19937   3.22812
 Alpha virt. eigenvalues --    3.24601   3.27617   3.30493   3.31252   3.32724
 Alpha virt. eigenvalues --    3.34368   3.35893   3.38797   3.44071   3.44444
 Alpha virt. eigenvalues --    3.44632   3.46682   3.47315   3.48867   3.51580
 Alpha virt. eigenvalues --    3.52804   3.53670   3.55575   3.57489   3.58776
 Alpha virt. eigenvalues --    4.01796   4.06690   4.31478   4.41596   4.47305
 Alpha virt. eigenvalues --    4.55914   4.58032   4.61268   4.70691   4.79402
 Alpha virt. eigenvalues --    4.82024   4.84192
          Condensed to atoms (all electrons):
               1          2          3          4          5          6
     1  N    6.818899   0.303917  -0.071536   0.005690  -0.000122   0.000003
     2  C    0.303917   4.819604   0.378260  -0.029652   0.003648   0.000170
     3  C   -0.071536   0.378260   5.080196   0.330605  -0.037771  -0.007766
     4  C    0.005690  -0.029652   0.330605   4.935866   0.355045  -0.048299
     5  C   -0.000122   0.003648  -0.037771   0.355045   4.871811   0.290546
     6  N    0.000003   0.000170  -0.007766  -0.048299   0.290546   6.816156
     7  C    0.000325  -0.014589  -0.056068   0.381888  -0.042425  -0.005585
     8  C    0.002816  -0.031317  -0.008147  -0.029446   0.003609   0.000036
     9  C   -0.000081   0.004303   0.000353   0.003866  -0.000114   0.000001
    10  C   -0.048815   0.370880  -0.052199  -0.011193   0.000248   0.000001
    11  C    0.000030  -0.004257  -0.000890  -0.002676  -0.000070  -0.000002
    12  C    0.000025  -0.004459  -0.053112   0.364984  -0.051668   0.003383
    13  H    0.338106  -0.041251  -0.003957   0.000109  -0.000006  -0.000013
    14  H    0.338395  -0.040343  -0.001671   0.000091  -0.000004   0.000000
    15  H   -0.042576   0.386723  -0.053671  -0.002012  -0.000145  -0.000007
    16  H   -0.001621  -0.037976   0.359368  -0.031519  -0.010950   0.017777
    17  H   -0.001704  -0.033870   0.362797  -0.030490  -0.003880   0.000066
    18  H    0.000001  -0.000106   0.005776  -0.045489   0.379229  -0.055594
    19  H   -0.000002  -0.000029  -0.007522  -0.024371   0.375224  -0.041460
    20  H    0.000000  -0.000020  -0.000005  -0.005474  -0.039075   0.337363
    21  H   -0.000000   0.000001   0.000201   0.005245  -0.031358   0.337987
    22  H   -0.000010   0.000024  -0.004461  -0.037863  -0.009878   0.001618
    23  H    0.000004   0.000190   0.005474  -0.031716  -0.002550  -0.000183
    24  H   -0.000001   0.000042  -0.000004  -0.000149   0.000002  -0.000000
    25  H    0.000001  -0.000175   0.000004   0.000033  -0.000000   0.000000
    26  H   -0.000001   0.000039  -0.000017   0.000054  -0.000003  -0.000007
    27  H   -0.004933  -0.037816  -0.008661   0.000081  -0.000092  -0.000005
    28  H    0.003152  -0.031777   0.005976   0.000192   0.000009   0.000000
    29  H   -0.000084   0.001081   0.000068   0.000975  -0.000022   0.000000
    30  H   -0.000006  -0.000245   0.000004  -0.000008   0.000002   0.000000
    31  H    0.000001   0.000103   0.000010  -0.000382  -0.000013  -0.000000
    32  H    0.000001   0.000147   0.005150  -0.028434  -0.004430  -0.000033
    33  H   -0.000008  -0.000273  -0.004273  -0.029179  -0.008837   0.000107
    34  H   -0.000083   0.000945  -0.005203  -0.028145   0.004877  -0.000102
               7          8          9         10         11         12
     1  N    0.000325   0.002816  -0.000081  -0.048815   0.000030   0.000025
     2  C   -0.014589  -0.031317   0.004303   0.370880  -0.004257  -0.004459
     3  C   -0.056068  -0.008147   0.000353  -0.052199  -0.000890  -0.053112
     4  C    0.381888  -0.029446   0.003866  -0.011193  -0.002676   0.364984
     5  C   -0.042425   0.003609  -0.000114   0.000248  -0.000070  -0.051668
     6  N   -0.005585   0.000036   0.000001   0.000001  -0.000002   0.003383
     7  C    5.014256   0.382294  -0.049797  -0.049661  -0.053276  -0.052770
     8  C    0.382294   4.826965   0.376855   0.373826   0.382031  -0.003206
     9  C   -0.049797   0.376855   5.001746  -0.048405  -0.062173  -0.000059
    10  C   -0.049661   0.373826  -0.048405   4.999018  -0.056201  -0.000962
    11  C   -0.053276   0.382031  -0.062173  -0.056201   4.991940  -0.000563
    12  C   -0.052770  -0.003206  -0.000059  -0.000962  -0.000563   5.002888
    13  H    0.000001  -0.000094  -0.000013  -0.008940   0.000008   0.000005
    14  H    0.000012  -0.000221   0.000003   0.006491   0.000002  -0.000015
    15  H   -0.000427  -0.004694  -0.000057  -0.043643   0.002111   0.001829
    16  H   -0.004366  -0.000339  -0.000097  -0.007932   0.000074   0.006214
    17  H    0.005286   0.000283   0.000008   0.005395  -0.000019  -0.008093
    18  H   -0.010405  -0.000021  -0.000003   0.000006  -0.000007  -0.000854
    19  H    0.004961  -0.000121   0.000002  -0.000001   0.000001  -0.007323
    20  H    0.003488  -0.000202   0.000001   0.000010   0.000003  -0.000046
    21  H    0.000252   0.000002  -0.000000  -0.000000   0.000000  -0.000199
    22  H    0.363622  -0.038083  -0.009747  -0.004472   0.006466   0.006563
    23  H    0.363370  -0.031986  -0.002867   0.005356  -0.009638  -0.009660
    24  H    0.004967  -0.027292   0.372161  -0.004850  -0.006277   0.000003
    25  H   -0.004783  -0.029678   0.372940   0.005019  -0.004534  -0.000008
    26  H   -0.007401  -0.027356   0.372511  -0.006455   0.005811   0.000002
    27  H   -0.004129  -0.034265  -0.008609   0.368798   0.006196   0.000079
    28  H    0.005187  -0.029321  -0.003953   0.361776  -0.008395  -0.000023
    29  H   -0.002098  -0.030181   0.005835  -0.005779   0.376295  -0.002940
    30  H    0.004977  -0.029503  -0.009375  -0.003896   0.373009   0.000080
    31  H   -0.006821  -0.028200  -0.003998   0.005144   0.375980   0.000238
    32  H   -0.006904  -0.000411  -0.000011   0.000034   0.000239   0.374812
    33  H    0.005043   0.000005   0.000003   0.000017   0.000060   0.370920
    34  H   -0.002604   0.001081  -0.000019   0.000003  -0.002543   0.378051
              13         14         15         16         17         18
     1  N    0.338106   0.338395  -0.042576  -0.001621  -0.001704   0.000001
     2  C   -0.041251  -0.040343   0.386723  -0.037976  -0.033870  -0.000106
     3  C   -0.003957  -0.001671  -0.053671   0.359368   0.362797   0.005776
     4  C    0.000109   0.000091  -0.002012  -0.031519  -0.030490  -0.045489
     5  C   -0.000006  -0.000004  -0.000145  -0.010950  -0.003880   0.379229
     6  N   -0.000013   0.000000  -0.000007   0.017777   0.000066  -0.055594
     7  C    0.000001   0.000012  -0.000427  -0.004366   0.005286  -0.010405
     8  C   -0.000094  -0.000221  -0.004694  -0.000339   0.000283  -0.000021
     9  C   -0.000013   0.000003  -0.000057  -0.000097   0.000008  -0.000003
    10  C   -0.008940   0.006491  -0.043643  -0.007932   0.005395   0.000006
    11  C    0.000008   0.000002   0.002111   0.000074  -0.000019  -0.000007
    12  C    0.000005  -0.000015   0.001829   0.006214  -0.008093  -0.000854
    13  H    0.488309  -0.033269   0.007380   0.006748  -0.000399  -0.000000
    14  H   -0.033269   0.485486  -0.004325  -0.000267   0.005835   0.000000
    15  H    0.007380  -0.004325   0.658922   0.006330  -0.005306   0.000001
    16  H    0.006748  -0.000267   0.006330   0.641892  -0.037520   0.000625
    17  H   -0.000399   0.005835  -0.005306  -0.037520   0.656530  -0.000062
    18  H   -0.000000   0.000000   0.000001   0.000625  -0.000062   0.696867
    19  H    0.000000   0.000001  -0.000004  -0.000605   0.004005  -0.045874
    20  H    0.000001  -0.000000   0.000000  -0.000597   0.000017  -0.006497
    21  H    0.000000  -0.000000   0.000000  -0.000360  -0.000035  -0.003018
    22  H    0.000002  -0.000000   0.000076   0.003424  -0.000107   0.000520
    23  H   -0.000001  -0.000001  -0.000035  -0.000048  -0.000170   0.004775
    24  H    0.000001   0.000000  -0.000004  -0.000000  -0.000000  -0.000000
    25  H    0.000000  -0.000000   0.000004   0.000001  -0.000000   0.000000
    26  H    0.000000   0.000000   0.000002   0.000008  -0.000000   0.000000
    27  H    0.006328  -0.000011   0.006390   0.005184  -0.000027   0.000001
    28  H   -0.000550  -0.000142  -0.006186  -0.000083  -0.000208  -0.000000
    29  H   -0.000002   0.000013   0.001720  -0.000009   0.000015   0.000000
    30  H    0.000000  -0.000000   0.000139  -0.000000  -0.000000   0.000000
    31  H    0.000000  -0.000000  -0.000154   0.000001  -0.000001  -0.000001
    32  H    0.000000  -0.000000  -0.000169  -0.000185   0.000048   0.004597
    33  H    0.000001   0.000002   0.000181  -0.000052   0.004061  -0.000283
    34  H   -0.000001   0.000008   0.001309  -0.000013   0.000051  -0.000079
              19         20         21         22         23         24
     1  N   -0.000002   0.000000  -0.000000  -0.000010   0.000004  -0.000001
     2  C   -0.000029  -0.000020   0.000001   0.000024   0.000190   0.000042
     3  C   -0.007522  -0.000005   0.000201  -0.004461   0.005474  -0.000004
     4  C   -0.024371  -0.005474   0.005245  -0.037863  -0.031716  -0.000149
     5  C    0.375224  -0.039075  -0.031358  -0.009878  -0.002550   0.000002
     6  N   -0.041460   0.337363   0.337987   0.001618  -0.000183  -0.000000
     7  C    0.004961   0.003488   0.000252   0.363622   0.363370   0.004967
     8  C   -0.000121  -0.000202   0.000002  -0.038083  -0.031986  -0.027292
     9  C    0.000002   0.000001  -0.000000  -0.009747  -0.002867   0.372161
    10  C   -0.000001   0.000010  -0.000000  -0.004472   0.005356  -0.004850
    11  C    0.000001   0.000003   0.000000   0.006466  -0.009638  -0.006277
    12  C   -0.007323  -0.000046  -0.000199   0.006563  -0.009660   0.000003
    13  H    0.000000   0.000001   0.000000   0.000002  -0.000001   0.000001
    14  H    0.000001  -0.000000  -0.000000  -0.000000  -0.000001   0.000000
    15  H   -0.000004   0.000000   0.000000   0.000076  -0.000035  -0.000004
    16  H   -0.000605  -0.000597  -0.000360   0.003424  -0.000048  -0.000000
    17  H    0.004005   0.000017  -0.000035  -0.000107  -0.000170  -0.000000
    18  H   -0.045874  -0.006497  -0.003018   0.000520   0.004775  -0.000000
    19  H    0.642041   0.006815  -0.005850   0.000138  -0.000115  -0.000000
    20  H    0.006815   0.481281  -0.031330   0.004237   0.000064  -0.000000
    21  H   -0.005850  -0.031330   0.476437  -0.000259  -0.000033   0.000000
    22  H    0.000138   0.004237  -0.000259   0.666180  -0.038374   0.000180
    23  H   -0.000115   0.000064  -0.000033  -0.038374   0.649364  -0.000144
    24  H   -0.000000  -0.000000   0.000000   0.000180  -0.000144   0.619372
    25  H   -0.000000   0.000002  -0.000000  -0.000146   0.003567  -0.031768
    26  H    0.000000   0.000002   0.000000   0.006288  -0.000196  -0.031554
    27  H   -0.000000   0.000007   0.000000   0.003195  -0.000109  -0.000145
    28  H   -0.000000  -0.000000   0.000000  -0.000140  -0.000172   0.003671
    29  H    0.000001  -0.000000  -0.000000  -0.000138  -0.000049  -0.000003
    30  H   -0.000000  -0.000000  -0.000000  -0.000214   0.000083   0.005003
    31  H    0.000000   0.000000   0.000000   0.000038   0.005184  -0.000139
    32  H   -0.000283  -0.000004  -0.000002   0.000044   0.005262   0.000000
    33  H    0.006142   0.000004  -0.000012  -0.000210   0.000083  -0.000000
    34  H   -0.000053   0.000002   0.000003  -0.000124  -0.000038   0.000001
              25         26         27         28         29         30
     1  N    0.000001  -0.000001  -0.004933   0.003152  -0.000084  -0.000006
     2  C   -0.000175   0.000039  -0.037816  -0.031777   0.001081  -0.000245
     3  C    0.000004  -0.000017  -0.008661   0.005976   0.000068   0.000004
     4  C    0.000033   0.000054   0.000081   0.000192   0.000975  -0.000008
     5  C   -0.000000  -0.000003  -0.000092   0.000009  -0.000022   0.000002
     6  N    0.000000  -0.000007  -0.000005   0.000000   0.000000   0.000000
     7  C   -0.004783  -0.007401  -0.004129   0.005187  -0.002098   0.004977
     8  C   -0.029678  -0.027356  -0.034265  -0.029321  -0.030181  -0.029503
     9  C    0.372940   0.372511  -0.008609  -0.003953   0.005835  -0.009375
    10  C    0.005019  -0.006455   0.368798   0.361776  -0.005779  -0.003896
    11  C   -0.004534   0.005811   0.006196  -0.008395   0.376295   0.373009
    12  C   -0.000008   0.000002   0.000079  -0.000023  -0.002940   0.000080
    13  H    0.000000   0.000000   0.006328  -0.000550  -0.000002   0.000000
    14  H   -0.000000   0.000000  -0.000011  -0.000142   0.000013  -0.000000
    15  H    0.000004   0.000002   0.006390  -0.006186   0.001720   0.000139
    16  H    0.000001   0.000008   0.005184  -0.000083  -0.000009  -0.000000
    17  H   -0.000000  -0.000000  -0.000027  -0.000208   0.000015  -0.000000
    18  H    0.000000   0.000000   0.000001  -0.000000   0.000000   0.000000
    19  H   -0.000000   0.000000  -0.000000  -0.000000   0.000001  -0.000000
    20  H    0.000002   0.000002   0.000007  -0.000000  -0.000000  -0.000000
    21  H   -0.000000   0.000000   0.000000   0.000000  -0.000000  -0.000000
    22  H   -0.000146   0.006288   0.003195  -0.000140  -0.000138  -0.000214
    23  H    0.003567  -0.000196  -0.000109  -0.000172  -0.000049   0.000083
    24  H   -0.031768  -0.031554  -0.000145   0.003671  -0.000003   0.005003
    25  H    0.620982  -0.031446   0.000110  -0.000103  -0.000046  -0.000096
    26  H   -0.031446   0.617736   0.005398  -0.000260  -0.000234   0.000136
    27  H    0.000110   0.005398   0.654314  -0.038938  -0.000036  -0.000053
    28  H   -0.000103  -0.000260  -0.038938   0.649547   0.000010   0.003947
    29  H   -0.000046  -0.000234  -0.000036   0.000010   0.615526  -0.032093
    30  H   -0.000096   0.000136  -0.000053   0.003947  -0.032093   0.623974
    31  H    0.003461  -0.000079  -0.000201   0.000030  -0.031449  -0.031857
    32  H   -0.000000  -0.000000   0.000001  -0.000001   0.000118   0.000003
    33  H    0.000000  -0.000000  -0.000000  -0.000000   0.000119  -0.000004
    34  H    0.000000  -0.000000  -0.000011   0.000018   0.003021   0.000117
              31         32         33         34
     1  N    0.000001   0.000001  -0.000008  -0.000083
     2  C    0.000103   0.000147  -0.000273   0.000945
     3  C    0.000010   0.005150  -0.004273  -0.005203
     4  C   -0.000382  -0.028434  -0.029179  -0.028145
     5  C   -0.000013  -0.004430  -0.008837   0.004877
     6  N   -0.000000  -0.000033   0.000107  -0.000102
     7  C   -0.006821  -0.006904   0.005043  -0.002604
     8  C   -0.028200  -0.000411   0.000005   0.001081
     9  C   -0.003998  -0.000011   0.000003  -0.000019
    10  C    0.005144   0.000034   0.000017   0.000003
    11  C    0.375980   0.000239   0.000060  -0.002543
    12  C    0.000238   0.374812   0.370920   0.378051
    13  H    0.000000   0.000000   0.000001  -0.000001
    14  H   -0.000000  -0.000000   0.000002   0.000008
    15  H   -0.000154  -0.000169   0.000181   0.001309
    16  H    0.000001  -0.000185  -0.000052  -0.000013
    17  H   -0.000001   0.000048   0.004061   0.000051
    18  H   -0.000001   0.004597  -0.000283  -0.000079
    19  H    0.000000  -0.000283   0.006142  -0.000053
    20  H    0.000000  -0.000004   0.000004   0.000002
    21  H    0.000000  -0.000002  -0.000012   0.000003
    22  H    0.000038   0.000044  -0.000210  -0.000124
    23  H    0.005184   0.005262   0.000083  -0.000038
    24  H   -0.000139   0.000000  -0.000000   0.000001
    25  H    0.003461  -0.000000   0.000000   0.000000
    26  H   -0.000079  -0.000000  -0.000000  -0.000000
    27  H   -0.000201   0.000001  -0.000000  -0.000011
    28  H    0.000030  -0.000001  -0.000000   0.000018
    29  H   -0.031449   0.000118   0.000119   0.003021
    30  H   -0.031857   0.000003  -0.000004   0.000117
    31  H    0.614349   0.000250   0.000002   0.000090
    32  H    0.000250   0.615941  -0.031855  -0.031683
    33  H    0.000002  -0.031855   0.624827  -0.031828
    34  H    0.000090  -0.031683  -0.031828   0.610948
 Mulliken charges:
               1
     1  N   -0.639782
     2  C    0.038080
     3  C   -0.157308
     4  C    0.031772
     5  C   -0.040838
     6  N   -0.646158
     7  C   -0.165820
     8  C    0.034282
     9  C   -0.311212
    10  C   -0.148621
    11  C   -0.308736
    12  C   -0.314117
    13  H    0.241496
    14  H    0.243930
    15  H    0.090297
    16  H    0.086895
    17  H    0.077495
    18  H    0.075895
    19  H    0.094280
    20  H    0.249956
    21  H    0.252328
    22  H    0.081615
    23  H    0.085309
    24  H    0.096930
    25  H    0.096658
    26  H    0.097022
    27  H    0.081959
    28  H    0.086738
    29  H    0.100365
    30  H    0.095877
    31  H    0.098414
    32  H    0.097757
    33  H    0.095237
    34  H    0.102004
 Sum of Mulliken charges =  -0.00000
 Mulliken charges with hydrogens summed into heavy atoms:
               1
     1  N   -0.154355
     2  C    0.128377
     3  C    0.007083
     4  C    0.031772
     5  C    0.129338
     6  N   -0.143874
     7  C    0.001103
     8  C    0.034282
     9  C   -0.020602
    10  C    0.020076
    11  C   -0.014080
    12  C   -0.019118
 APT charges:
               1
     1  N   -1.155320
     2  C   -0.309468
     3  C   -0.614992
     4  C   -0.159677
     5  C   -0.722253
     6  N   -1.404607
     7  C   -0.636228
     8  C   -0.194837
     9  C   -1.178226
    10  C   -0.702878
    11  C   -1.100181
    12  C   -1.089684
    13  H    0.451103
    14  H    0.599299
    15  H    0.337052
    16  H    0.284400
    17  H    0.410847
    18  H    0.407984
    19  H    0.468846
    20  H    0.365236
    21  H    0.929988
    22  H    0.306986
    23  H    0.389549
    24  H    0.508631
    25  H    0.428774
    26  H    0.296835
    27  H    0.306828
    28  H    0.465213
    29  H    0.232735
    30  H    0.526552
    31  H    0.407049
    32  H    0.409545
    33  H    0.468780
    34  H    0.266118
 Sum of APT charges =  -0.00000
 APT charges with hydrogens summed into heavy atoms:
               1
     1  N   -0.104918
     2  C    0.027585
     3  C    0.080255
     4  C   -0.159677
     5  C    0.154578
     6  N   -0.109383
     7  C    0.060307
     8  C   -0.194837
     9  C    0.056015
    10  C    0.069162
    11  C    0.066154
    12  C    0.054759
 Electronic spatial extent (au):  <R**2>=           2306.2619
 Charge=              0.0000 electrons
 Dipole moment (field-independent basis, Debye):
    X=             -2.1050    Y=             -1.8966    Z=              0.0878  Tot=              2.8347
 Quadrupole moment (field-independent basis, Debye-Ang):
   XX=            -77.1070   YY=            -78.0083   ZZ=            -77.0461
   XY=             -1.6708   XZ=              0.0958   YZ=              2.2640
 Traceless Quadrupole moment (field-independent basis, Debye-Ang):
   XX=              0.2801   YY=             -0.6212   ZZ=              0.3410
   XY=             -1.6708   XZ=              0.0958   YZ=              2.2640
 Octapole moment (field-independent basis, Debye-Ang**2):
  XXX=            -37.4822  YYY=              1.2143  ZZZ=             -8.7464  XYY=            -26.5804
  XXY=            -21.3281  XXZ=             -4.2148  XZZ=             -1.6450  YZZ=              2.5840
  YYZ=             -3.7507  XYZ=             -8.1014
 Hexadecapole moment (field-independent basis, Debye-Ang**3):
 XXXX=          -1364.7245 YYYY=           -983.1647 ZZZZ=           -594.1669 XXXY=             30.5282
 XXXZ=             43.1775 YYYX=            -53.6259 YYYZ=             -4.7483 ZZZX=             11.7559
 ZZZY=              5.7896 XXYY=           -454.5077 XXZZ=           -347.0144 YYZZ=           -247.2726
 XXYZ=             28.6700 YYXZ=             12.1391 ZZXY=             22.7227
 N-N= 8.123417918173D+02 E-N=-2.791645240811D+03  KE= 4.989591734525D+02
  Exact polarizability:   0.000   0.000   0.000   0.000   0.000   0.000
 Approx polarizability: 164.209  -1.746 163.505  -0.136   0.869 164.807
 D2PCM: PCM CHGder 2nd derivatives, FixD1E=F FixD2E=F DoIter=F DoCFld=F I1PDM=0
 Calling FoFJK, ICntrl=    100147 FMM=F ISym2X=0 I1Cent= 0 IOpClX= 0 NMat=1 NMatS=1 NMatT=0.
 ***** Axes restored to original set *****
 -------------------------------------------------------------------
 Center     Atomic                   Forces (Hartrees/Bohr)
 Number     Number              X              Y              Z
 -------------------------------------------------------------------
      1        7           0.009095462    0.009813706    0.002694662
      2        6          -0.007601948    0.006431028   -0.008410008
      3        6           0.000393532   -0.010418994   -0.000311355
      4        6          -0.007631020   -0.001785823    0.003290000
      5        6           0.001964140   -0.005411648   -0.003021950
      6        7           0.000192022    0.009420758   -0.009471222
      7        6          -0.004256307    0.003091705   -0.002851099
      8        6           0.005730984   -0.004094950   -0.004435736
      9        6          -0.001719346    0.000110154   -0.001125435
     10        6           0.000126574   -0.001496345    0.003163170
     11        6           0.002986725    0.000623251    0.003475570
     12        6          -0.002900319   -0.000316899    0.001935566
     13        1          -0.001007972   -0.001269471    0.000954446
     14        1           0.000111351   -0.000470793   -0.000919790
     15        1           0.000899285   -0.000474935    0.001272905
     16        1           0.000789390   -0.001789712    0.000054218
     17        1           0.000380897   -0.000303783    0.001031396
     18        1           0.003870350   -0.004236369    0.009420908
     19        1           0.002151581    0.001093036    0.001025515
     20        1          -0.001706310   -0.000382557    0.001086075
     21        1           0.002378587    0.000382799    0.000646274
     22        1          -0.000277075    0.001586906   -0.000746659
     23        1           0.000545796    0.000516293    0.001274012
     24        1          -0.000129522   -0.000060301    0.001027448
     25        1           0.000284010   -0.000185783    0.000189105
     26        1          -0.000667035   -0.000067182    0.000122904
     27        1          -0.001941970    0.000399305    0.000260075
     28        1          -0.000934132   -0.000109680    0.000352162
     29        1          -0.001704434   -0.000477767    0.001575319
     30        1          -0.000320629    0.000114333   -0.001696079
     31        1          -0.000403102    0.000191574    0.000102930
     32        1           0.000334852    0.000073040    0.000056902
     33        1          -0.001031885    0.000066023   -0.001345132
     34        1           0.001997468   -0.000560920   -0.000677095
 -------------------------------------------------------------------
 Cartesian Forces:  Max     0.010418994 RMS     0.003273880
 FormGI is forming the generalized inverse of G from B-inverse, IUseBI=4.

 GradGradGradGradGradGradGradGradGradGradGradGradGradGradGradGradGradGrad
 Berny optimization.
 Internal  Forces:  Max     0.009671965 RMS     0.002066848
 Search for a local minimum.
 Step number   1 out of a maximum of  204
 All quantities printed in internal units (Hartrees-Bohrs-Radians)
 Mixed Optimization -- RFO/linear search
 Second derivative matrix not updated -- analytic derivatives used.
 ITU=  0
     Eigenvalues ---    0.00069   0.00160   0.00202   0.00281   0.00351
     Eigenvalues ---    0.00403   0.00491   0.00602   0.00619   0.01942
     Eigenvalues ---    0.02103   0.03231   0.03356   0.03729   0.03831
     Eigenvalues ---    0.03952   0.04062   0.04141   0.04438   0.04496
     Eigenvalues ---    0.04575   0.04609   0.04647   0.04655   0.04721
     Eigenvalues ---    0.04775   0.04822   0.04964   0.05196   0.05320
     Eigenvalues ---    0.05352   0.05450   0.05694   0.06267   0.06418
     Eigenvalues ---    0.07144   0.07431   0.08004   0.08722   0.08981
     Eigenvalues ---    0.09078   0.10851   0.11856   0.11936   0.11989
     Eigenvalues ---    0.12310   0.13355   0.13926   0.14177   0.14479
     Eigenvalues ---    0.14659   0.14881   0.14969   0.15236   0.15340
     Eigenvalues ---    0.15713   0.17237   0.17649   0.18565   0.19229
     Eigenvalues ---    0.20806   0.21998   0.23335   0.23814   0.24133
     Eigenvalues ---    0.26133   0.26499   0.26619   0.26900   0.27817
     Eigenvalues ---    0.29645   0.30926   0.31719   0.32280   0.32483
     Eigenvalues ---    0.32662   0.32785   0.33089   0.33127   0.33208
     Eigenvalues ---    0.33265   0.33276   0.33375   0.33423   0.33453
     Eigenvalues ---    0.33735   0.33881   0.34194   0.35098   0.35862
     Eigenvalues ---    0.36505   0.37111   0.43720   0.43909   0.44029
     Eigenvalues ---    0.44292
 RFO step:  Lambda=-5.21284524D-03 EMin= 6.87156677D-04
 Linear search not attempted -- first point.
 Iteration  1 RMS(Cart)=  0.02841970 RMS(Int)=  0.00072316
 Iteration  2 RMS(Cart)=  0.00084689 RMS(Int)=  0.00013953
 Iteration  3 RMS(Cart)=  0.00000151 RMS(Int)=  0.00013952
 Iteration  4 RMS(Cart)=  0.00000000 RMS(Int)=  0.00013952
 Variable       Old X    -DE/DX   Delta X   Delta X   Delta X     New X
                                 (Linear)    (Quad)   (Total)
    R1        2.77152   0.00784   0.00000   0.01728   0.01728   2.78881
    R2        1.92794  -0.00086   0.00000   0.00123   0.00123   1.92917
    R3        1.92671  -0.00083   0.00000   0.00050   0.00050   1.92722
    R4        2.89958   0.00468   0.00000   0.00739   0.00745   2.90703
    R5        2.89714  -0.00042   0.00000   0.00082   0.00082   2.89796
    R6        2.06713   0.00154   0.00000   0.00697   0.00697   2.07410
    R7        2.92668  -0.00150   0.00000  -0.00556  -0.00549   2.92119
    R8        2.07559  -0.00077   0.00000  -0.00166  -0.00166   2.07393
    R9        2.07578   0.00029   0.00000   0.00196   0.00196   2.07774
   R10        2.95658  -0.00825   0.00000  -0.02145  -0.02145   2.93513
   R11        2.93936  -0.00218   0.00000  -0.00519  -0.00520   2.93416
   R12        2.92161   0.00004   0.00000  -0.00291  -0.00291   2.91870
   R13        2.76091   0.00920   0.00000   0.01731   0.01731   2.77823
   R14        2.07322   0.00498   0.00000   0.01327   0.01327   2.08649
   R15        2.07319  -0.00039   0.00000  -0.00037  -0.00037   2.07282
   R16        1.92505  -0.00142   0.00000  -0.00213  -0.00213   1.92291
   R17        1.92728  -0.00246   0.00000  -0.00393  -0.00393   1.92335
   R18        2.93426   0.00075   0.00000   0.00391   0.00386   2.93812
   R19        2.07353   0.00089   0.00000   0.00052   0.00052   2.07404
   R20        2.07584  -0.00024   0.00000   0.00043   0.00043   2.07627
   R21        2.92434  -0.00122   0.00000  -0.00810  -0.00810   2.91625
   R22        2.91871   0.00207   0.00000   0.00493   0.00487   2.92358
   R23        2.90984   0.00298   0.00000   0.00901   0.00901   2.91885
   R24        2.07125  -0.00015   0.00000  -0.00008  -0.00008   2.07116
   R25        2.07114   0.00020   0.00000   0.00064   0.00064   2.07178
   R26        2.07110   0.00016   0.00000  -0.00038  -0.00038   2.07071
   R27        2.07816   0.00033   0.00000   0.00221   0.00221   2.08036
   R28        2.07599  -0.00085   0.00000  -0.00256  -0.00256   2.07342
   R29        2.05937   0.00162   0.00000   0.00374   0.00374   2.06311
   R30        2.07264  -0.00016   0.00000  -0.00130  -0.00130   2.07134
   R31        2.07044  -0.00014   0.00000   0.00017   0.00017   2.07061
   R32        2.07073  -0.00006   0.00000   0.00022   0.00022   2.07094
   R33        2.07264   0.00013   0.00000  -0.00059  -0.00059   2.07204
   R34        2.05823   0.00109   0.00000   0.00344   0.00344   2.06167
    A1        1.90988  -0.00226   0.00000  -0.02072  -0.02091   1.88897
    A2        1.90851  -0.00006   0.00000  -0.01206  -0.01226   1.89625
    A3        1.84330   0.00012   0.00000  -0.01400  -0.01446   1.82884
    A4        1.92097   0.00890   0.00000   0.05554   0.05561   1.97657
    A5        1.90587  -0.00179   0.00000  -0.00400  -0.00431   1.90155
    A6        1.86388  -0.00270   0.00000  -0.01543  -0.01544   1.84844
    A7        1.93579  -0.00469   0.00000  -0.01132  -0.01171   1.92408
    A8        1.92051  -0.00097   0.00000  -0.01225  -0.01238   1.90813
    A9        1.91543   0.00136   0.00000  -0.01258  -0.01284   1.90259
   A10        1.97983   0.00461   0.00000   0.01928   0.01952   1.99935
   A11        1.88890  -0.00110   0.00000  -0.00091  -0.00089   1.88802
   A12        1.91559  -0.00148   0.00000  -0.00445  -0.00450   1.91109
   A13        1.91167  -0.00253   0.00000  -0.02108  -0.02108   1.89059
   A14        1.91216  -0.00112   0.00000  -0.00285  -0.00302   1.90914
   A15        1.85114   0.00141   0.00000   0.00931   0.00929   1.86044
   A16        1.91764   0.00103   0.00000  -0.00349  -0.00384   1.91380
   A17        1.92509  -0.00206   0.00000  -0.01492  -0.01512   1.90998
   A18        1.91907   0.00068   0.00000   0.01158   0.01161   1.93068
   A19        1.92388  -0.00127   0.00000  -0.01848  -0.01867   1.90521
   A20        1.83710  -0.00060   0.00000   0.00549   0.00565   1.84275
   A21        1.93929   0.00233   0.00000   0.02071   0.02076   1.96005
   A22        2.01193  -0.00578   0.00000  -0.01225  -0.01231   1.99962
   A23        1.91453  -0.00425   0.00000  -0.02912  -0.02937   1.88517
   A24        1.90597  -0.00050   0.00000  -0.02562  -0.02604   1.87993
   A25        1.89192   0.00967   0.00000   0.07238   0.07242   1.96435
   A26        1.87133   0.00184   0.00000  -0.00085  -0.00140   1.86993
   A27        1.86207  -0.00048   0.00000  -0.00309  -0.00418   1.85789
   A28        1.91980  -0.00048   0.00000  -0.00737  -0.00744   1.91236
   A29        1.90437  -0.00073   0.00000  -0.00986  -0.00992   1.89445
[...]
    20    C    2  px     Val( 2p)     1.02688
    21    C    2  px     Ryd( 3p)     0.00346
    22    C    2  py     Val( 2p)     0.89503
    23    C    2  py     Ryd( 3p)     0.00450
    24    C    2  pz     Val( 2p)     1.17236
    25    C    2  pz     Ryd( 3p)     0.00262
    26    C    2  dxy    Ryd( 3d)     0.00128
    27    C    2  dxz    Ryd( 3d)     0.00060
    28    C    2  dyz    Ryd( 3d)     0.00079
    29    C    2  dx2y2  Ryd( 3d)     0.00111
    30    C    2  dz2    Ryd( 3d)     0.00126

    31    C    3  S      Cor( 1S)     1.99920
    32    C    3  S      Val( 2S)     1.03731
    33    C    3  S      Ryd( 3S)     0.00129
    34    C    3  S      Ryd( 4S)     0.00003
    35    C    3  px     Val( 2p)     1.08771
    36    C    3  px     Ryd( 3p)     0.00314
    37    C    3  py     Val( 2p)     1.10362
    38    C    3  py     Ryd( 3p)     0.00337
    39    C    3  pz     Val( 2p)     1.23197
    40    C    3  pz     Ryd( 3p)     0.00461
    41    C    3  dxy    Ryd( 3d)     0.00067
    42    C    3  dxz    Ryd( 3d)     0.00046
    43    C    3  dyz    Ryd( 3d)     0.00049
    44    C    3  dx2y2  Ryd( 3d)     0.00067
    45    C    3  dz2    Ryd( 3d)     0.00089

    46    C    4  S      Cor( 1S)     1.99910
    47    C    4  S      Val( 2S)     0.91597
    48    C    4  S      Ryd( 3S)     0.00064
    49    C    4  S      Ryd( 4S)     0.00002
    50    C    4  px     Val( 2p)     1.00823
    51    C    4  px     Ryd( 3p)     0.00310
    52    C    4  py     Val( 2p)     1.04413
    53    C    4  py     Ryd( 3p)     0.00254
    54    C    4  pz     Val( 2p)     1.05795
    55    C    4  pz     Ryd( 3p)     0.00379
    56    C    4  dxy    Ryd( 3d)     0.00072
    57    C    4  dxz    Ryd( 3d)     0.00062
    58    C    4  dyz    Ryd( 3d)     0.00068
    59    C    4  dx2y2  Ryd( 3d)     0.00078
    60    C    4  dz2    Ryd( 3d)     0.00096

    61    C    5  S      Cor( 1S)     1.99918
    62    C    5  S      Val( 2S)     1.03720
    63    C    5  S      Ryd( 3S)     0.00285
    64    C    5  S      Ryd( 4S)     0.00004
    65    C    5  px     Val( 2p)     1.11281
    66    C    5  px     Ryd( 3p)     0.00118
    67    C    5  py     Val( 2p)     1.24369
    68    C    5  py     Ryd( 3p)     0.00418
    69    C    5  pz     Val( 2p)     0.91279
    70    C    5  pz     Ryd( 3p)     0.00736
    71    C    5  dxy    Ryd( 3d)     0.00086
    72    C    5  dxz    Ryd( 3d)     0.00071
    73    C    5  dyz    Ryd( 3d)     0.00070
    74    C    5  dx2y2  Ryd( 3d)     0.00058
    75    C    5  dz2    Ryd( 3d)     0.00166

    76    N    6  S      Cor( 1S)     1.99941
    77    N    6  S      Val( 2S)     1.49554
    78    N    6  S      Ryd( 3S)     0.01123
    79    N    6  S      Ryd( 4S)     0.00004
    80    N    6  px     Val( 2p)     1.36806
    81    N    6  px     Ryd( 3p)     0.00121
    82    N    6  py     Val( 2p)     1.34325
    83    N    6  py     Ryd( 3p)     0.00185
    84    N    6  pz     Val( 2p)     1.27479
    85    N    6  pz     Ryd( 3p)     0.00095
    86    N    6  dxy    Ryd( 3d)     0.00000
    87    N    6  dxz    Ryd( 3d)     0.00034
    88    N    6  dyz    Ryd( 3d)     0.00056
    89    N    6  dx2y2  Ryd( 3d)     0.00108
    90    N    6  dz2    Ryd( 3d)     0.00089

    91    C    7  S      Cor( 1S)     1.99919
    92    C    7  S      Val( 2S)     1.02926
    93    C    7  S      Ryd( 3S)     0.00156
    94    C    7  S      Ryd( 4S)     0.00004
    95    C    7  px     Val( 2p)     1.04312
    96    C    7  px     Ryd( 3p)     0.00419
    97    C    7  py     Val( 2p)     1.16355
    98    C    7  py     Ryd( 3p)     0.00375
    99    C    7  pz     Val( 2p)     1.22058
   100    C    7  pz     Ryd( 3p)     0.00502
   101    C    7  dxy    Ryd( 3d)     0.00058
   102    C    7  dxz    Ryd( 3d)     0.00050
   103    C    7  dyz    Ryd( 3d)     0.00043
   104    C    7  dx2y2  Ryd( 3d)     0.00082
   105    C    7  dz2    Ryd( 3d)     0.00087

   106    C    8  S      Cor( 1S)     1.99913
   107    C    8  S      Val( 2S)     0.90641
   108    C    8  S      Ryd( 3S)     0.00055
   109    C    8  S      Ryd( 4S)     0.00001
   110    C    8  px     Val( 2p)     1.04173
   111    C    8  px     Ryd( 3p)     0.00275
   112    C    8  py     Val( 2p)     1.04041
   113    C    8  py     Ryd( 3p)     0.00302
   114    C    8  pz     Val( 2p)     1.04636
   115    C    8  pz     Ryd( 3p)     0.00316
   116    C    8  dxy    Ryd( 3d)     0.00054
   117    C    8  dxz    Ryd( 3d)     0.00071
   118    C    8  dyz    Ryd( 3d)     0.00073
   119    C    8  dx2y2  Ryd( 3d)     0.00092
   120    C    8  dz2    Ryd( 3d)     0.00079

   121    C    9  S      Cor( 1S)     1.99939
   122    C    9  S      Val( 2S)     1.09270
   123    C    9  S      Ryd( 3S)     0.00059
   124    C    9  S      Ryd( 4S)     0.00001
   125    C    9  px     Val( 2p)     1.21523
   126    C    9  px     Ryd( 3p)     0.00208
   127    C    9  py     Val( 2p)     1.18405
   128    C    9  py     Ryd( 3p)     0.00204
   129    C    9  pz     Val( 2p)     1.17829
   130    C    9  pz     Ryd( 3p)     0.00249
   131    C    9  dxy    Ryd( 3d)     0.00022
   132    C    9  dxz    Ryd( 3d)     0.00040
   133    C    9  dyz    Ryd( 3d)     0.00040
   134    C    9  dx2y2  Ryd( 3d)     0.00102
   135    C    9  dz2    Ryd( 3d)     0.00088

   136    C   10  S      Cor( 1S)     1.99922
   137    C   10  S      Val( 2S)     1.02607
   138    C   10  S      Ryd( 3S)     0.00123
   139    C   10  S      Ryd( 4S)     0.00003
   140    C   10  px     Val( 2p)     1.20234
   141    C   10  px     Ryd( 3p)     0.00447
   142    C   10  py     Val( 2p)     1.04217
   143    C   10  py     Ryd( 3p)     0.00330
   144    C   10  pz     Val( 2p)     1.18918
   145    C   10  pz     Ryd( 3p)     0.00342
   146    C   10  dxy    Ryd( 3d)     0.00059
   147    C   10  dxz    Ryd( 3d)     0.00028
   148    C   10  dyz    Ryd( 3d)     0.00050
   149    C   10  dx2y2  Ryd( 3d)     0.00081
   150    C   10  dz2    Ryd( 3d)     0.00101

   151    C   11  S      Cor( 1S)     1.99937
   152    C   11  S      Val( 2S)     1.09357
   153    C   11  S      Ryd( 3S)     0.00067
   154    C   11  S      Ryd( 4S)     0.00001
   155    C   11  px     Val( 2p)     1.21657
   156    C   11  px     Ryd( 3p)     0.00202
   157    C   11  py     Val( 2p)     1.24144
   158    C   11  py     Ryd( 3p)     0.00223
   159    C   11  pz     Val( 2p)     1.12162
   160    C   11  pz     Ryd( 3p)     0.00185
   161    C   11  dxy    Ryd( 3d)     0.00018
   162    C   11  dxz    Ryd( 3d)     0.00038
   163    C   11  dyz    Ryd( 3d)     0.00082
   164    C   11  dx2y2  Ryd( 3d)     0.00091
   165    C   11  dz2    Ryd( 3d)     0.00060

   166    C   12  S      Cor( 1S)     1.99937
   167    C   12  S      Val( 2S)     1.09064
   168    C   12  S      Ryd( 3S)     0.00061
   169    C   12  S      Ryd( 4S)     0.00002
   170    C   12  px     Val( 2p)     1.25306
   171    C   12  px     Ryd( 3p)     0.00261
   172    C   12  py     Val( 2p)     1.25307
   173    C   12  py     Ryd( 3p)     0.00235
   174    C   12  pz     Val( 2p)     1.08358
   175    C   12  pz     Ryd( 3p)     0.00195
   176    C   12  dxy    Ryd( 3d)     0.00054
   177    C   12  dxz    Ryd( 3d)     0.00060
   178    C   12  dyz    Ryd( 3d)     0.00049
   179    C   12  dx2y2  Ryd( 3d)     0.00054
   180    C   12  dz2    Ryd( 3d)     0.00067

   181    H   13  S      Val( 1S)     0.61476
   182    H   13  S      Ryd( 2S)     0.00812
   183    H   13  px     Ryd( 2p)     0.00054
   184    H   13  py     Ryd( 2p)     0.00028
   185    H   13  pz     Ryd( 2p)     0.00056

   186    H   14  S      Val( 1S)     0.61055
   187    H   14  S      Ryd( 2S)     0.00933
   188    H   14  px     Ryd( 2p)     0.00060
   189    H   14  py     Ryd( 2p)     0.00040
   190    H   14  pz     Ryd( 2p)     0.00037

   191    H   15  S      Val( 1S)     0.76048
   192    H   15  S      Ryd( 2S)     0.00547
   193    H   15  px     Ryd( 2p)     0.00013
   194    H   15  py     Ryd( 2p)     0.00007
   195    H   15  pz     Ryd( 2p)     0.00038

   196    H   16  S      Val( 1S)     0.76571
   197    H   16  S      Ryd( 2S)     0.00948
   198    H   16  px     Ryd( 2p)     0.00011
   199    H   16  py     Ryd( 2p)     0.00009
   200    H   16  pz     Ryd( 2p)     0.00034

   201    H   17  S      Val( 1S)     0.76596
   202    H   17  S      Ryd( 2S)     0.01521
   203    H   17  px     Ryd( 2p)     0.00017
   204    H   17  py     Ryd( 2p)     0.00021
   205    H   17  pz     Ryd( 2p)     0.00015

   206    H   18  S      Val( 1S)     0.71758
   207    H   18  S      Ryd( 2S)     0.02287
   208    H   18  px     Ryd( 2p)     0.00013
   209    H   18  py     Ryd( 2p)     0.00029
   210    H   18  pz     Ryd( 2p)     0.00014

   211    H   19  S      Val( 1S)     0.77712
   212    H   19  S      Ryd( 2S)     0.02842
   213    H   19  px     Ryd( 2p)     0.00016
   214    H   19  py     Ryd( 2p)     0.00024
   215    H   19  pz     Ryd( 2p)     0.00011

   216    H   20  S      Val( 1S)     0.68018
   217    H   20  S      Ryd( 2S)     0.06345
   218    H   20  px     Ryd( 2p)     0.00026
   219    H   20  py     Ryd( 2p)     0.00075
   220    H   20  pz     Ryd( 2p)     0.00030

   221    H   21  S      Val( 1S)     0.69564
   222    H   21  S      Ryd( 2S)     0.06684
   223    H   21  px     Ryd( 2p)     0.00077
   224    H   21  py     Ryd( 2p)     0.00024
   225    H   21  pz     Ryd( 2p)     0.00027

   226    H   22  S      Val( 1S)     0.79228
   227    H   22  S      Ryd( 2S)     0.02089
   228    H   22  px     Ryd( 2p)     0.00012
   229    H   22  py     Ryd( 2p)     0.00010
   230    H   22  pz     Ryd( 2p)     0.00034

   231    H   23  S      Val( 1S)     0.77139
   232    H   23  S      Ryd( 2S)     0.01761
   233    H   23  px     Ryd( 2p)     0.00009
   234    H   23  py     Ryd( 2p)     0.00031
   235    H   23  pz     Ryd( 2p)     0.00013

   236    H   24  S      Val( 1S)     0.76727
   237    H   24  S      Ryd( 2S)     0.00303
   238    H   24  px     Ryd( 2p)     0.00034
   239    H   24  py     Ryd( 2p)     0.00009
   240    H   24  pz     Ryd( 2p)     0.00008

   241    H   25  S      Val( 1S)     0.76575
   242    H   25  S      Ryd( 2S)     0.00247
   243    H   25  px     Ryd( 2p)     0.00009
   244    H   25  py     Ryd( 2p)     0.00032
   245    H   25  pz     Ryd( 2p)     0.00010

   246    H   26  S      Val( 1S)     0.77007
   247    H   26  S      Ryd( 2S)     0.00385
   248    H   26  px     Ryd( 2p)     0.00012
   249    H   26  py     Ryd( 2p)     0.00009
   250    H   26  pz     Ryd( 2p)     0.00031

   251    H   27  S      Val( 1S)     0.76959
   252    H   27  S      Ryd( 2S)     0.00845
   253    H   27  px     Ryd( 2p)     0.00011
   254    H   27  py     Ryd( 2p)     0.00009
   255    H   27  pz     Ryd( 2p)     0.00035

   256    H   28  S      Val( 1S)     0.76053
   257    H   28  S      Ryd( 2S)     0.00745
   258    H   28  px     Ryd( 2p)     0.00034
   259    H   28  py     Ryd( 2p)     0.00010
   260    H   28  pz     Ryd( 2p)     0.00009

   261    H   29  S      Val( 1S)     0.77298
   262    H   29  S      Ryd( 2S)     0.00173
   263    H   29  px     Ryd( 2p)     0.00012
   264    H   29  py     Ryd( 2p)     0.00020
   265    H   29  pz     Ryd( 2p)     0.00022

   266    H   30  S      Val( 1S)     0.77351
   267    H   30  S      Ryd( 2S)     0.00548
   268    H   30  px     Ryd( 2p)     0.00034
   269    H   30  py     Ryd( 2p)     0.00009
   270    H   30  pz     Ryd( 2p)     0.00008

   271    H   31  S      Val( 1S)     0.76824
   272    H   31  S      Ryd( 2S)     0.00454
   273    H   31  px     Ryd( 2p)     0.00010
   274    H   31  py     Ryd( 2p)     0.00030
   275    H   31  pz     Ryd( 2p)     0.00011

   276    H   32  S      Val( 1S)     0.77016
   277    H   32  S      Ryd( 2S)     0.00798
   278    H   32  px     Ryd( 2p)     0.00009
   279    H   32  py     Ryd( 2p)     0.00031
   280    H   32  pz     Ryd( 2p)     0.00012

   281    H   33  S      Val( 1S)     0.77385
   282    H   33  S      Ryd( 2S)     0.00732
   283    H   33  px     Ryd( 2p)     0.00022
   284    H   33  py     Ryd( 2p)     0.00017
   285    H   33  pz     Ryd( 2p)     0.00012

   286    H   34  S      Val( 1S)     0.75936
   287    H   34  S      Ryd( 2S)     0.00144
   288    H   34  px     Ryd( 2p)     0.00028
   289    H   34  py     Ryd( 2p)     0.00012
   290    H   34  pz     Ryd( 2p)     0.00014


 Summary of Natural Population Analysis:                  
                                                          
                                       Natural Population 
                Natural  -----------------------------------------------
    Atom  No    Charge         Core      Valence    Rydberg      Total
 -----------------------------------------------------------------------
      N    1   -0.81608      1.99962     5.80221    0.01425     7.81608
      C    2   -0.05762      1.99918     4.04120    0.01724     6.05762
      C    3   -0.47542      1.99920     4.46061    0.01561     6.47542
      C    4   -0.03923      1.99910     4.02628    0.01385     6.03923
      C    5   -0.32577      1.99918     4.30649    0.02011     6.32577
      N    6   -0.49921      1.99941     5.48165    0.01815     7.49921
      C    7   -0.47346      1.99919     4.45651    0.01776     6.47346
      C    8   -0.04722      1.99913     4.03491    0.01318     6.04722
      C    9   -0.67978      1.99939     4.67027    0.01013     6.67978
      C   10   -0.47461      1.99922     4.45977    0.01563     6.47461
      C   11   -0.68224      1.99937     4.67320    0.00967     6.68224
      C   12   -0.69011      1.99937     4.68036    0.01038     6.69011
      H   13    0.37573      0.00000     0.61476    0.00951     0.62427
      H   14    0.37875      0.00000     0.61055    0.01070     0.62125
      H   15    0.23347      0.00000     0.76048    0.00605     0.76653
      H   16    0.22427      0.00000     0.76571    0.01002     0.77573
      H   17    0.21830      0.00000     0.76596    0.01574     0.78170
      H   18    0.25898      0.00000     0.71758    0.02343     0.74102
      H   19    0.19396      0.00000     0.77712    0.02893     0.80604
      H   20    0.25506      0.00000     0.68018    0.06476     0.74494
      H   21    0.23625      0.00000     0.69564    0.06811     0.76375
      H   22    0.18627      0.00000     0.79228    0.02145     0.81373
      H   23    0.21047      0.00000     0.77139    0.01814     0.78953
      H   24    0.22918      0.00000     0.76727    0.00355     0.77082
      H   25    0.23126      0.00000     0.76575    0.00299     0.76874
      H   26    0.22556      0.00000     0.77007    0.00437     0.77444
      H   27    0.22140      0.00000     0.76959    0.00901     0.77860
      H   28    0.23149      0.00000     0.76053    0.00798     0.76851
      H   29    0.22475      0.00000     0.77298    0.00227     0.77525
      H   30    0.22050      0.00000     0.77351    0.00599     0.77950
      H   31    0.22670      0.00000     0.76824    0.00505     0.77330
      H   32    0.22134      0.00000     0.77016    0.00850     0.77866
      H   33    0.21831      0.00000     0.77385    0.00784     0.78169
      H   34    0.23866      0.00000     0.75936    0.00198     0.76134
 =======================================================================
   * Total *   -0.00011     23.99135    71.49641    0.51234    96.00011

                                 Natural Population      
 --------------------------------------------------------
   Core                      23.99135 ( 99.9640% of  24)
   Valence                   71.49641 ( 99.3006% of  72)
   Natural Minimal Basis     95.48777 ( 99.4664% of  96)
   Natural Rydberg Basis      0.51234 (  0.5337% of  96)
 --------------------------------------------------------

    Atom  No          Natural Electron Configuration
 ----------------------------------------------------------------------------
      N    1      [core]2S( 1.44)2p( 4.36)3p( 0.01)
      C    2      [core]2S( 0.95)2p( 3.09)3p( 0.01)3d( 0.01)
      C    3      [core]2S( 1.04)2p( 3.42)3p( 0.01)
      C    4      [core]2S( 0.92)2p( 3.11)3p( 0.01)
      C    5      [core]2S( 1.04)2p( 3.27)3p( 0.01)
      N    6      [core]2S( 1.50)2p( 3.99)3S( 0.01)
      C    7      [core]2S( 1.03)2p( 3.43)3p( 0.01)
      C    8      [core]2S( 0.91)2p( 3.13)3p( 0.01)
      C    9      [core]2S( 1.09)2p( 3.58)3p( 0.01)
      C   10      [core]2S( 1.03)2p( 3.43)3p( 0.01)
      C   11      [core]2S( 1.09)2p( 3.58)3p( 0.01)
      C   12      [core]2S( 1.09)2p( 3.59)3p( 0.01)
      H   13            1S( 0.61)2S( 0.01)
      H   14            1S( 0.61)2S( 0.01)
      H   15            1S( 0.76)2S( 0.01)
      H   16            1S( 0.77)2S( 0.01)
      H   17            1S( 0.77)2S( 0.02)
      H   18            1S( 0.72)2S( 0.02)
      H   19            1S( 0.78)2S( 0.03)
      H   20            1S( 0.68)2S( 0.06)
      H   21            1S( 0.70)2S( 0.07)
      H   22            1S( 0.79)2S( 0.02)
      H   23            1S( 0.77)2S( 0.02)
      H   24            1S( 0.77)
      H   25            1S( 0.77)
      H   26            1S( 0.77)
      H   27            1S( 0.77)2S( 0.01)
      H   28            1S( 0.76)2S( 0.01)
      H   29            1S( 0.77)
      H   30            1S( 0.77)2S( 0.01)
      H   31            1S( 0.77)
      H   32            1S( 0.77)2S( 0.01)
      H   33            1S( 0.77)2S( 0.01)
      H   34            1S( 0.76)


 NBO analysis skipped by request.
 1\1\GINC-DRG2-W008\SP\RB3LYP TD-FC\6-31G(d,p)\C10H22N2\QDUEZ\18-Jul-20
 24\0\\# TD(NStates=10, Root=1) B3LYP/6-31G** SCRF=(Solvent=water) volu
 me pop=NPA density=current Geom=AllCheck Guess=Read\\RNLHGQLZWXBQNY-SC
 ZZXKLOSA-N_conf_2\\0,1\N,0,0.5362241288,3.2203963519,0.2731004309\C,0,
 0.4403908425,1.7584155594,0.4569519592\C,0,-0.9848982715,1.2057734493,
 0.2794100487\C,0,-1.1030443636,-0.3288847881,0.4286792904\C,0,-2.50970
 66417,-0.7857886016,-0.0533583512\N,0,-2.7820349077,-0.5129163761,-1.4
 73420007\C,0,-0.0245295545,-1.0170146233,-0.4500776194\C,0,1.430926298
 4,-0.4745050138,-0.3924441429\C,0,2.20125907,-1.05631021,-1.5960026742
 \C,0,1.4023791622,1.0672529724,-0.517194885\C,0,2.1862051364,-0.904835
 175,0.8836821332\C,0,-1.0187182174,-0.7402210941,1.9141027243\H,0,0.17
 5782309,3.450049031,-0.6541826154\H,0,-0.1092404048,3.6726276577,0.920
 4872639\H,0,0.7763246551,1.5631186233,1.4836805024\H,0,-1.3359564766,1
 .4799485422,-0.7240326456\H,0,-1.659475013,1.6957704991,0.9962167747\H
 ,0,-2.6304950085,-1.8514461529,0.2049136189\H,0,-3.2548479161,-0.23840
 5147,0.5365371839\H,0,-2.4348162293,-1.2795432592,-2.0442667336\H,0,-3
 .788299075,-0.505992434,-1.6206633344\H,0,-0.3473131614,-0.9038474186,
 -1.4924920902\H,0,-0.0183781125,-2.0965044018,-0.2431915317\H,0,3.2317
 684937,-0.6834269604,-1.618932633\H,0,2.2440033147,-2.1506016794,-1.54
 42296339\H,0,1.7239214131,-0.7836211661,-2.5438744928\H,0,1.0923003721
 ,1.3313884974,-1.5400645862\H,0,2.4127147507,1.4736337686,-0.383857809
 4\H,0,1.7928124725,-0.4477340757,1.7934495662\H,0,3.2425683873,-0.6216
 121357,0.8091765944\H,0,2.1422964952,-1.9921576005,1.0132045204\H,0,-0
 .9966705984,-1.8307413876,2.0207082493\H,0,-1.896011293,-0.3708890542,
 2.4589147985\H,0,-0.1374420565,-0.3413761975,2.4190701266\\Version=ES6
 4L-G16RevA.03\State=1-A\HF=-503.8563713\RMSD=6.092e-09\Dipole=-0.91433
 55,0.2812407,0.1293274\Quadrupole=-1.3233426,1.2830957,0.0402469,-1.65
 7045,-0.0881881,-0.5802876\PG=C01 [X(C10H22N2)]\\@


 IF THERE IS ONE WAY BETTER THAN ANOTHER IT IS THE WAY OF NATURE.

                          -- ARISTOTLE
 Job cpu time:       0 days  1 hours 11 minutes 57.7 seconds.
 Elapsed time:       0 days  0 hours 24 minutes  3.2 seconds.
 File lengths (MBytes):  RWF=    684 Int=      0 D2E=      0 Chk=     44 Scr=      1
 Normal termination of Gaussian 16 at Thu Jul 18 23:30:04 2024.
