 Entering Gaussian System, Link 0=g16
 Initial command:
 /opt/sw/arch/manual/gaussian/G16_A03/g16/l1.exe "/scratch/1380833/Gau-38700.inp" -scrdir="/scratch/1380833/"
 Entering Link 1 = /opt/sw/arch/manual/gaussian/G16_A03/g16/l1.exe PID=     38701.
  
 Copyright (c) 1988,1990,1992,1993,1995,1998,2003,2009,2016,
            Gaussian, Inc.  All Rights Reserved.
  
 This is part of the Gaussian(R) 16 program.  It is based on
 the Gaussian(R) 09 system (copyright 2009, Gaussian, Inc.),
 the Gaussian(R) 03 system (copyright 2003, Gaussian, Inc.),
 the Gaussian(R) 98 system (copyright 1998, Gaussian, Inc.),
 the Gaussian(R) 94 system (copyright 1995, Gaussian, Inc.),
 the Gaussian 92(TM) system (copyright 1992, Gaussian, Inc.),
 the Gaussian 90(TM) system (copyright 1990, Gaussian, Inc.),
 the Gaussian 88(TM) system (copyright 1988, Gaussian, Inc.),
 the Gaussian 86(TM) system (copyright 1986, Carnegie Mellon
 University), and the Gaussian 82(TM) system (copyright 1983,
 Carnegie Mellon University). Gaussian is a federally registered
 trademark of Gaussian, Inc.
  
 This software contains proprietary and confidential information,
 including trade secrets, belonging to Gaussian, Inc.
  
 This software is provided under written license and may be
 used, copied, transmitted, or stored only in accord with that
 written license.
  
 The following legend is applicable only to US Government
 contracts under FAR:
  
                    RESTRICTED RIGHTS LEGEND
  
 Use, reproduction and disclosure by the US Government is
 subject to restrictions as set forth in subparagraphs (a)
 and (c) of the Commercial Computer Software - Restricted
 Rights clause in FAR 52.227-19.
  
 Gaussian, Inc.
 340 Quinnipiac St., Bldg. 40, Wallingford CT 06492
  
  
 ---------------------------------------------------------------
 Warning -- This program may not be used in any manner that
 competes with the business of Gaussian, Inc. or will provide
 assistance to any competitor of Gaussian, Inc.  The licensee
 of this program is prohibited from giving any competitor of
 Gaussian, Inc. access to this program.  By using this program,
 the user acknowledges that Gaussian, Inc. is engaged in the
 business of creating and licensing software in the field of
 computational chemistry and represents and warrants to the
 licensee that it is not a competitor of Gaussian, Inc. and that
 it will not use this program in any manner prohibited above.
 ---------------------------------------------------------------
  

 Cite this work as:
 Gaussian 16, Revision A.03,
 M. J. Frisch, G. W. Trucks, H. B. Schlegel, G. E. Scuseria, 
 M. A. Robb, J. R. Cheeseman, G. Scalmani, V. Barone, 
 G. A. Petersson, H. Nakatsuji, X. Li, M. Caricato, A. V. Marenich, 
 J. Bloino, B. G. Janesko, R. Gomperts, B. Mennucci, H. P. Hratchian, 
 J. V. Ortiz, A. F. Izmaylov, J. L. Sonnenberg, D. Williams-Young, 
 F. Ding, F. Lipparini, F. Egidi, J. Goings, B. Peng, A. Petrone, 
 T. Henderson, D. Ranasinghe, V. G. Zakrzewski, J. Gao, N. Rega, 
 G. Zheng, W. Liang, M. Hada, M. Ehara, K. Toyota, R. Fukuda, 
 J. Hasegawa, M. Ishida, T. Nakajima, Y. Honda, O. Kitao, H. Nakai, 
 T. Vreven, K. Throssell, J. A. Montgomery, Jr., J. E. Peralta, 
 F. Ogliaro, M. J. Bearpark, J. J. Heyd, E. N. Brothers, K. N. Kudin, 
 V. N. Staroverov, T. A. Keith, R. Kobayashi, J. Normand, 
 K. Raghavachari, A. P. Rendell, J. C. Burant, S. S. Iyengar, 
 J. Tomasi, M. Cossi, J. M. Millam, M. Klene, C. Adamo, R. Cammi, 
 J. W. Ochterski, R. L. Martin, K. Morokuma, O. Farkas, 
 J. B. Foresman, and D. J. Fox, Gaussian, Inc., Wallingford CT, 2016.
 
 ******************************************
 Gaussian 16:  ES64L-G16RevA.03 25-Dec-2016
                17-Jul-2024 
 ******************************************
 %nprocshared=2
 Will use up to    2 processors via shared memory.
 %mem=4GB
 %Chk=GLUUGHFHXGJENI-UHFFFAOYSA-N_conf_0_0.chk
 -------------------------------------------------------
 # opt=CalcFc B3LYP/6-31G** SCRF=(Solvent=water) scf=xqc
 -------------------------------------------------------
 1/10=4,18=20,19=15,26=3,38=1/1,3;
 2/9=110,12=2,17=6,18=5,40=1/2;
 3/5=1,6=6,7=101,11=2,25=1,30=1,70=2201,71=2,72=1,74=-5,140=1/1,2,3;
 4//1;
 5/5=2,8=3,13=1,38=5,53=1/2,8;
 8/6=4,10=90,11=11/1;
 11/6=1,8=1,9=11,15=111,16=1/1,2,10;
 10/6=1,13=1/2;
 6/7=2,8=2,9=2,10=2,28=1/1;
 7/10=1,18=20,25=1/1,2,3,16;
 1/10=4,18=20,19=15,26=3/3(2);
 2/9=110/2;
 99//99;
 2/9=110/2;
 3/5=1,6=6,7=101,11=2,25=1,30=1,70=2205,71=1,72=1,74=-5/1,2,3;
 4/5=5,16=3,69=1/1;
 5/5=2,8=3,13=1,38=5,53=1/2,8;
 7//1,2,3,16;
 1/18=20,19=15,26=3/3(-5);
 2/9=110/2;
 6/7=2,8=2,9=2,10=2,19=2,28=1/1;
 99/9=1/99;
 ----------------------------------
 GLUUGHFHXGJENI-UHFFFAOYSA-N_conf_0
 ----------------------------------
 Symbolic Z-matrix:
 Charge =  0 Multiplicity = 1
 N                    -0.09263   1.35525   0.6023 
 C                    -1.27568   0.63714   0.09633 
 C                    -1.10578  -0.89713   0.12241 
 N                     0.09263  -1.35525  -0.60229 
 C                     1.27567  -0.63714  -0.09633 
 C                     1.10578   0.89713  -0.12241 
 H                     0.02494   1.10525   1.58514 
 H                    -2.14288   0.91593   0.70505 
 H                    -1.48839   0.97081  -0.9269 
 H                    -1.98833  -1.36694  -0.32559 
 H                    -1.0544   -1.24841   1.16046 
 H                    -0.02494  -1.10526  -1.58514 
 H                     1.48841  -0.97078   0.92691 
 H                     2.14287  -0.91592  -0.70506 
 H                     1.98832   1.36694   0.32559 
 H                     1.05441   1.24838  -1.16047 
 

 GradGradGradGradGradGradGradGradGradGradGradGradGradGradGradGradGradGrad
 Berny optimization.
 Initialization pass.
                           ----------------------------
                           !    Initial Parameters    !
                           ! (Angstroms and Degrees)  !
 --------------------------                            --------------------------
 ! Name  Definition              Value          Derivative Info.                !
 --------------------------------------------------------------------------------
 ! R1    R(1,2)                  1.4735         calculate D2E/DX2 analytically  !
 ! R2    R(1,6)                  1.4735         calculate D2E/DX2 analytically  !
 ! R3    R(1,7)                  1.0209         calculate D2E/DX2 analytically  !
 ! R4    R(2,3)                  1.5439         calculate D2E/DX2 analytically  !
 ! R5    R(2,8)                  1.0956         calculate D2E/DX2 analytically  !
 ! R6    R(2,9)                  1.0971         calculate D2E/DX2 analytically  !
 ! R7    R(3,4)                  1.4735         calculate D2E/DX2 analytically  !
 ! R8    R(3,10)                 1.0956         calculate D2E/DX2 analytically  !
 ! R9    R(3,11)                 1.0971         calculate D2E/DX2 analytically  !
 ! R10   R(4,5)                  1.4735         calculate D2E/DX2 analytically  !
 ! R11   R(4,12)                 1.0209         calculate D2E/DX2 analytically  !
 ! R12   R(5,6)                  1.5439         calculate D2E/DX2 analytically  !
 ! R13   R(5,13)                 1.0971         calculate D2E/DX2 analytically  !
 ! R14   R(5,14)                 1.0956         calculate D2E/DX2 analytically  !
 ! R15   R(6,15)                 1.0956         calculate D2E/DX2 analytically  !
 ! R16   R(6,16)                 1.0971         calculate D2E/DX2 analytically  !
 ! A1    A(2,1,6)              109.4254         calculate D2E/DX2 analytically  !
 ! A2    A(2,1,7)              107.679          calculate D2E/DX2 analytically  !
 ! A3    A(6,1,7)              107.679          calculate D2E/DX2 analytically  !
 ! A4    A(1,2,3)              112.9643         calculate D2E/DX2 analytically  !
 ! A5    A(1,2,8)              108.7061         calculate D2E/DX2 analytically  !
 ! A6    A(1,2,9)              109.1299         calculate D2E/DX2 analytically  !
 ! A7    A(3,2,8)              109.305          calculate D2E/DX2 analytically  !
 ! A8    A(3,2,9)              109.8368         calculate D2E/DX2 analytically  !
 ! A9    A(8,2,9)              106.6992         calculate D2E/DX2 analytically  !
 ! A10   A(2,3,4)              112.9642         calculate D2E/DX2 analytically  !
 ! A11   A(2,3,10)             109.3054         calculate D2E/DX2 analytically  !
 ! A12   A(2,3,11)             109.8366         calculate D2E/DX2 analytically  !
 ! A13   A(4,3,10)             108.7062         calculate D2E/DX2 analytically  !
 ! A14   A(4,3,11)             109.1301         calculate D2E/DX2 analytically  !
 ! A15   A(10,3,11)            106.6988         calculate D2E/DX2 analytically  !
 ! A16   A(3,4,5)              109.4256         calculate D2E/DX2 analytically  !
 ! A17   A(3,4,12)             107.6788         calculate D2E/DX2 analytically  !
 ! A18   A(5,4,12)             107.6787         calculate D2E/DX2 analytically  !
 ! A19   A(4,5,6)              112.9645         calculate D2E/DX2 analytically  !
 ! A20   A(4,5,13)             109.1313         calculate D2E/DX2 analytically  !
 ! A21   A(4,5,14)             108.7055         calculate D2E/DX2 analytically  !
 ! A22   A(6,5,13)             109.8358         calculate D2E/DX2 analytically  !
 ! A23   A(6,5,14)             109.3046         calculate D2E/DX2 analytically  !
 ! A24   A(13,5,14)            106.6995         calculate D2E/DX2 analytically  !
 ! A25   A(1,6,5)              112.9641         calculate D2E/DX2 analytically  !
 ! A26   A(1,6,15)             108.7057         calculate D2E/DX2 analytically  !
 ! A27   A(1,6,16)             109.1318         calculate D2E/DX2 analytically  !
 ! A28   A(5,6,15)             109.3053         calculate D2E/DX2 analytically  !
 ! A29   A(5,6,16)             109.8353         calculate D2E/DX2 analytically  !
 ! A30   A(15,6,16)            106.6992         calculate D2E/DX2 analytically  !
 ! D1    D(6,1,2,3)             53.2198         calculate D2E/DX2 analytically  !
 ! D2    D(6,1,2,8)            174.7236         calculate D2E/DX2 analytically  !
 ! D3    D(6,1,2,9)            -69.2648         calculate D2E/DX2 analytically  !
 ! D4    D(7,1,2,3)            -63.5483         calculate D2E/DX2 analytically  !
 ! D5    D(7,1,2,8)             57.9555         calculate D2E/DX2 analytically  !
 ! D6    D(7,1,2,9)            173.9671         calculate D2E/DX2 analytically  !
 ! D7    D(2,1,6,5)            -53.22           calculate D2E/DX2 analytically  !
 ! D8    D(2,1,6,15)          -174.7237         calculate D2E/DX2 analytically  !
 ! D9    D(2,1,6,16)            69.2639         calculate D2E/DX2 analytically  !
 ! D10   D(7,1,6,5)             63.5481         calculate D2E/DX2 analytically  !
 ! D11   D(7,1,6,15)           -57.9556         calculate D2E/DX2 analytically  !
 ! D12   D(7,1,6,16)          -173.9679         calculate D2E/DX2 analytically  !
 ! D13   D(1,2,3,4)            -55.1203         calculate D2E/DX2 analytically  !
 ! D14   D(1,2,3,10)          -176.2856         calculate D2E/DX2 analytically  !
 ! D15   D(1,2,3,11)            66.9685         calculate D2E/DX2 analytically  !
 ! D16   D(8,2,3,4)           -176.2853         calculate D2E/DX2 analytically  !
 ! D17   D(8,2,3,10)            62.5494         calculate D2E/DX2 analytically  !
 ! D18   D(8,2,3,11)           -54.1964         calculate D2E/DX2 analytically  !
 ! D19   D(9,2,3,4)             66.9685         calculate D2E/DX2 analytically  !
 ! D20   D(9,2,3,10)           -54.1969         calculate D2E/DX2 analytically  !
 ! D21   D(9,2,3,11)          -170.9427         calculate D2E/DX2 analytically  !
 ! D22   D(2,3,4,5)             53.2189         calculate D2E/DX2 analytically  !
 ! D23   D(2,3,4,12)           -63.5488         calculate D2E/DX2 analytically  !
 ! D24   D(10,3,4,5)           174.7233         calculate D2E/DX2 analytically  !
 ! D25   D(10,3,4,12)           57.9555         calculate D2E/DX2 analytically  !
 ! D26   D(11,3,4,5)           -69.2655         calculate D2E/DX2 analytically  !
 ! D27   D(11,3,4,12)          173.9667         calculate D2E/DX2 analytically  !
 ! D28   D(3,4,5,6)            -53.2193         calculate D2E/DX2 analytically  !
 ! D29   D(3,4,5,13)            69.2651         calculate D2E/DX2 analytically  !
 ! D30   D(3,4,5,14)          -174.7224         calculate D2E/DX2 analytically  !
 ! D31   D(12,4,5,6)            63.5485         calculate D2E/DX2 analytically  !
 ! D32   D(12,4,5,13)         -173.967          calculate D2E/DX2 analytically  !
 ! D33   D(12,4,5,14)          -57.9546         calculate D2E/DX2 analytically  !
 ! D34   D(4,5,6,1)             55.1208         calculate D2E/DX2 analytically  !
 ! D35   D(4,5,6,15)           176.2853         calculate D2E/DX2 analytically  !
 ! D36   D(4,5,6,16)           -66.9692         calculate D2E/DX2 analytically  !
 ! D37   D(13,5,6,1)           -66.9692         calculate D2E/DX2 analytically  !
 ! D38   D(13,5,6,15)           54.1953         calculate D2E/DX2 analytically  !
 ! D39   D(13,5,6,16)          170.9408         calculate D2E/DX2 analytically  !
 ! D40   D(14,5,6,1)           176.2849         calculate D2E/DX2 analytically  !
 ! D41   D(14,5,6,15)          -62.5506         calculate D2E/DX2 analytically  !
 ! D42   D(14,5,6,16)           54.1949         calculate D2E/DX2 analytically  !
 --------------------------------------------------------------------------------
 Trust Radius=3.00D-01 FncErr=1.00D-07 GrdErr=1.00D-06 EigMax=2.50D+02 EigMin=1.00D-04
 Number of steps in this run=     98 maximum allowed number of steps=    100.
 GradGradGradGradGradGradGradGradGradGradGradGradGradGradGradGradGradGrad

                          Input orientation:                          
 ---------------------------------------------------------------------
 Center     Atomic      Atomic             Coordinates (Angstroms)
 Number     Number       Type             X           Y           Z
 ---------------------------------------------------------------------
      1          7           0       -0.092633    1.355246    0.602299
      2          6           0       -1.275676    0.637143    0.096331
      3          6           0       -1.105785   -0.897132    0.122412
      4          7           0        0.092632   -1.355250   -0.602290
      5          6           0        1.275673   -0.637138   -0.096327
      6          6           0        1.105779    0.897131   -0.122414
      7          1           0        0.024937    1.105247    1.585140
      8          1           0       -2.142880    0.915927    0.705054
      9          1           0       -1.488391    0.970809   -0.926896
     10          1           0       -1.988326   -1.366943   -0.325594
     11          1           0       -1.054401   -1.248407    1.160459
     12          1           0       -0.024935   -1.105256   -1.585136
     13          1           0        1.488412   -0.970780    0.926906
     14          1           0        2.142868   -0.915917   -0.705064
     15          1           0        1.988317    1.366941    0.325593
     16          1           0        1.054408    1.248379   -1.160471
 ---------------------------------------------------------------------
                    Distance matrix (angstroms):
                    1          2          3          4          5
     1  N    0.000000
     2  C    1.473522   0.000000
     3  C    2.515944   1.543873   0.000000
     4  N    2.971893   2.515943   1.473522   0.000000
     5  C    2.515936   2.858373   2.405574   1.473523   0.000000
     6  C    1.473523   2.405571   2.858379   2.515943   1.543867
     7  H    1.020931   2.031568   2.725368   3.292944   2.725359
     8  H    2.099303   1.095585   2.168461   3.444547   3.839366
     9  H    2.105795   1.097075   2.176382   2.831175   3.303845
    10  H    3.444554   2.168468   1.095587   2.099305   3.352442
    11  H    2.831174   2.176380   1.097077   2.105798   2.717059
    12  H    3.292950   2.725369   2.031568   1.020934   2.031568
    13  H    2.831160   3.303855   2.717074   2.105816   1.097078
    14  H    3.444539   3.839359   3.352434   2.099296   1.095585
    15  H    2.099299   3.352435   3.839372   3.444549   2.168459
    16  H    2.105821   2.717067   3.303852   2.831160   2.176359
                    6          7          8          9         10
     6  C    0.000000
     7  H    2.031569   0.000000
     8  H    3.352438   2.347302   0.000000
     9  H    2.717046   2.935739   1.759156   0.000000
    10  H    3.839375   3.716969   2.509506   2.465073   0.000000
    11  H    3.303857   2.623930   2.465060   3.077388   1.759153
    12  H    2.725366   3.865160   3.716966   2.623933   2.347302
    13  H    2.176366   2.623913   4.098191   4.008454   3.716640
    14  H    2.168451   3.716958   4.869469   4.098169   4.173031
    15  H    1.095585   2.347297   4.173032   3.716605   4.869483
    16  H    1.097077   2.935759   3.716632   2.568546   4.098190
                   11         12         13         14         15
    11  H    0.000000
    12  H    2.935743   0.000000
    13  H    2.568565   2.935755   0.000000
    14  H    3.716620   2.347285   1.759161   0.000000
    15  H    4.098193   3.716965   2.465040   2.509499   0.000000
    16  H    4.008458   2.623913   3.077364   2.465020   1.759156
                   16
    16  H    0.000000
 Stoichiometry    C4H10N2
 Framework group  C1[X(C4H10N2)]
 Deg. of freedom    42
 Full point group                 C1      NOp   1
 Largest Abelian subgroup         C1      NOp   1
 Largest concise Abelian subgroup C1      NOp   1
                         Standard orientation:                         
 ---------------------------------------------------------------------
 Center     Atomic      Atomic             Coordinates (Angstroms)
 Number     Number       Type             X           Y           Z
 ---------------------------------------------------------------------
      1          7           0        0.000072   -1.474329   -0.185445
      2          6           0       -1.202749   -0.734958    0.236240
      3          6           0       -1.202825    0.734842   -0.236235
      4          7           0       -0.000072    1.474331    0.185438
      5          6           0        1.202749    0.734953   -0.236240
      6          6           0        1.202822   -0.734839    0.236240
      7          1           0        0.000074   -1.510314   -1.205742
      8          1           0       -2.086457   -1.244095   -0.163943
      9          1           0       -1.284223   -0.774552    1.329569
     10          1           0       -2.086582    1.243897    0.163950
     11          1           0       -1.284316    0.774423   -1.329565
     12          1           0       -0.000071    1.510321    1.205737
     13          1           0        1.284249    0.774523   -1.329570
     14          1           0        2.086449    1.244089    0.163959
     15          1           0        2.086575   -1.243895   -0.163946
     16          1           0        1.284323   -0.774393    1.329570
 ---------------------------------------------------------------------
 Rotational constants (GHZ):           4.7035371           4.4385833           2.6091395
 Standard basis: 6-31G(d,p) (6D, 7F)
 There are   140 symmetry adapted cartesian basis functions of A   symmetry.
 There are   140 symmetry adapted basis functions of A   symmetry.
   140 basis functions,   238 primitive gaussians,   140 cartesian basis functions
    24 alpha electrons       24 beta electrons
       nuclear repulsion energy       260.9592932538 Hartrees.
 NAtoms=   16 NActive=   16 NUniq=   16 SFac= 1.00D+00 NAtFMM=   60 NAOKFM=F Big=F
 Integral buffers will be    131072 words long.
 Raffenetti 2 integral format.
 Two-electron integral symmetry is turned on.
 Force inversion solution in PCM.
 ------------------------------------------------------------------------------
 Polarizable Continuum Model (PCM)
 =================================
 Model                : PCM.
 Atomic radii         : UFF (Universal Force Field).
 Polarization charges : Total charges.
 Charge compensation  : None.
 Solution method      : Matrix inversion.
 Cavity type          : Scaled VdW (van der Waals Surface) (Alpha=1.100).
 Cavity algorithm     : GePol (No added spheres)
                        Default sphere list used, NSphG=   16.
                        Lebedev-Laikov grids with approx.  5.0 points / Ang**2.
                        Smoothing algorithm: York/Karplus (Gamma=1.0000).
                        Polarization charges: spherical gaussians, with
                                              point-specific exponents (IZeta= 3).
                        Self-potential: point-specific (ISelfS= 7).
                        Self-field    : sphere-specific E.n sum rule (ISelfD= 2).
 1st derivatives      : Analytical E(r).r(x)/FMM algorithm (CHGder, D1EAlg=3).
                        Cavity 1st derivative terms included.
 2nd derivatives      : Analytical E(r).r(xy)/FMM algorithm (CHGder, D2EAlg=3).
                        Cavity 2nd derivative terms included.
 Solvent              : Water, Eps=  78.355300 Eps(inf)=   1.777849
 ------------------------------------------------------------------------------
 Spheres list:
 ISph  on   Nord     Re0    Alpha      Xe            Ye            Ze
    1   N      1    1.8300  1.100      0.000072     -1.474329     -0.185445
    2   C      2    1.9255  1.100     -1.202749     -0.734958      0.236240
    3   C      3    1.9255  1.100     -1.202825      0.734842     -0.236235
    4   N      4    1.8300  1.100     -0.000072      1.474331      0.185438
    5   C      5    1.9255  1.100      1.202749      0.734953     -0.236240
    6   C      6    1.9255  1.100      1.202822     -0.734839      0.236240
    7   H      7    1.4430  1.100      0.000074     -1.510314     -1.205742
    8   H      8    1.4430  1.100     -2.086457     -1.244095     -0.163943
    9   H      9    1.4430  1.100     -1.284223     -0.774552      1.329569
   10   H     10    1.4430  1.100     -2.086582      1.243897      0.163950
   11   H     11    1.4430  1.100     -1.284316      0.774423     -1.329565
   12   H     12    1.4430  1.100     -0.000071      1.510321      1.205737
   13   H     13    1.4430  1.100      1.284249      0.774523     -1.329570
   14   H     14    1.4430  1.100      2.086449      1.244089      0.163959
   15   H     15    1.4430  1.100      2.086575     -1.243895     -0.163946
   16   H     16    1.4430  1.100      1.284323     -0.774393      1.329570
 ------------------------------------------------------------------------------
 One-electron integrals computed using PRISM.
 NBasis=   140 RedAO= T EigKep=  3.98D-03  NBF=   140
 NBsUse=   140 1.00D-06 EigRej= -1.00D+00 NBFU=   140
 ExpMin= 1.61D-01 ExpMax= 4.17D+03 ExpMxC= 6.27D+02 IAcc=3 IRadAn=         5 AccDes= 0.00D+00
 Harris functional with IExCor=  402 and IRadAn=       5 diagonalized for initial guess.
 HarFok:  IExCor=  402 AccDes= 0.00D+00 IRadAn=         5 IDoV= 1 UseB2=F ITyADJ=14
 ICtDFT=  3500011 ScaDFX=  1.000000  1.000000  1.000000  1.000000
 FoFCou: FMM=F IPFlag=           0 FMFlag=      100000 FMFlg1=           0
         NFxFlg=           0 DoJE=T BraDBF=F KetDBF=T FulRan=T
         wScrn=  0.000000 ICntrl=       500 IOpCl=  0 I1Cent=   200000004 NGrid=           0
         NMat0=    1 NMatS0=      1 NMatT0=    0 NMatD0=    1 NMtDS0=    0 NMtDT0=    0
 Petite list used in FoFCou.
 Keep R1 ints in memory in canonical form, NReq=50648669.
 Requested convergence on RMS density matrix=1.00D-08 within  32 cycles.
 Requested convergence on MAX density matrix=1.00D-06.
 Requested convergence on             energy=1.00D-06.
 No special actions if energy rises.
 Inv3:  Mode=1 IEnd=     4163052.
 Iteration    1 A*A^-1 deviation from unit magnitude is 2.66D-15 for    924.
 Iteration    1 A*A^-1 deviation from orthogonality  is 1.89D-15 for   1014    677.
 Iteration    1 A^-1*A deviation from unit magnitude is 2.78D-15 for    186.
 Iteration    1 A^-1*A deviation from orthogonality  is 2.00D-15 for    914    148.
 Error on total polarization charges =  0.00800
 SCF Done:  E(RB3LYP) =  -267.948908462     A.U. after    9 cycles
            NFock=  9  Conv=0.53D-08     -V/T= 2.0097
 QCSCF skips out because SCF is already converged.
 DoSCS=F DFT=T ScalE2(SS,OS)=  1.000000  1.000000
 Range of M.O.s used for correlation:     1   140
 NBasis=   140 NAE=    24 NBE=    24 NFC=     0 NFV=     0
 NROrb=    140 NOA=    24 NOB=    24 NVA=   116 NVB=   116
 Symmetrizing basis deriv contribution to polar:
 IMax=3 JMax=2 DiffMx= 0.00D+00
 G2DrvN: will do    17 centers at a time, making    1 passes.
 Calling FoFCou, ICntrl=  3107 FMM=F I1Cent=   0 AccDes= 0.00D+00.
 NEqPCM:  Using equilibrium solvation (IEInf=0, Eps=  78.3553, EpsInf=   1.7778)
 G2PCM: DoFxE=T DoFxN=T DoGrad=T DoDP/DQ/DG/TGxP=FFFF NFrqRd=   0 IEInf=0 SqF1=F DoCFld=F IF1Alg=4.
 End of G2Drv F.D. properties file   721 does not exist.
 End of G2Drv F.D. properties file   722 does not exist.
 End of G2Drv F.D. properties file   788 does not exist.
          IDoAtm=1111111111111111
 NEqPCM:  Using equilibrium solvation (IEInf=0, Eps=  78.3553, EpsInf=   1.7778)
          Differentiating once with respect to nuclear coordinates.
 Keep R1 ints in memory in canonical form, NReq=53316122.
          There are    51 degrees of freedom in the 1st order CPHF.  IDoFFX=6 NUNeed=     0.
     45 vectors produced by pass  0 Test12= 5.46D-15 1.96D-09 XBig12= 8.21D-02 7.64D-02.
 AX will form    45 AO Fock derivatives at one time.
     45 vectors produced by pass  1 Test12= 5.46D-15 1.96D-09 XBig12= 5.22D-03 1.32D-02.
     45 vectors produced by pass  2 Test12= 5.46D-15 1.96D-09 XBig12= 7.23D-05 1.99D-03.
     45 vectors produced by pass  3 Test12= 5.46D-15 1.96D-09 XBig12= 1.84D-07 8.85D-05.
     45 vectors produced by pass  4 Test12= 5.46D-15 1.96D-09 XBig12= 2.59D-10 3.57D-06.
     20 vectors produced by pass  5 Test12= 5.46D-15 1.96D-09 XBig12= 2.26D-13 7.98D-08.
      1 vectors produced by pass  6 Test12= 5.46D-15 1.96D-09 XBig12= 1.77D-16 2.75D-09.
 InvSVY:  IOpt=1 It=  1 EMax= 2.78D-16
 Solved reduced A of dimension   246 with    51 vectors.
 End of Minotr F.D. properties file   721 does not exist.
 End of Minotr F.D. properties file   722 does not exist.
 End of Minotr F.D. properties file   788 does not exist.

 **********************************************************************

            Population analysis using the SCF density.

 **********************************************************************

 Orbital symmetries:
       Occupied  (A) (A) (A) (A) (A) (A) (A) (A) (A) (A) (A) (A)
                 (A) (A) (A) (A) (A) (A) (A) (A) (A) (A) (A) (A)
       Virtual   (A) (A) (A) (A) (A) (A) (A) (A) (A) (A) (A) (A)
                 (A) (A) (A) (A) (A) (A) (A) (A) (A) (A) (A) (A)
                 (A) (A) (A) (A) (A) (A) (A) (A) (A) (A) (A) (A)
                 (A) (A) (A) (A) (A) (A) (A) (A) (A) (A) (A) (A)
                 (A) (A) (A) (A) (A) (A) (A) (A) (A) (A) (A) (A)
                 (A) (A) (A) (A) (A) (A) (A) (A) (A) (A) (A) (A)
                 (A) (A) (A) (A) (A) (A) (A) (A) (A) (A) (A) (A)
                 (A) (A) (A) (A) (A) (A) (A) (A) (A) (A) (A) (A)
                 (A) (A) (A) (A) (A) (A) (A) (A) (A) (A) (A) (A)
                 (A) (A) (A) (A) (A) (A) (A) (A)
 The electronic state is 1-A.
 Alpha  occ. eigenvalues --  -14.31573 -14.31573 -10.19989 -10.19988 -10.19970
 Alpha  occ. eigenvalues --  -10.19969  -0.92208  -0.86811  -0.74890  -0.65636
 Alpha  occ. eigenvalues --   -0.62698  -0.58510  -0.49584  -0.44923  -0.44896
 Alpha  occ. eigenvalues --   -0.44197  -0.41763  -0.38500  -0.37460  -0.34919
 Alpha  occ. eigenvalues --   -0.33503  -0.32906  -0.26184  -0.19533
 Alpha virt. eigenvalues --    0.08851   0.10292   0.13591   0.13679   0.15069
 Alpha virt. eigenvalues --    0.16048   0.17504   0.17515   0.18621   0.18643
 Alpha virt. eigenvalues --    0.20366   0.24083   0.24561   0.26842   0.28822
 Alpha virt. eigenvalues --    0.29009   0.53092   0.53928   0.53966   0.55864
 Alpha virt. eigenvalues --    0.57463   0.59429   0.59846   0.64144   0.64918
 Alpha virt. eigenvalues --    0.65206   0.73479   0.77062   0.78451   0.78837
 Alpha virt. eigenvalues --    0.80134   0.82104   0.83582   0.84926   0.89452
 Alpha virt. eigenvalues --    0.89520   0.89700   0.91417   0.93400   0.93693
 Alpha virt. eigenvalues --    0.95219   0.97760   1.02880   1.06271   1.22220
 Alpha virt. eigenvalues --    1.28341   1.31766   1.37961   1.38185   1.40009
 Alpha virt. eigenvalues --    1.41469   1.49696   1.59287   1.63989   1.64642
 Alpha virt. eigenvalues --    1.74358   1.77242   1.81238   1.85482   1.89227
 Alpha virt. eigenvalues --    1.91938   1.91949   1.94167   1.98364   1.98955
 Alpha virt. eigenvalues --    1.99531   2.05870   2.10435   2.13239   2.17654
 Alpha virt. eigenvalues --    2.17908   2.18837   2.20155   2.20438   2.30376
 Alpha virt. eigenvalues --    2.30598   2.30808   2.36884   2.37593   2.39361
 Alpha virt. eigenvalues --    2.44107   2.46749   2.50476   2.52605   2.53038
 Alpha virt. eigenvalues --    2.59924   2.61738   2.65534   2.66563   2.70085
 Alpha virt. eigenvalues --    2.73899   2.82066   2.84787   2.85365   2.85817
 Alpha virt. eigenvalues --    2.91053   2.91404   2.96365   2.96371   2.98674
 Alpha virt. eigenvalues --    3.20886   3.28091   3.29548   3.32883   3.33590
 Alpha virt. eigenvalues --    3.40635   3.46384   3.51639   3.55168   3.58482
 Alpha virt. eigenvalues --    4.05583   4.08905   4.38894   4.52645   4.64283
 Alpha virt. eigenvalues --    4.71343
          Condensed to atoms (all electrons):
               1          2          3          4          5          6
     1  N    6.805680   0.328562  -0.061666  -0.009461  -0.061667   0.328562
     2  C    0.328562   4.903040   0.351721  -0.061666  -0.011291  -0.053246
     3  C   -0.061666   0.351721   4.903042   0.328561  -0.053246  -0.011290
     4  N   -0.009461  -0.061666   0.328561   6.805681   0.328562  -0.061666
     5  C   -0.061667  -0.011291  -0.053246   0.328562   4.903044   0.351722
     6  C    0.328562  -0.053246  -0.011290  -0.061666   0.351722   4.903043
     7  H    0.339620  -0.044015  -0.004114  -0.000512  -0.004115  -0.044014
     8  H   -0.036069   0.365455  -0.036157   0.004691   0.000057   0.005420
     9  H   -0.044743   0.380647  -0.049184  -0.001797  -0.001660  -0.005189
    10  H    0.004691  -0.036156   0.365455  -0.036069   0.005420   0.000057
    11  H   -0.001797  -0.049184   0.380647  -0.044743  -0.005189  -0.001660
    12  H   -0.000512  -0.004114  -0.044015   0.339619  -0.044014  -0.004115
    13  H   -0.001797  -0.001660  -0.005189  -0.044741   0.380647  -0.049186
    14  H    0.004691   0.000057   0.005420  -0.036070   0.365455  -0.036157
    15  H   -0.036069   0.005420   0.000057   0.004691  -0.036156   0.365455
    16  H   -0.044740  -0.005189  -0.001660  -0.001797  -0.049186   0.380647
               7          8          9         10         11         12
     1  N    0.339620  -0.036069  -0.044743   0.004691  -0.001797  -0.000512
     2  C   -0.044015   0.365455   0.380647  -0.036156  -0.049184  -0.004114
     3  C   -0.004114  -0.036157  -0.049184   0.365455   0.380647  -0.044015
     4  N   -0.000512   0.004691  -0.001797  -0.036069  -0.044743   0.339619
     5  C   -0.004115   0.000057  -0.001660   0.005420  -0.005189  -0.044014
     6  C   -0.044014   0.005420  -0.005189   0.000057  -0.001660  -0.004115
     7  H    0.496113  -0.004641   0.006924  -0.000018   0.004788   0.000211
     8  H   -0.004641   0.635174  -0.030852   0.001348  -0.002029  -0.000018
     9  H    0.006924  -0.030852   0.626284  -0.002029   0.005697   0.004788
    10  H   -0.000018   0.001348  -0.002029   0.635174  -0.030853  -0.004641
    11  H    0.004788  -0.002029   0.005697  -0.030853   0.626285   0.006924
    12  H    0.000211  -0.000018   0.004788  -0.004641   0.006924   0.496115
    13  H    0.004788   0.000052   0.000235   0.000099   0.006675   0.006924
    14  H   -0.000018   0.000023   0.000052  -0.000168   0.000099  -0.004641
    15  H   -0.004641  -0.000168   0.000099   0.000023   0.000052  -0.000018
    16  H    0.006924   0.000099   0.006675   0.000052   0.000235   0.004788
              13         14         15         16
     1  N   -0.001797   0.004691  -0.036069  -0.044740
     2  C   -0.001660   0.000057   0.005420  -0.005189
     3  C   -0.005189   0.005420   0.000057  -0.001660
     4  N   -0.044741  -0.036070   0.004691  -0.001797
     5  C    0.380647   0.365455  -0.036156  -0.049186
     6  C   -0.049186  -0.036157   0.365455   0.380647
     7  H    0.004788  -0.000018  -0.004641   0.006924
     8  H    0.000052   0.000023  -0.000168   0.000099
     9  H    0.000235   0.000052   0.000099   0.006675
    10  H    0.000099  -0.000168   0.000023   0.000052
    11  H    0.006675   0.000099   0.000052   0.000235
    12  H    0.006924  -0.004641  -0.000018   0.004788
    13  H    0.626285  -0.030852  -0.002029   0.005697
    14  H   -0.030852   0.635175   0.001348  -0.002029
    15  H   -0.002029   0.001348   0.635174  -0.030852
    16  H    0.005697  -0.002029  -0.030852   0.626285
 Mulliken charges:
               1
     1  N   -0.513286
     2  C   -0.068383
     3  C   -0.068383
     4  N   -0.513286
     5  C   -0.068383
     6  C   -0.068383
     7  H    0.246717
     8  H    0.097614
     9  H    0.104054
    10  H    0.097614
    11  H    0.104053
    12  H    0.246716
    13  H    0.104052
    14  H    0.097614
    15  H    0.097615
    16  H    0.104053
 Sum of Mulliken charges =  -0.00000
 Mulliken charges with hydrogens summed into heavy atoms:
               1
     1  N   -0.266569
     2  C    0.133285
     3  C    0.133285
     4  N   -0.266569
     5  C    0.133284
     6  C    0.133285
 APT charges:
               1
     1  N   -0.606442
     2  C   -0.719510
     3  C   -0.719511
     4  N   -0.606442
     5  C   -0.719506
     6  C   -0.719504
     7  H    0.454120
     8  H    0.449833
     9  H    0.345837
    10  H    0.449835
    11  H    0.345839
    12  H    0.454120
    13  H    0.345837
    14  H    0.449828
    15  H    0.449832
    16  H    0.345837
 Sum of APT charges =  -0.00000
 APT charges with hydrogens summed into heavy atoms:
               1
     1  N   -0.152322
     2  C    0.076159
     3  C    0.076162
     4  N   -0.152323
     5  C    0.076158
     6  C    0.076165
 Electronic spatial extent (au):  <R**2>=            541.0155
 Charge=             -0.0000 electrons
 Dipole moment (field-independent basis, Debye):
    X=              0.0000    Y=             -0.0000    Z=              0.0000  Tot=              0.0000
 Quadrupole moment (field-independent basis, Debye-Ang):
   XX=            -35.2348   YY=            -47.1881   ZZ=            -34.3725
   XY=              0.0006   XZ=             -0.0001   YZ=              3.0543
 Traceless Quadrupole moment (field-independent basis, Debye-Ang):
   XX=              3.6970   YY=             -8.2563   ZZ=              4.5593
   XY=              0.0006   XZ=             -0.0001   YZ=              3.0543
 Octapole moment (field-independent basis, Debye-Ang**2):
  XXX=             -0.0000  YYY=              0.0000  ZZZ=             -0.0000  XYY=             -0.0001
  XXY=             -0.0000  XXZ=              0.0000  XZZ=              0.0001  YZZ=             -0.0000
  YYZ=              0.0001  XYZ=              0.0001
 Hexadecapole moment (field-independent basis, Debye-Ang**3):
 XXXX=           -313.3205 YYYY=           -362.3002 ZZZZ=            -80.3148 XXXY=             -0.0006
 XXXZ=             -0.0003 YYYX=              0.0032 YYYZ=             12.4677 ZZZX=             -0.0003
 ZZZY=              7.8728 XXYY=            -99.7472 XXZZ=            -67.6840 YYZZ=            -58.8990
 XXYZ=              3.0957 YYXZ=             -0.0003 ZZXY=             -0.0003
 N-N= 2.609592932538D+02 E-N=-1.143625135155D+03  KE= 2.653664342167D+02
  Exact polarizability:   0.000   0.000   0.000   0.000   0.000   0.000
 Approx polarizability:  79.964   0.000  69.648  -0.000   3.976  77.056
 D2PCM: PCM CHGder 2nd derivatives, FixD1E=F FixD2E=F DoIter=F DoCFld=F I1PDM=0
 Calling FoFJK, ICntrl=    100147 FMM=F ISym2X=0 I1Cent= 0 IOpClX= 0 NMat=1 NMatS=1 NMatT=0.
 ***** Axes restored to original set *****
 -------------------------------------------------------------------
 Center     Atomic                   Forces (Hartrees/Bohr)
 Number     Number              X              Y              Z
 -------------------------------------------------------------------
      1        7          -0.000582607   -0.000452872   -0.006879919
      2        6          -0.002646184   -0.004394841    0.009125608
      3        6          -0.005124160    0.003545791   -0.008410868
      4        7           0.000582027    0.000454519    0.006876508
      5        6           0.002647766    0.004393348   -0.009124219
      6        6           0.005123969   -0.003546137    0.008411362
      7        1          -0.000113753    0.000828607   -0.000259238
      8        1          -0.000833723    0.001275244    0.000503803
      9        1           0.002178629    0.000151279   -0.001107643
     10        1          -0.000617301   -0.001432618   -0.000370536
     11        1           0.002324065    0.000340469    0.000693426
     12        1           0.000114739   -0.000829331    0.000261206
     13        1          -0.002180379   -0.000153729    0.001105427
     14        1           0.000834507   -0.001275705   -0.000503017
     15        1           0.000618723    0.001433256    0.000370130
     16        1          -0.002326317   -0.000337281   -0.000692030
 -------------------------------------------------------------------
 Cartesian Forces:  Max     0.009125608 RMS     0.003445562
 FormGI is forming the generalized inverse of G from B-inverse, IUseBI=4.

 GradGradGradGradGradGradGradGradGradGradGradGradGradGradGradGradGradGrad
 Berny optimization.
 Internal  Forces:  Max     0.002998473 RMS     0.001202634
 Search for a local minimum.
 Step number   1 out of a maximum of   98
 All quantities printed in internal units (Hartrees-Bohrs-Radians)
 Mixed Optimization -- RFO/linear search
 Second derivative matrix not updated -- analytic derivatives used.
 ITU=  0
     Eigenvalues ---    0.00512   0.00591   0.00594   0.01983   0.02014
     Eigenvalues ---    0.03303   0.04227   0.04336   0.04380   0.04522
     Eigenvalues ---    0.04756   0.05876   0.06112   0.06975   0.07213
     Eigenvalues ---    0.08109   0.08589   0.08633   0.08667   0.08742
     Eigenvalues ---    0.10065   0.10463   0.12092   0.19615   0.19652
     Eigenvalues ---    0.22443   0.24782   0.25566   0.27286   0.27694
     Eigenvalues ---    0.31289   0.32090   0.32931   0.33032   0.33062
     Eigenvalues ---    0.33127   0.33819   0.34056   0.34080   0.35383
     Eigenvalues ---    0.43057   0.43078
 RFO step:  Lambda=-1.73566147D-03 EMin= 5.12276717D-03
 Linear search not attempted -- first point.
 Iteration  1 RMS(Cart)=  0.01436955 RMS(Int)=  0.00034800
 Iteration  2 RMS(Cart)=  0.00033085 RMS(Int)=  0.00017021
 Iteration  3 RMS(Cart)=  0.00000003 RMS(Int)=  0.00017021
 Variable       Old X    -DE/DX   Delta X   Delta X   Delta X     New X
                                 (Linear)    (Quad)   (Total)
    R1        2.78455   0.00053   0.00000  -0.00189  -0.00189   2.78266
    R2        2.78455   0.00053   0.00000  -0.00189  -0.00189   2.78266
    R3        1.92928  -0.00048   0.00000  -0.00101  -0.00101   1.92827
    R4        2.91750  -0.00266   0.00000  -0.01339  -0.01339   2.90411
    R5        2.07036   0.00126   0.00000   0.00180   0.00180   2.07215
    R6        2.07317   0.00066   0.00000   0.00445   0.00445   2.07762
    R7        2.78455   0.00053   0.00000  -0.00189  -0.00189   2.78266
    R8        2.07036   0.00126   0.00000   0.00179   0.00179   2.07215
    R9        2.07317   0.00066   0.00000   0.00444   0.00444   2.07762
   R10        2.78455   0.00053   0.00000  -0.00189  -0.00189   2.78266
   R11        1.92929  -0.00048   0.00000  -0.00102  -0.00102   1.92827
   R12        2.91749  -0.00266   0.00000  -0.01337  -0.01337   2.90411
   R13        2.07318   0.00066   0.00000   0.00444   0.00444   2.07762
   R14        2.07035   0.00126   0.00000   0.00180   0.00180   2.07215
   R15        2.07036   0.00126   0.00000   0.00180   0.00180   2.07215
   R16        2.07317   0.00066   0.00000   0.00444   0.00444   2.07762
    A1        1.90983   0.00224   0.00000   0.02767   0.02763   1.93747
    A2        1.87935  -0.00062   0.00000   0.00639   0.00594   1.88529
    A3        1.87935  -0.00062   0.00000   0.00639   0.00594   1.88529
    A4        1.97160  -0.00003   0.00000   0.00489   0.00439   1.97599
    A5        1.89728   0.00030   0.00000   0.00091   0.00067   1.89795
    A6        1.90468  -0.00152   0.00000  -0.02400  -0.02392   1.88076
    A7        1.90773   0.00161   0.00000   0.02354   0.02363   1.93136
    A8        1.91701  -0.00076   0.00000  -0.01308  -0.01319   1.90383
    A9        1.86225   0.00043   0.00000   0.00811   0.00813   1.87038
   A10        1.97160  -0.00002   0.00000   0.00489   0.00439   1.97599
   A11        1.90774   0.00161   0.00000   0.02354   0.02363   1.93137
   A12        1.91701  -0.00076   0.00000  -0.01308  -0.01318   1.90383
   A13        1.89728   0.00030   0.00000   0.00091   0.00067   1.89795
   A14        1.90468  -0.00153   0.00000  -0.02400  -0.02392   1.88075
   A15        1.86225   0.00043   0.00000   0.00812   0.00814   1.87038
   A16        1.90984   0.00224   0.00000   0.02767   0.02763   1.93747
   A17        1.87935  -0.00062   0.00000   0.00639   0.00594   1.88529
   A18        1.87935  -0.00062   0.00000   0.00639   0.00594   1.88529
   A19        1.97160  -0.00003   0.00000   0.00489   0.00439   1.97599
   A20        1.90470  -0.00153   0.00000  -0.02403  -0.02394   1.88076
   A21        1.89727   0.00030   0.00000   0.00092   0.00068   1.89795
   A22        1.91700  -0.00076   0.00000  -0.01306  -0.01317   1.90383
   A23        1.90773   0.00162   0.00000   0.02355   0.02364   1.93136
   A24        1.86226   0.00043   0.00000   0.00811   0.00813   1.87039
   A25        1.97160  -0.00002   0.00000   0.00490   0.00439   1.97599
   A26        1.89727   0.00030   0.00000   0.00092   0.00067   1.89795
   A27        1.90471  -0.00153   0.00000  -0.02403  -0.02395   1.88076
   A28        1.90774   0.00161   0.00000   0.02354   0.02363   1.93136
   A29        1.91699  -0.00076   0.00000  -0.01306  -0.01316   1.90383
   A30        1.86225   0.00043   0.00000   0.00811   0.00813   1.87038
    D1        0.92886  -0.00172   0.00000  -0.03212  -0.03216   0.89670
    D2        3.04950   0.00052   0.00000   0.00162   0.00149   3.05099
    D3       -1.20890   0.00037   0.00000  -0.00132  -0.00142  -1.21032
    D4       -1.10913  -0.00184   0.00000  -0.05806  -0.05810  -1.16722
    D5        1.01151   0.00041   0.00000  -0.02432  -0.02444   0.98707
    D6        3.03630   0.00026   0.00000  -0.02727  -0.02735   3.00895
    D7       -0.92886   0.00172   0.00000   0.03212   0.03217  -0.89670
    D8       -3.04950  -0.00052   0.00000  -0.00162  -0.00149  -3.05099
    D9        1.20888  -0.00037   0.00000   0.00134   0.00143   1.21032
   D10        1.10912   0.00184   0.00000   0.05806   0.05810   1.16722
   D11       -1.01152  -0.00041   0.00000   0.02432   0.02445  -0.98707
   D12       -3.03631  -0.00026   0.00000   0.02728   0.02737  -3.00895
   D13       -0.96203   0.00300   0.00000   0.04546   0.04534  -0.91669
   D14       -3.07676   0.00149   0.00000   0.02440   0.02427  -3.05249
   D15        1.16882   0.00046   0.00000   0.00844   0.00837   1.17719
   D16       -3.07676   0.00149   0.00000   0.02440   0.02427  -3.05249
   D17        1.09169  -0.00003   0.00000   0.00334   0.00320   1.09490
   D18       -0.94591  -0.00105   0.00000  -0.01262  -0.01270  -0.95860
   D19        1.16882   0.00046   0.00000   0.00844   0.00838   1.17720
   D20       -0.94591  -0.00105   0.00000  -0.01262  -0.01269  -0.95860
   D21       -2.98351  -0.00207   0.00000  -0.02858  -0.02859  -3.01210
   D22        0.92885  -0.00172   0.00000  -0.03211  -0.03215   0.89669
   D23       -1.10914  -0.00184   0.00000  -0.05805  -0.05809  -1.16723
   D24        3.04950   0.00052   0.00000   0.00162   0.00149   3.05099
   D25        1.01151   0.00041   0.00000  -0.02433  -0.02445   0.98707
   D26       -1.20891   0.00037   0.00000  -0.00131  -0.00141  -1.21032
   D27        3.03629   0.00026   0.00000  -0.02726  -0.02735   3.00894
   D28       -0.92885   0.00173   0.00000   0.03211   0.03216  -0.89669
   D29        1.20890  -0.00037   0.00000   0.00132   0.00142   1.21032
   D30       -3.04948  -0.00052   0.00000  -0.00163  -0.00151  -3.05099
   D31        1.10913   0.00184   0.00000   0.05806   0.05810   1.16723
   D32       -3.03630  -0.00026   0.00000   0.02727   0.02736  -3.00894
   D33       -1.01150  -0.00041   0.00000   0.02431   0.02443  -0.98706
   D34        0.96204  -0.00300   0.00000  -0.04547  -0.04535   0.91669
   D35        3.07676  -0.00149   0.00000  -0.02440  -0.02427   3.05249
   D36       -1.16883  -0.00046   0.00000  -0.00843  -0.00836  -1.17720
   D37       -1.16883  -0.00046   0.00000  -0.00843  -0.00836  -1.17720
   D38        0.94589   0.00105   0.00000   0.01264   0.01271   0.95860
   D39        2.98348   0.00207   0.00000   0.02861   0.02862   3.01210
   D40        3.07675  -0.00149   0.00000  -0.02439  -0.02426   3.05249
   D41       -1.09171   0.00003   0.00000  -0.00332  -0.00318  -1.09490
   D42        0.94588   0.00105   0.00000   0.01265   0.01272   0.95860
         Item               Value     Threshold  Converged?
 Maximum Force            0.002998     0.000450     NO 
 RMS     Force            0.001203     0.000300     NO 
 Maximum Displacement     0.056683     0.001800     NO 
 RMS     Displacement     0.014334     0.001200     NO 
 Predicted change in Energy=-9.023587D-04
 GradGradGradGradGradGradGradGradGradGradGradGradGradGradGradGradGradGrad

                          Input orientation:                          
 ---------------------------------------------------------------------
 Center     Atomic      Atomic             Coordinates (Angstroms)
 Number     Number       Type             X           Y           Z
 ---------------------------------------------------------------------
      1          7           0       -0.092625    1.347931    0.593681
      2          6           0       -1.284969    0.632676    0.108862
      3          6           0       -1.117915   -0.895003    0.111850
      4          7           0        0.092625   -1.347932   -0.593679
      5          6           0        1.284969   -0.632676   -0.108862
      6          6           0        1.117914    0.895004   -0.111849
      7          1           0        0.021659    1.135242    1.585100
      8          1           0       -2.146155    0.928870    0.719615
      9          1           0       -1.484094    0.970449   -0.918271
     10          1           0       -1.991319   -1.380566   -0.339578
     11          1           0       -1.051892   -1.247307    1.151209
     12          1           0       -0.021658   -1.135246   -1.585098
     13          1           0        1.484098   -0.970449    0.918270
     14          1           0        2.146153   -0.928869   -0.719618
     15          1           0        1.991318    1.380566    0.339578
     16          1           0        1.051890    1.247308   -1.151208
 ---------------------------------------------------------------------
                    Distance matrix (angstroms):
                    1          2          3          4          5
     1  N    0.000000
     2  C    1.472522   0.000000
     3  C    2.512794   1.536789   0.000000
     4  N    2.951579   2.512795   1.472523   0.000000
     5  C    2.512795   2.872821   2.427217   1.472522   0.000000
     6  C    1.472522   2.427216   2.872821   2.512795   1.536789
     7  H    1.020397   2.034485   2.755175   3.304280   2.755176
     8  H    2.099632   1.096536   2.180177   3.452638   3.859717
     9  H    2.089181   1.099429   2.162209   2.822463   3.300434
    10  H    3.452637   2.180177   1.096536   2.099632   3.368476
    11  H    2.822462   2.162209   1.099429   2.089181   2.725155
    12  H    3.304283   2.755177   2.034485   1.020397   2.034484
    13  H    2.822464   3.300437   2.725157   2.089182   1.099429
    14  H    3.452637   3.859715   3.368476   2.099631   1.096536
    15  H    2.099632   3.368475   3.859716   3.452638   2.180177
    16  H    2.089181   2.725153   3.300434   2.822463   2.162210
                    6          7          8          9         10
     6  C    0.000000
     7  H    2.034484   0.000000
     8  H    3.368475   2.343303   0.000000
     9  H    2.725153   2.925973   1.767123   0.000000
    10  H    3.859716   3.753099   2.545459   2.473750   0.000000
    11  H    3.300435   2.649021   2.473748   3.063982   1.767123
    12  H    2.755177   3.899634   3.753101   2.649024   2.343302
    13  H    2.162210   2.649024   4.101904   3.993762   3.718723
    14  H    2.180177   3.753100   4.893516   4.101898   4.179370
    15  H    1.096536   2.343302   4.179371   3.718719   4.893516
    16  H    1.099429   2.925973   3.718719   2.561665   4.101900
                   11         12         13         14         15
    11  H    0.000000
    12  H    2.925972   0.000000
    13  H    2.561671   2.925973   0.000000
    14  H    3.718722   2.343300   1.767123   0.000000
    15  H    4.101901   3.753101   2.473748   2.545459   0.000000
    16  H    3.993761   2.649025   3.063983   2.473747   1.767123
                   16
    16  H    0.000000
 Stoichiometry    C4H10N2
 Framework group  C1[X(C4H10N2)]
 Deg. of freedom    42
 Full point group                 C1      NOp   1
 Largest Abelian subgroup         C1      NOp   1
 Largest concise Abelian subgroup C1      NOp   1
                         Standard orientation:                         
 ---------------------------------------------------------------------
 Center     Atomic      Atomic             Coordinates (Angstroms)
 Number     Number       Type             X           Y           Z
 ---------------------------------------------------------------------
      1          7           0       -0.000003   -1.465578   -0.173304
      2          6           0       -1.213609   -0.734054    0.227138
      3          6           0       -1.213607    0.734058   -0.227138
      4          7           0        0.000003    1.465579    0.173302
      5          6           0        1.213610    0.734054   -0.227137
      6          6           0        1.213606   -0.734059    0.227138
      7          1           0       -0.000003   -1.544043   -1.190679
      8          1           0       -2.089688   -1.261496   -0.168694
      9          1           0       -1.280834   -0.770914    1.323891
     10          1           0       -2.089683    1.261504    0.168695
     11          1           0       -1.280833    0.770918   -1.323890
     12          1           0        0.000003    1.544046    1.190677
     13          1           0        1.280838    0.770914   -1.323890
     14          1           0        2.089687    1.261495    0.168698
     15          1           0        2.089682   -1.261504   -0.168695
     16          1           0        1.280831   -0.770919    1.323890
 ---------------------------------------------------------------------
 Rotational constants (GHZ):           4.6678923           4.4727226           2.5976553
 Standard basis: 6-31G(d,p) (6D, 7F)
 There are   140 symmetry adapted cartesian basis functions of A   symmetry.
 There are   140 symmetry adapted basis functions of A   symmetry.
   140 basis functions,   238 primitive gaussians,   140 cartesian basis functions
    24 alpha electrons       24 beta electrons
       nuclear repulsion energy       260.9107739543 Hartrees.
 NAtoms=   16 NActive=   16 NUniq=   16 SFac= 1.00D+00 NAtFMM=   60 NAOKFM=F Big=F
 Integral buffers will be    131072 words long.
 Raffenetti 2 integral format.
 Two-electron integral symmetry is turned on.
 ------------------------------------------------------------------------------
 Polarizable Continuum Model (PCM)
 =================================
 Model                : PCM.
 Atomic radii         : UFF (Universal Force Field).
 Polarization charges : Total charges.
 Charge compensation  : None.
 Solution method      : Matrix inversion.
 Cavity type          : Scaled VdW (van der Waals Surface) (Alpha=1.100).
 Cavity algorithm     : GePol (No added spheres)
                        Default sphere list used, NSphG=   16.
                        Lebedev-Laikov grids with approx.  5.0 points / Ang**2.
                        Smoothing algorithm: York/Karplus (Gamma=1.0000).
                        Polarization charges: spherical gaussians, with
                                              point-specific exponents (IZeta= 3).
                        Self-potential: point-specific (ISelfS= 7).
                        Self-field    : sphere-specific E.n sum rule (ISelfD= 2).
 1st derivatives      : Analytical E(r).r(x)/FMM algorithm (CHGder, D1EAlg=3).
                        Cavity 1st derivative terms included.
 Solvent              : Water, Eps=  78.355300 Eps(inf)=   1.777849
 ------------------------------------------------------------------------------
 Spheres list:
 ISph  on   Nord     Re0    Alpha      Xe            Ye            Ze
    1   N      1    1.8300  1.100     -0.000003     -1.465578     -0.173304
    2   C      2    1.9255  1.100     -1.213609     -0.734054      0.227138
    3   C      3    1.9255  1.100     -1.213607      0.734058     -0.227138
    4   N      4    1.8300  1.100      0.000003      1.465579      0.173302
    5   C      5    1.9255  1.100      1.213610      0.734054     -0.227137
    6   C      6    1.9255  1.100      1.213606     -0.734059      0.227138
    7   H      7    1.4430  1.100     -0.000003     -1.544043     -1.190679
    8   H      8    1.4430  1.100     -2.089688     -1.261496     -0.168694
    9   H      9    1.4430  1.100     -1.280834     -0.770914      1.323891
   10   H     10    1.4430  1.100     -2.089683      1.261504      0.168695
   11   H     11    1.4430  1.100     -1.280833      0.770918     -1.323890
   12   H     12    1.4430  1.100      0.000003      1.544046      1.190677
   13   H     13    1.4430  1.100      1.280838      0.770914     -1.323890
   14   H     14    1.4430  1.100      2.089687      1.261495      0.168698
   15   H     15    1.4430  1.100      2.089682     -1.261504     -0.168695
   16   H     16    1.4430  1.100      1.280831     -0.770919      1.323890
 ------------------------------------------------------------------------------
 One-electron integrals computed using PRISM.
 NBasis=   140 RedAO= T EigKep=  3.95D-03  NBF=   140
 NBsUse=   140 1.00D-06 EigRej= -1.00D+00 NBFU=   140
 Initial guess from the checkpoint file:  "GLUUGHFHXGJENI-UHFFFAOYSA-N_conf_0_0.chk"
 B after Tr=     0.000000    0.000000   -0.000000
         Rot=    0.999999    0.001377    0.000000    0.000025 Ang=   0.16 deg.
 ExpMin= 1.61D-01 ExpMax= 4.17D+03 ExpMxC= 6.27D+02 IAcc=2 IRadAn=         4 AccDes= 0.00D+00
 Harris functional with IExCor=  402 and IRadAn=       4 diagonalized for initial guess.
 HarFok:  IExCor=  402 AccDes= 0.00D+00 IRadAn=         4 IDoV= 1 UseB2=F ITyADJ=14
 ICtDFT=  3500011 ScaDFX=  1.000000  1.000000  1.000000  1.000000
 FoFCou: FMM=F IPFlag=           0 FMFlag=      100000 FMFlg1=           0
         NFxFlg=           0 DoJE=T BraDBF=F KetDBF=T FulRan=T
         wScrn=  0.000000 ICntrl=       500 IOpCl=  0 I1Cent=   200000004 NGrid=           0
         NMat0=    1 NMatS0=      1 NMatT0=    0 NMatD0=    1 NMtDS0=    0 NMtDT0=    0
 Petite list used in FoFCou.
 Keep R1 ints in memory in canonical form, NReq=50648669.
 Requested convergence on RMS density matrix=1.00D-08 within  32 cycles.
 Requested convergence on MAX density matrix=1.00D-06.
 Requested convergence on             energy=1.00D-06.
 No special actions if energy rises.
 Inv3:  Mode=1 IEnd=     4092672.
 Iteration    1 A*A^-1 deviation from unit magnitude is 2.66D-15 for    189.
 Iteration    1 A*A^-1 deviation from orthogonality  is 1.47D-15 for   1122    549.
 Iteration    1 A^-1*A deviation from unit magnitude is 2.66D-15 for    189.
 Iteration    1 A^-1*A deviation from orthogonality  is 2.22D-15 for    912    151.
 Error on total polarization charges =  0.00804
 SCF Done:  E(RB3LYP) =  -267.949813049     A.U. after    8 cycles
            NFock=  8  Conv=0.66D-08     -V/T= 2.0097
 QCSCF skips out because SCF is already converged.
 D1PCM: PCM CHGder 1st derivatives, ID1Alg=3 FixD1E=F DoIter=F DoCFld=F I1PDM=0.
 Calling FoFJK, ICntrl=      2127 FMM=F ISym2X=0 I1Cent= 0 IOpClX= 0 NMat=1 NMatS=1 NMatT=0.
 ***** Axes restored to original set *****
 -------------------------------------------------------------------
 Center     Atomic                   Forces (Hartrees/Bohr)
 Number     Number              X              Y              Z
 -------------------------------------------------------------------
      1        7          -0.000016773   -0.000063236   -0.000256925
      2        6          -0.000106910   -0.000027853    0.000392789
      3        6          -0.000179193   -0.000003516   -0.000366434
      4        7           0.000016618    0.000063343    0.000256820
      5        6           0.000106926    0.000028013   -0.000392828
      6        6           0.000179341    0.000003270    0.000366581
      7        1          -0.000019901    0.000225670    0.000051515
      8        1          -0.000004218   -0.000006352    0.000020617
      9        1          -0.000021019    0.000060187   -0.000023086
     10        1          -0.000009130    0.000004936   -0.000019409
     11        1          -0.000003149   -0.000062821    0.000025312
     12        1           0.000019868   -0.000225678   -0.000051517
     13        1           0.000020985   -0.000060187    0.000023045
     14        1           0.000004258    0.000006302   -0.000020538
     15        1           0.000009167   -0.000004919    0.000019348
     16        1           0.000003131    0.000062840   -0.000025289
 -------------------------------------------------------------------
 Cartesian Forces:  Max     0.000392828 RMS     0.000139551

 GradGradGradGradGradGradGradGradGradGradGradGradGradGradGradGradGradGrad
 Berny optimization.
 Using GEDIIS/GDIIS optimizer.
 FormGI is forming the generalized inverse of G from B-inverse, IUseBI=4.
 Internal  Forces:  Max     0.000128689 RMS     0.000058713
 Search for a local minimum.
 Step number   2 out of a maximum of   98
 All quantities printed in internal units (Hartrees-Bohrs-Radians)
 Mixed Optimization -- En-DIIS/RFO-DIIS
 Update second derivatives using D2CorX and points    1    2
 DE= -9.05D-04 DEPred=-9.02D-04 R= 1.00D+00
 TightC=F SS=  1.41D+00  RLast= 1.99D-01 DXNew= 5.0454D-01 5.9839D-01
 Trust test= 1.00D+00 RLast= 1.99D-01 DXMaxT set to 5.05D-01
 ITU=  1  0
 Use linear search instead of GDIIS.
     Eigenvalues ---    0.00512   0.00585   0.00594   0.01982   0.02008
     Eigenvalues ---    0.03302   0.04240   0.04336   0.04380   0.04522
     Eigenvalues ---    0.04755   0.05874   0.06104   0.06974   0.07219
     Eigenvalues ---    0.08107   0.08587   0.08632   0.08665   0.08740
     Eigenvalues ---    0.10062   0.10460   0.12091   0.19605   0.19653
     Eigenvalues ---    0.22441   0.24772   0.25654   0.27283   0.27692
     Eigenvalues ---    0.31288   0.32101   0.32931   0.33032   0.33078
     Eigenvalues ---    0.33127   0.33819   0.34056   0.34079   0.35320
     Eigenvalues ---    0.43057   0.43078
 RFO step:  Lambda=-1.12341014D-05 EMin= 5.12259737D-03
 Quartic linear search produced a step of  0.04891.
 Iteration  1 RMS(Cart)=  0.00368183 RMS(Int)=  0.00001521
 Iteration  2 RMS(Cart)=  0.00001038 RMS(Int)=  0.00001060
 Iteration  3 RMS(Cart)=  0.00000000 RMS(Int)=  0.00001060
 Variable       Old X    -DE/DX   Delta X   Delta X   Delta X     New X
                                 (Linear)    (Quad)   (Total)
    R1        2.78266   0.00013  -0.00009  -0.00033  -0.00043   2.78224
    R2        2.78266   0.00013  -0.00009  -0.00033  -0.00043   2.78224
    R3        1.92827  -0.00001  -0.00005  -0.00019  -0.00024   1.92803
    R4        2.90411   0.00013  -0.00065   0.00104   0.00038   2.90449
    R5        2.07215   0.00001   0.00009  -0.00013  -0.00004   2.07211
    R6        2.07762   0.00005   0.00022   0.00009   0.00031   2.07793
    R7        2.78266   0.00013  -0.00009  -0.00033  -0.00043   2.78224
    R8        2.07215   0.00001   0.00009  -0.00013  -0.00004   2.07211
    R9        2.07762   0.00005   0.00022   0.00009   0.00031   2.07793
   R10        2.78266   0.00013  -0.00009  -0.00033  -0.00043   2.78224
   R11        1.92827  -0.00001  -0.00005  -0.00019  -0.00024   1.92803
   R12        2.90411   0.00013  -0.00065   0.00103   0.00038   2.90449
   R13        2.07762   0.00005   0.00022   0.00009   0.00031   2.07793
   R14        2.07215   0.00001   0.00009  -0.00013  -0.00004   2.07211
   R15        2.07215   0.00001   0.00009  -0.00013  -0.00004   2.07211
   R16        2.07762   0.00005   0.00022   0.00009   0.00031   2.07793
    A1        1.93747   0.00003   0.00135   0.00088   0.00222   1.93969
    A2        1.88529   0.00001   0.00029   0.00172   0.00199   1.88728
    A3        1.88529   0.00001   0.00029   0.00172   0.00198   1.88728
    A4        1.97599   0.00003   0.00021   0.00125   0.00143   1.97742
    A5        1.89795   0.00001   0.00003  -0.00025  -0.00023   1.89772
    A6        1.88076  -0.00004  -0.00117   0.00068  -0.00048   1.88027
    A7        1.93136   0.00004   0.00116  -0.00149  -0.00032   1.93104
    A8        1.90383  -0.00004  -0.00064   0.00039  -0.00026   1.90357
    A9        1.87038  -0.00000   0.00040  -0.00063  -0.00023   1.87016
   A10        1.97599   0.00003   0.00021   0.00125   0.00143   1.97742
   A11        1.93137   0.00004   0.00116  -0.00149  -0.00032   1.93104
   A12        1.90383  -0.00004  -0.00064   0.00039  -0.00026   1.90357
   A13        1.89795   0.00001   0.00003  -0.00025  -0.00023   1.89772
   A14        1.88075  -0.00004  -0.00117   0.00068  -0.00048   1.88027
   A15        1.87038  -0.00000   0.00040  -0.00063  -0.00023   1.87016
   A16        1.93747   0.00003   0.00135   0.00088   0.00222   1.93969
   A17        1.88529   0.00001   0.00029   0.00172   0.00199   1.88728
   A18        1.88529   0.00001   0.00029   0.00172   0.00199   1.88728
   A19        1.97599   0.00003   0.00021   0.00125   0.00143   1.97742
   A20        1.88076  -0.00004  -0.00117   0.00068  -0.00048   1.88027
   A21        1.89795   0.00001   0.00003  -0.00025  -0.00023   1.89772
   A22        1.90383  -0.00004  -0.00064   0.00039  -0.00026   1.90357
   A23        1.93136   0.00004   0.00116  -0.00149  -0.00032   1.93104
   A24        1.87039  -0.00000   0.00040  -0.00063  -0.00023   1.87016
   A25        1.97599   0.00003   0.00021   0.00125   0.00143   1.97742
   A26        1.89795   0.00001   0.00003  -0.00025  -0.00023   1.89772
   A27        1.88076  -0.00004  -0.00117   0.00068  -0.00048   1.88027
   A28        1.93136   0.00004   0.00116  -0.00149  -0.00032   1.93104
   A29        1.90383  -0.00004  -0.00064   0.00039  -0.00026   1.90357
   A30        1.87038  -0.00000   0.00040  -0.00063  -0.00023   1.87016
    D1        0.89670  -0.00009  -0.00157  -0.00351  -0.00509   0.89161
    D2        3.05099  -0.00001   0.00007  -0.00475  -0.00468   3.04631
    D3       -1.21032  -0.00004  -0.00007  -0.00525  -0.00533  -1.21564
    D4       -1.16722  -0.00013  -0.00284  -0.00716  -0.01001  -1.17723
    D5        0.98707  -0.00005  -0.00120  -0.00840  -0.00960   0.97746
    D6        3.00895  -0.00007  -0.00134  -0.00891  -0.01025   2.99870
    D7       -0.89670   0.00009   0.00157   0.00351   0.00508  -0.89161
    D8       -3.05099   0.00001  -0.00007   0.00475   0.00468  -3.04631
    D9        1.21032   0.00004   0.00007   0.00525   0.00533   1.21564
   D10        1.16722   0.00013   0.00284   0.00716   0.01001   1.17723
   D11       -0.98707   0.00005   0.00120   0.00840   0.00960  -0.97746
   D12       -3.00895   0.00007   0.00134   0.00891   0.01025  -2.99869
   D13       -0.91669   0.00010   0.00222   0.00339   0.00560  -0.91109
   D14       -3.05249   0.00004   0.00119   0.00393   0.00511  -3.04738
   D15        1.17719   0.00004   0.00041   0.00534   0.00574   1.18294
   D16       -3.05249   0.00004   0.00119   0.00393   0.00511  -3.04738
   D17        1.09490  -0.00003   0.00016   0.00447   0.00463   1.09952
   D18       -0.95860  -0.00002  -0.00062   0.00588   0.00525  -0.95335
   D19        1.17720   0.00004   0.00041   0.00534   0.00574   1.18294
   D20       -0.95860  -0.00002  -0.00062   0.00588   0.00525  -0.95335
   D21       -3.01210  -0.00002  -0.00140   0.00728   0.00588  -3.00622
   D22        0.89669  -0.00009  -0.00157  -0.00351  -0.00508   0.89161
   D23       -1.16723  -0.00013  -0.00284  -0.00716  -0.01001  -1.17723
   D24        3.05099  -0.00001   0.00007  -0.00475  -0.00468   3.04631
   D25        0.98707  -0.00005  -0.00120  -0.00840  -0.00960   0.97746
   D26       -1.21032  -0.00004  -0.00007  -0.00525  -0.00532  -1.21565
   D27        3.00894  -0.00007  -0.00134  -0.00891  -0.01025   2.99869
   D28       -0.89669   0.00009   0.00157   0.00351   0.00508  -0.89161
   D29        1.21032   0.00004   0.00007   0.00525   0.00532   1.21565
   D30       -3.05099   0.00001  -0.00007   0.00474   0.00468  -3.04631
   D31        1.16723   0.00013   0.00284   0.00716   0.01000   1.17723
   D32       -3.00894   0.00007   0.00134   0.00890   0.01025  -2.99869
   D33       -0.98706   0.00005   0.00119   0.00840   0.00960  -0.97746
   D34        0.91669  -0.00010  -0.00222  -0.00339  -0.00560   0.91109
   D35        3.05249  -0.00004  -0.00119  -0.00393  -0.00511   3.04738
   D36       -1.17720  -0.00004  -0.00041  -0.00534  -0.00574  -1.18294
   D37       -1.17720  -0.00004  -0.00041  -0.00533  -0.00574  -1.18294
   D38        0.95860   0.00002   0.00062  -0.00587  -0.00525   0.95335
   D39        3.01210   0.00002   0.00140  -0.00728  -0.00587   3.00622
   D40        3.05249  -0.00004  -0.00119  -0.00393  -0.00511   3.04738
   D41       -1.09490   0.00003  -0.00016  -0.00447  -0.00462  -1.09952
   D42        0.95860   0.00002   0.00062  -0.00587  -0.00525   0.95335
         Item               Value     Threshold  Converged?
 Maximum Force            0.000129     0.000450     YES
 RMS     Force            0.000059     0.000300     YES
 Maximum Displacement     0.017730     0.001800     NO 
 RMS     Displacement     0.003682     0.001200     NO 
 Predicted change in Energy=-7.464822D-06
 GradGradGradGradGradGradGradGradGradGradGradGradGradGradGradGradGradGrad

                          Input orientation:                          
 ---------------------------------------------------------------------
 Center     Atomic      Atomic             Coordinates (Angstroms)
 Number     Number       Type             X           Y           Z
 ---------------------------------------------------------------------
      1          7           0       -0.092908    1.348966    0.591837
      2          6           0       -1.285607    0.632709    0.110069
      3          6           0       -1.118738   -0.895196    0.110777
      4          7           0        0.092908   -1.348967   -0.591837
      5          6           0        1.285607   -0.632709   -0.110069
      6          6           0        1.118738    0.895196   -0.110777
      7          1           0        0.020623    1.144625    1.584966
      8          1           0       -2.145293    0.927926    0.723364
      9          1           0       -1.487867    0.971479   -0.916298
     10          1           0       -1.991368   -1.379533   -0.343401
     11          1           0       -1.055647   -1.249159    1.149927
     12          1           0       -0.020622   -1.144625   -1.584965
     13          1           0        1.487867   -0.971479    0.916298
     14          1           0        2.145293   -0.927926   -0.723364
     15          1           0        1.991368    1.379534    0.343400
     16          1           0        1.055646    1.249159   -1.149927
 ---------------------------------------------------------------------
                    Distance matrix (angstroms):
                    1          2          3          4          5
     1  N    0.000000
     2  C    1.472297   0.000000
     3  C    2.513963   1.536990   0.000000
     4  N    2.952025   2.513964   1.472297   0.000000
     5  C    2.513963   2.874176   2.428693   1.472297   0.000000
     6  C    1.472297   2.428693   2.874176   2.513964   1.536990
     7  H    1.020269   2.035587   2.762652   3.310844   2.762652
     8  H    2.099252   1.096514   2.180104   3.453047   3.860216
     9  H    2.088751   1.099593   2.162317   2.826409   3.303874
    10  H    3.453047   2.180104   1.096514   2.099252   3.369089
    11  H    2.826409   2.162317   1.099593   2.088751   2.729299
    12  H    3.310845   2.762652   2.035587   1.020269   2.035587
    13  H    2.826409   3.303874   2.729299   2.088751   1.099593
    14  H    3.453047   3.860216   3.369089   2.099252   1.096514
    15  H    2.099252   3.369089   3.860216   3.453047   2.180104
    16  H    2.088751   2.729299   3.303874   2.826409   2.162317
                    6          7          8          9         10
     6  C    0.000000
     7  H    2.035587   0.000000
     8  H    3.369089   2.341048   0.000000
     9  H    2.729299   2.926062   1.767088   0.000000
    10  H    3.860216   3.760063   2.546772   2.471636   0.000000
    11  H    3.303874   2.660416   2.471636   3.063876   1.767088
    12  H    2.762652   3.910349   3.760064   2.660417   2.341048
    13  H    2.162317   2.660416   4.104243   3.998560   3.722691
    14  H    2.180104   3.760063   4.893499   4.104243   4.178551
    15  H    1.096514   2.341048   4.178551   3.722690   4.893499
    16  H    1.099593   2.926062   3.722690   2.569270   4.104243
                   11         12         13         14         15
    11  H    0.000000
    12  H    2.926062   0.000000
    13  H    2.569271   2.926062   0.000000
    14  H    3.722691   2.341048   1.767088   0.000000
    15  H    4.104243   3.760064   2.471636   2.546772   0.000000
    16  H    3.998560   2.660417   3.063876   2.471636   1.767088
                   16
    16  H    0.000000
 Stoichiometry    C4H10N2
 Framework group  C1[X(C4H10N2)]
 Deg. of freedom    42
 Full point group                 C1      NOp   1
 Largest Abelian subgroup         C1      NOp   1
 Largest concise Abelian subgroup C1      NOp   1
                         Standard orientation:                         
 ---------------------------------------------------------------------
 Center     Atomic      Atomic             Coordinates (Angstroms)
 Number     Number       Type             X           Y           Z
 ---------------------------------------------------------------------
      1          7           0       -0.000000   -1.466051   -0.171193
      2          6           0       -1.214347   -0.734485    0.226088
      3          6           0       -1.214346    0.734486   -0.226088
      4          7           0        0.000000    1.466051    0.171193
      5          6           0        1.214347    0.734485   -0.226088
      6          6           0        1.214346   -0.734486    0.226088
      7          1           0       -0.000000   -1.553050   -1.187746
      8          1           0       -2.089276   -1.261633   -0.172606
      9          1           0       -1.284635   -0.772739    1.322765
     10          1           0       -2.089275    1.261634    0.172606
     11          1           0       -1.284635    0.772739   -1.322765
     12          1           0        0.000000    1.553051    1.187746
     13          1           0        1.284635    0.772739   -1.322765
     14          1           0        2.089276    1.261633    0.172606
     15          1           0        2.089275   -1.261634   -0.172606
     16          1           0        1.284634   -0.772740    1.322765
 ---------------------------------------------------------------------
 Rotational constants (GHZ):           4.6655514           4.4697908           2.5942324
 Standard basis: 6-31G(d,p) (6D, 7F)
 There are   140 symmetry adapted cartesian basis functions of A   symmetry.
 There are   140 symmetry adapted basis functions of A   symmetry.
   140 basis functions,   238 primitive gaussians,   140 cartesian basis functions
    24 alpha electrons       24 beta electrons
       nuclear repulsion energy       260.8391005078 Hartrees.
 NAtoms=   16 NActive=   16 NUniq=   16 SFac= 1.00D+00 NAtFMM=   60 NAOKFM=F Big=F
 Integral buffers will be    131072 words long.
 Raffenetti 2 integral format.
 Two-electron integral symmetry is turned on.
 ------------------------------------------------------------------------------
 Polarizable Continuum Model (PCM)
 =================================
 Model                : PCM.
 Atomic radii         : UFF (Universal Force Field).
 Polarization charges : Total charges.
 Charge compensation  : None.
 Solution method      : Matrix inversion.
 Cavity type          : Scaled VdW (van der Waals Surface) (Alpha=1.100).
 Cavity algorithm     : GePol (No added spheres)
                        Default sphere list used, NSphG=   16.
                        Lebedev-Laikov grids with approx.  5.0 points / Ang**2.
                        Smoothing algorithm: York/Karplus (Gamma=1.0000).
                        Polarization charges: spherical gaussians, with
                                              point-specific exponents (IZeta= 3).
                        Self-potential: point-specific (ISelfS= 7).
                        Self-field    : sphere-specific E.n sum rule (ISelfD= 2).
 1st derivatives      : Analytical E(r).r(x)/FMM algorithm (CHGder, D1EAlg=3).
                        Cavity 1st derivative terms included.
 Solvent              : Water, Eps=  78.355300 Eps(inf)=   1.777849
 ------------------------------------------------------------------------------
 Spheres list:
 ISph  on   Nord     Re0    Alpha      Xe            Ye            Ze
    1   N      1    1.8300  1.100     -0.000000     -1.466051     -0.171193
    2   C      2    1.9255  1.100     -1.214347     -0.734485      0.226088
    3   C      3    1.9255  1.100     -1.214346      0.734486     -0.226088
    4   N      4    1.8300  1.100      0.000000      1.466051      0.171193
    5   C      5    1.9255  1.100      1.214347      0.734485     -0.226088
    6   C      6    1.9255  1.100      1.214346     -0.734486      0.226088
    7   H      7    1.4430  1.100     -0.000000     -1.553050     -1.187746
    8   H      8    1.4430  1.100     -2.089276     -1.261633     -0.172606
    9   H      9    1.4430  1.100     -1.284635     -0.772739      1.322765
   10   H     10    1.4430  1.100     -2.089275      1.261634      0.172606
   11   H     11    1.4430  1.100     -1.284635      0.772739     -1.322765
   12   H     12    1.4430  1.100      0.000000      1.553051      1.187746
   13   H     13    1.4430  1.100      1.284635      0.772739     -1.322765
   14   H     14    1.4430  1.100      2.089276      1.261633      0.172606
   15   H     15    1.4430  1.100      2.089275     -1.261634     -0.172606
   16   H     16    1.4430  1.100      1.284634     -0.772740      1.322765
 ------------------------------------------------------------------------------
 One-electron integrals computed using PRISM.
 NBasis=   140 RedAO= T EigKep=  3.97D-03  NBF=   140
 NBsUse=   140 1.00D-06 EigRej= -1.00D+00 NBFU=   140
 Initial guess from the checkpoint file:  "GLUUGHFHXGJENI-UHFFFAOYSA-N_conf_0_0.chk"
 B after Tr=    -0.000000   -0.000000    0.000000
         Rot=    1.000000    0.000157   -0.000000   -0.000001 Ang=   0.02 deg.
 Keep R1 ints in memory in canonical form, NReq=50648669.
 Requested convergence on RMS density matrix=1.00D-08 within  32 cycles.
 Requested convergence on MAX density matrix=1.00D-06.
 Requested convergence on             energy=1.00D-06.
 No special actions if energy rises.
 Inv3:  Mode=1 IEnd=     4148928.
 Iteration    1 A*A^-1 deviation from unit magnitude is 2.78D-15 for    388.
 Iteration    1 A*A^-1 deviation from orthogonality  is 1.89D-15 for   1066    876.
 Iteration    1 A^-1*A deviation from unit magnitude is 2.78D-15 for    388.
 Iteration    1 A^-1*A deviation from orthogonality  is 1.55D-15 for    921    209.
 Error on total polarization charges =  0.00804
 SCF Done:  E(RB3LYP) =  -267.949821082     A.U. after    7 cycles
            NFock=  7  Conv=0.95D-08     -V/T= 2.0098
 QCSCF skips out because SCF is already converged.
 D1PCM: PCM CHGder 1st derivatives, ID1Alg=3 FixD1E=F DoIter=F DoCFld=F I1PDM=0.
 Calling FoFJK, ICntrl=      2127 FMM=F ISym2X=0 I1Cent= 0 IOpClX= 0 NMat=1 NMatS=1 NMatT=0.
 ***** Axes restored to original set *****
 -------------------------------------------------------------------
 Center     Atomic                   Forces (Hartrees/Bohr)
 Number     Number              X              Y              Z
 -------------------------------------------------------------------
      1        7           0.000001510   -0.000003441    0.000012368
      2        6          -0.000022985    0.000003467    0.000022232
      3        6          -0.000025319   -0.000008746   -0.000017782
      4        7          -0.000001516    0.000003461   -0.000012373
      5        6           0.000022964   -0.000003486   -0.000022224
      6        6           0.000025334    0.000008758    0.000017792
      7        1          -0.000000645    0.000007880    0.000002390
      8        1           0.000002584   -0.000011628    0.000006134
      9        1          -0.000005924    0.000003838    0.000006970
     10        1          -0.000001109    0.000011782   -0.000006271
     11        1          -0.000006120   -0.000005156   -0.000005864
     12        1           0.000000637   -0.000007880   -0.000002401
     13        1           0.000005934   -0.000003828   -0.000006962
     14        1          -0.000002588    0.000011626   -0.000006136
     15        1           0.000001108   -0.000011786    0.000006270
     16        1           0.000006136    0.000005140    0.000005858
 -------------------------------------------------------------------
 Cartesian Forces:  Max     0.000025334 RMS     0.000010915

 GradGradGradGradGradGradGradGradGradGradGradGradGradGradGradGradGradGrad
 Berny optimization.
 Using GEDIIS/GDIIS optimizer.
 FormGI is forming the generalized inverse of G from B-inverse, IUseBI=4.
 Internal  Forces:  Max     0.000027966 RMS     0.000007236
 Search for a local minimum.
 Step number   3 out of a maximum of   98
 All quantities printed in internal units (Hartrees-Bohrs-Radians)
 Mixed Optimization -- En-DIIS/RFO-DIIS
 Swapping is turned off.
 Update second derivatives using D2CorX and points    1    2    3
 DE= -8.03D-06 DEPred=-7.46D-06 R= 1.08D+00
 TightC=F SS=  1.41D+00  RLast= 4.53D-02 DXNew= 8.4853D-01 1.3592D-01
 Trust test= 1.08D+00 RLast= 4.53D-02 DXMaxT set to 5.05D-01
 ITU=  1  1  0
     Eigenvalues ---    0.00512   0.00545   0.00593   0.01982   0.01999
     Eigenvalues ---    0.03302   0.04239   0.04336   0.04379   0.04522
     Eigenvalues ---    0.04755   0.05874   0.06096   0.06973   0.07248
     Eigenvalues ---    0.08107   0.08586   0.08631   0.08665   0.08740
     Eigenvalues ---    0.10062   0.10459   0.12091   0.19603   0.19652
[...]
 Alpha virt. eigenvalues --    0.16161   0.17263   0.17405   0.18615   0.18748
 Alpha virt. eigenvalues --    0.20338   0.24112   0.25026   0.26542   0.29005
 Alpha virt. eigenvalues --    0.29604   0.52932   0.53656   0.54366   0.55539
 Alpha virt. eigenvalues --    0.57278   0.59062   0.59684   0.64610   0.65091
 Alpha virt. eigenvalues --    0.65322   0.74202   0.76607   0.78274   0.79062
 Alpha virt. eigenvalues --    0.80401   0.82275   0.83686   0.84790   0.89187
 Alpha virt. eigenvalues --    0.89608   0.89690   0.91174   0.93205   0.93718
 Alpha virt. eigenvalues --    0.94824   0.97154   1.03083   1.05616   1.22244
 Alpha virt. eigenvalues --    1.28456   1.32969   1.37897   1.39625   1.39653
 Alpha virt. eigenvalues --    1.40523   1.48407   1.59954   1.64297   1.64484
 Alpha virt. eigenvalues --    1.74077   1.77137   1.82199   1.86179   1.89506
 Alpha virt. eigenvalues --    1.92167   1.92835   1.94584   1.98182   1.99057
 Alpha virt. eigenvalues --    1.99392   2.06131   2.10801   2.13065   2.17039
 Alpha virt. eigenvalues --    2.17997   2.18675   2.19360   2.20457   2.29832
 Alpha virt. eigenvalues --    2.30277   2.30730   2.36223   2.37442   2.39474
 Alpha virt. eigenvalues --    2.43712   2.47328   2.50702   2.51036   2.52821
 Alpha virt. eigenvalues --    2.59092   2.63280   2.65341   2.66218   2.69779
 Alpha virt. eigenvalues --    2.73745   2.82245   2.85018   2.85196   2.85626
 Alpha virt. eigenvalues --    2.91799   2.92491   2.95632   2.96855   2.99289
 Alpha virt. eigenvalues --    3.20290   3.27159   3.29276   3.32709   3.33813
 Alpha virt. eigenvalues --    3.40767   3.45920   3.51326   3.54877   3.58384
 Alpha virt. eigenvalues --    4.06404   4.07403   4.39322   4.52448   4.64070
 Alpha virt. eigenvalues --    4.70909
          Condensed to atoms (all electrons):
               1          2          3          4          5          6
     1  N    7.403042   0.304712  -0.036055   0.017415  -0.036055   0.304712
     2  C    0.304712   5.327103   0.358831  -0.036055  -0.020086  -0.046890
     3  C   -0.036055   0.358831   5.327103   0.304712  -0.046890  -0.020086
     4  N    0.017415  -0.036055   0.304712   7.403043   0.304712  -0.036055
     5  C   -0.036055  -0.020086  -0.046890   0.304712   5.327103   0.358831
     6  C    0.304712  -0.046890  -0.020086  -0.036055   0.358831   5.327103
     7  H   -0.183550  -0.036521  -0.020094  -0.014913  -0.020094  -0.036521
     8  H   -0.113719   0.141443  -0.088332  -0.006023   0.002530   0.009479
     9  H   -0.073655   0.208660  -0.050556  -0.040340   0.005673  -0.008975
    10  H   -0.006023  -0.088332   0.141442  -0.113719   0.009479   0.002530
    11  H   -0.040340  -0.050556   0.208660  -0.073655  -0.008975   0.005673
    12  H   -0.014913  -0.020094  -0.036521  -0.183551  -0.036521  -0.020095
    13  H   -0.040340   0.005673  -0.008975  -0.073655   0.208660  -0.050556
    14  H   -0.006023   0.002530   0.009479  -0.113719   0.141442  -0.088332
    15  H   -0.113719   0.009479   0.002530  -0.006023  -0.088331   0.141443
    16  H   -0.073655  -0.008975   0.005673  -0.040340  -0.050556   0.208660
               7          8          9         10         11         12
     1  N   -0.183550  -0.113719  -0.073655  -0.006023  -0.040340  -0.014913
     2  C   -0.036521   0.141443   0.208660  -0.088332  -0.050556  -0.020094
     3  C   -0.020094  -0.088332  -0.050556   0.141442   0.208660  -0.036521
     4  N   -0.014913  -0.006023  -0.040340  -0.113719  -0.073655  -0.183551
     5  C   -0.020094   0.002530   0.005673   0.009479  -0.008975  -0.036521
     6  C   -0.036521   0.009479  -0.008975   0.002530   0.005673  -0.020095
     7  H    0.958967   0.065527   0.027508   0.005493   0.036927   0.006030
     8  H    0.065527   0.813283   0.037789   0.034450   0.025452   0.005493
     9  H    0.027508   0.037789   0.695072   0.025452   0.013752   0.036927
    10  H    0.005493   0.034450   0.025452   0.813283   0.037789   0.065527
    11  H    0.036927   0.025452   0.013752   0.037789   0.695072   0.027508
    12  H    0.006030   0.005493   0.036927   0.065527   0.027508   0.958968
    13  H    0.036927   0.001321   0.001493   0.003089   0.024545   0.027508
    14  H    0.005493   0.000234   0.001321   0.001282   0.003089   0.065527
    15  H    0.065527   0.001282   0.003089   0.000234   0.001321   0.005493
    16  H    0.027508   0.003089   0.024545   0.001321   0.001493   0.036927
              13         14         15         16
     1  N   -0.040340  -0.006023  -0.113719  -0.073655
     2  C    0.005673   0.002530   0.009479  -0.008975
     3  C   -0.008975   0.009479   0.002530   0.005673
     4  N   -0.073655  -0.113719  -0.006023  -0.040340
     5  C    0.208660   0.141442  -0.088331  -0.050556
     6  C   -0.050556  -0.088332   0.141443   0.208660
     7  H    0.036927   0.005493   0.065527   0.027508
     8  H    0.001321   0.000234   0.001282   0.003089
     9  H    0.001493   0.001321   0.003089   0.024545
    10  H    0.003089   0.001282   0.000234   0.001321
    11  H    0.024545   0.003089   0.001321   0.001493
    12  H    0.027508   0.065527   0.005493   0.036927
    13  H    0.695072   0.037789   0.025452   0.013752
    14  H    0.037789   0.813283   0.034450   0.025452
    15  H    0.025452   0.034450   0.813283   0.037789
    16  H    0.013752   0.025452   0.037789   0.695072
 Mulliken charges:
               1
     1  N   -0.291836
     2  C   -0.050923
     3  C   -0.050923
     4  N   -0.291836
     5  C   -0.050923
     6  C   -0.050923
     7  H    0.075786
     8  H    0.066702
     9  H    0.092246
    10  H    0.066702
    11  H    0.092246
    12  H    0.075786
    13  H    0.092246
    14  H    0.066702
    15  H    0.066702
    16  H    0.092246
 Sum of Mulliken charges =  -0.00000
 Mulliken charges with hydrogens summed into heavy atoms:
               1
     1  N   -0.216050
     2  C    0.108025
     3  C    0.108025
     4  N   -0.216050
     5  C    0.108025
     6  C    0.108025
 Electronic spatial extent (au):  <R**2>=            547.5752
 Charge=              0.0000 electrons
 Dipole moment (field-independent basis, Debye):
    X=              0.0000    Y=             -0.0000    Z=             -0.0000  Tot=              0.0000
 Quadrupole moment (field-independent basis, Debye-Ang):
   XX=            -37.9040   YY=            -45.2170   ZZ=            -40.2759
   XY=             -0.0000   XZ=             -0.0000   YZ=             -0.4932
 Traceless Quadrupole moment (field-independent basis, Debye-Ang):
   XX=              3.2283   YY=             -4.0847   ZZ=              0.8564
   XY=             -0.0000   XZ=             -0.0000   YZ=             -0.4932
 Octapole moment (field-independent basis, Debye-Ang**2):
  XXX=              0.0000  YYY=             -0.0000  ZZZ=             -0.0000  XYY=              0.0000
  XXY=             -0.0000  XXZ=             -0.0000  XZZ=             -0.0000  YZZ=             -0.0000
  YYZ=             -0.0000  XYZ=              0.0000
 Hexadecapole moment (field-independent basis, Debye-Ang**3):
 XXXX=           -340.1689 YYYY=           -352.0634 ZZZZ=           -107.5208 XXXY=             -0.0000
 XXXZ=             -0.0000 YYYX=             -0.0000 YYYZ=             -1.5248 ZZZX=             -0.0000
 ZZZY=             -5.5707 XXYY=           -110.5852 XXZZ=            -75.2218 YYZZ=            -71.9761
 XXYZ=             -3.7516 YYXZ=              0.0000 ZZXY=              0.0000
 N-N= 2.608391005078D+02 E-N=-1.141829109572D+03  KE= 2.654421614047D+02
 Evaluate density.
 Using the total density.
 Monte-Carlo method of calculating molar volume:
 based on  0.001 e/bohr**3 density envelope.
 Number of points per bohr**3 =   20 CutOff= 1.00D-04
 Using the CI density.
 There are       318 points.  Will hold       318 in memory.
 LenV=   536805380 MDV=   536870912.
 Box volume = 4035.993 fraction occupied=0.201
 Integrated density= 3.2106975112655128D+01 error=-1.5893024887344872D+01
 Molar volume =  812.275 bohr**3/mol ( 72.487 cm**3/mol)
 Recommended a0 for SCRF calculation =  3.87 angstrom (  7.32 bohr)
 ******************************Gaussian NBO Version 3.1******************************
             N A T U R A L   A T O M I C   O R B I T A L   A N D
          N A T U R A L   B O N D   O R B I T A L   A N A L Y S I S
 ******************************Gaussian NBO Version 3.1******************************
       /RESON  / : Allow strongly delocalized NBO set

 Analyzing the CI density

 Job title: GLUUGHFHXGJENI-UHFFFAOYSA-N_conf_0                              

 Storage needed:     59724 in NPA ( 536869472 available)
 GSVD:  LWork=       10360 too small for GESVD, short by        7526 words or        7526 for optimal perf.


 NATURAL POPULATIONS:  Natural atomic orbital occupancies 
                                                          
   NAO  Atom  No  lang   Type(AO)    Occupancy
 --------------------------------------------
     1    N    1  S      Cor( 1S)     1.99949
     2    N    1  S      Val( 2S)     1.37782
     3    N    1  S      Ryd( 3S)     0.00303
     4    N    1  S      Ryd( 4S)     0.00012
     5    N    1  px     Val( 2p)     1.22537
     6    N    1  px     Ryd( 3p)     0.00129
     7    N    1  py     Val( 2p)     1.42974
     8    N    1  py     Ryd( 3p)     0.00530
     9    N    1  pz     Val( 2p)     1.43424
    10    N    1  pz     Ryd( 3p)     0.00328
    11    N    1  dxy    Ryd( 3d)     0.00106
    12    N    1  dxz    Ryd( 3d)     0.00027
    13    N    1  dyz    Ryd( 3d)     0.00043
    14    N    1  dx2y2  Ryd( 3d)     0.00069
    15    N    1  dz2    Ryd( 3d)     0.00121

    16    C    2  S      Cor( 1S)     1.99934
    17    C    2  S      Val( 2S)     1.04594
    18    C    2  S      Ryd( 3S)     0.00131
    19    C    2  S      Ryd( 4S)     0.00004
    20    C    2  px     Val( 2p)     1.04123
    21    C    2  px     Ryd( 3p)     0.00500
    22    C    2  py     Val( 2p)     0.98859
    23    C    2  py     Ryd( 3p)     0.00439
    24    C    2  pz     Val( 2p)     1.22503
    25    C    2  pz     Ryd( 3p)     0.00382
    26    C    2  dxy    Ryd( 3d)     0.00120
    27    C    2  dxz    Ryd( 3d)     0.00075
    28    C    2  dyz    Ryd( 3d)     0.00049
    29    C    2  dx2y2  Ryd( 3d)     0.00087
    30    C    2  dz2    Ryd( 3d)     0.00122

    31    C    3  S      Cor( 1S)     1.99934
    32    C    3  S      Val( 2S)     1.04594
    33    C    3  S      Ryd( 3S)     0.00131
    34    C    3  S      Ryd( 4S)     0.00004
    35    C    3  px     Val( 2p)     1.04123
    36    C    3  px     Ryd( 3p)     0.00500
    37    C    3  py     Val( 2p)     0.98859
    38    C    3  py     Ryd( 3p)     0.00439
    39    C    3  pz     Val( 2p)     1.22503
    40    C    3  pz     Ryd( 3p)     0.00382
    41    C    3  dxy    Ryd( 3d)     0.00120
    42    C    3  dxz    Ryd( 3d)     0.00075
    43    C    3  dyz    Ryd( 3d)     0.00049
    44    C    3  dx2y2  Ryd( 3d)     0.00087
    45    C    3  dz2    Ryd( 3d)     0.00122

    46    N    4  S      Cor( 1S)     1.99949
    47    N    4  S      Val( 2S)     1.37782
    48    N    4  S      Ryd( 3S)     0.00303
    49    N    4  S      Ryd( 4S)     0.00012
    50    N    4  px     Val( 2p)     1.22537
    51    N    4  px     Ryd( 3p)     0.00129
    52    N    4  py     Val( 2p)     1.42974
    53    N    4  py     Ryd( 3p)     0.00530
    54    N    4  pz     Val( 2p)     1.43424
    55    N    4  pz     Ryd( 3p)     0.00328
    56    N    4  dxy    Ryd( 3d)     0.00106
    57    N    4  dxz    Ryd( 3d)     0.00027
    58    N    4  dyz    Ryd( 3d)     0.00043
    59    N    4  dx2y2  Ryd( 3d)     0.00069
    60    N    4  dz2    Ryd( 3d)     0.00121

    61    C    5  S      Cor( 1S)     1.99934
    62    C    5  S      Val( 2S)     1.04594
    63    C    5  S      Ryd( 3S)     0.00131
    64    C    5  S      Ryd( 4S)     0.00004
    65    C    5  px     Val( 2p)     1.04123
    66    C    5  px     Ryd( 3p)     0.00500
    67    C    5  py     Val( 2p)     0.98859
    68    C    5  py     Ryd( 3p)     0.00439
    69    C    5  pz     Val( 2p)     1.22503
    70    C    5  pz     Ryd( 3p)     0.00382
    71    C    5  dxy    Ryd( 3d)     0.00120
    72    C    5  dxz    Ryd( 3d)     0.00075
    73    C    5  dyz    Ryd( 3d)     0.00049
    74    C    5  dx2y2  Ryd( 3d)     0.00087
    75    C    5  dz2    Ryd( 3d)     0.00122

    76    C    6  S      Cor( 1S)     1.99934
    77    C    6  S      Val( 2S)     1.04594
    78    C    6  S      Ryd( 3S)     0.00131
    79    C    6  S      Ryd( 4S)     0.00004
    80    C    6  px     Val( 2p)     1.04123
    81    C    6  px     Ryd( 3p)     0.00500
    82    C    6  py     Val( 2p)     0.98859
    83    C    6  py     Ryd( 3p)     0.00439
    84    C    6  pz     Val( 2p)     1.22503
    85    C    6  pz     Ryd( 3p)     0.00382
    86    C    6  dxy    Ryd( 3d)     0.00120
    87    C    6  dxz    Ryd( 3d)     0.00075
    88    C    6  dyz    Ryd( 3d)     0.00049
    89    C    6  dx2y2  Ryd( 3d)     0.00087
    90    C    6  dz2    Ryd( 3d)     0.00122

    91    H    7  S      Val( 1S)     0.66547
    92    H    7  S      Ryd( 2S)     0.07199
    93    H    7  px     Ryd( 2p)     0.00024
    94    H    7  py     Ryd( 2p)     0.00030
    95    H    7  pz     Ryd( 2p)     0.00067

    96    H    8  S      Val( 1S)     0.76696
    97    H    8  S      Ryd( 2S)     0.02418
    98    H    8  px     Ryd( 2p)     0.00027
    99    H    8  py     Ryd( 2p)     0.00015
   100    H    8  pz     Ryd( 2p)     0.00010

   101    H    9  S      Val( 1S)     0.75610
   102    H    9  S      Ryd( 2S)     0.02144
   103    H    9  px     Ryd( 2p)     0.00010
   104    H    9  py     Ryd( 2p)     0.00008
   105    H    9  pz     Ryd( 2p)     0.00038

   106    H   10  S      Val( 1S)     0.76696
   107    H   10  S      Ryd( 2S)     0.02418
   108    H   10  px     Ryd( 2p)     0.00027
   109    H   10  py     Ryd( 2p)     0.00015
   110    H   10  pz     Ryd( 2p)     0.00010

   111    H   11  S      Val( 1S)     0.75610
   112    H   11  S      Ryd( 2S)     0.02144
   113    H   11  px     Ryd( 2p)     0.00010
   114    H   11  py     Ryd( 2p)     0.00008
   115    H   11  pz     Ryd( 2p)     0.00038

   116    H   12  S      Val( 1S)     0.66547
   117    H   12  S      Ryd( 2S)     0.07199
   118    H   12  px     Ryd( 2p)     0.00024
   119    H   12  py     Ryd( 2p)     0.00030
   120    H   12  pz     Ryd( 2p)     0.00067

   121    H   13  S      Val( 1S)     0.75610
   122    H   13  S      Ryd( 2S)     0.02144
   123    H   13  px     Ryd( 2p)     0.00010
   124    H   13  py     Ryd( 2p)     0.00008
   125    H   13  pz     Ryd( 2p)     0.00038

   126    H   14  S      Val( 1S)     0.76696
   127    H   14  S      Ryd( 2S)     0.02418
   128    H   14  px     Ryd( 2p)     0.00027
   129    H   14  py     Ryd( 2p)     0.00015
   130    H   14  pz     Ryd( 2p)     0.00010

   131    H   15  S      Val( 1S)     0.76696
   132    H   15  S      Ryd( 2S)     0.02418
   133    H   15  px     Ryd( 2p)     0.00027
   134    H   15  py     Ryd( 2p)     0.00015
   135    H   15  pz     Ryd( 2p)     0.00010

   136    H   16  S      Val( 1S)     0.75610
   137    H   16  S      Ryd( 2S)     0.02144
   138    H   16  px     Ryd( 2p)     0.00010
   139    H   16  py     Ryd( 2p)     0.00008
   140    H   16  pz     Ryd( 2p)     0.00038


 Summary of Natural Population Analysis:                  
                                                          
                                       Natural Population 
                Natural  -----------------------------------------------
    Atom  No    Charge         Core      Valence    Rydberg      Total
 -----------------------------------------------------------------------
      N    1   -0.48335      1.99949     5.46717    0.01669     7.48335
      C    2   -0.31921      1.99934     4.30079    0.01909     6.31921
      C    3   -0.31921      1.99934     4.30079    0.01909     6.31921
      N    4   -0.48335      1.99949     5.46717    0.01669     7.48335
      C    5   -0.31921      1.99934     4.30079    0.01909     6.31921
      C    6   -0.31921      1.99934     4.30079    0.01909     6.31921
      H    7    0.26133      0.00000     0.66547    0.07320     0.73867
      H    8    0.20833      0.00000     0.76696    0.02471     0.79167
      H    9    0.22189      0.00000     0.75610    0.02201     0.77811
      H   10    0.20833      0.00000     0.76696    0.02471     0.79167
      H   11    0.22189      0.00000     0.75610    0.02201     0.77811
      H   12    0.26133      0.00000     0.66547    0.07320     0.73867
      H   13    0.22189      0.00000     0.75610    0.02201     0.77811
      H   14    0.20833      0.00000     0.76696    0.02471     0.79167
      H   15    0.20833      0.00000     0.76696    0.02471     0.79167
      H   16    0.22189      0.00000     0.75610    0.02201     0.77811
 =======================================================================
   * Total *   -0.00000     11.99633    35.56068    0.44299    48.00000

                                 Natural Population      
 --------------------------------------------------------
   Core                      11.99633 ( 99.9694% of  12)
   Valence                   35.56068 ( 98.7797% of  36)
   Natural Minimal Basis     47.55701 ( 99.0771% of  48)
   Natural Rydberg Basis      0.44299 (  0.9229% of  48)
 --------------------------------------------------------

    Atom  No          Natural Electron Configuration
 ----------------------------------------------------------------------------
      N    1      [core]2S( 1.38)2p( 4.09)3p( 0.01)
      C    2      [core]2S( 1.05)2p( 3.25)3p( 0.01)
      C    3      [core]2S( 1.05)2p( 3.25)3p( 0.01)
      N    4      [core]2S( 1.38)2p( 4.09)3p( 0.01)
      C    5      [core]2S( 1.05)2p( 3.25)3p( 0.01)
      C    6      [core]2S( 1.05)2p( 3.25)3p( 0.01)
      H    7            1S( 0.67)2S( 0.07)
      H    8            1S( 0.77)2S( 0.02)
      H    9            1S( 0.76)2S( 0.02)
      H   10            1S( 0.77)2S( 0.02)
      H   11            1S( 0.76)2S( 0.02)
      H   12            1S( 0.67)2S( 0.07)
      H   13            1S( 0.76)2S( 0.02)
      H   14            1S( 0.77)2S( 0.02)
      H   15            1S( 0.77)2S( 0.02)
      H   16            1S( 0.76)2S( 0.02)


 NBO analysis skipped by request.
 1\1\GINC-DRG2-W002\SP\RB3LYP TD-FC\6-31G(d,p)\C4H10N2\QDUEZ\17-Jul-202
 4\0\\# TD(NStates=10, Root=1) B3LYP/6-31G** SCRF=(Solvent=water) volum
 e pop=NPA density=current Geom=AllCheck Guess=Read\\GLUUGHFHXGJENI-UHF
 FFAOYSA-N_conf_0\\0,1\N,0,-0.092907503,1.3489663144,0.5918372085\C,0,-
 1.2856073458,0.6327088442,0.1100693415\C,0,-1.1187379399,-0.8951960873
 ,0.1107765208\N,0,0.0929075955,-1.3489665014,-0.5918368528\C,0,1.28560
 74585,-0.6327087458,-0.1100693647\C,0,1.1187378428,0.8951961484,-0.110
 7765681\H,0,0.0206225855,1.1446245467,1.5849656841\H,0,-2.1452928767,0
 .9279258284,0.723364316\H,0,-1.4878665981,0.9714787187,-0.9162984633\H
 ,0,-1.9913681378,-1.3795334499,-0.3434005949\H,0,-1.0556467985,-1.2491
 591112,1.1499273266\H,0,-0.0206224046,-1.1446252286,-1.5849654236\H,0,
 1.487866949,-0.9714785375,0.9162984146\H,0,2.1452928936,-0.9279256973,
 -0.7233644864\H,0,1.9913681415,1.3795336456,0.34340023\H,0,1.055646138
 ,1.2491593125,-1.1499272883\\Version=ES64L-G16RevA.03\State=1-A\HF=-26
 7.9498211\RMSD=8.066e-10\Dipole=0.,0.0000008,0.0000007\Quadrupole=2.34
 97895,-2.4824824,0.1326929,0.4095978,-0.0615458,-1.344\PG=C01 [X(C4H10
 N2)]\\@


     "IF I COULD JUST GET IT ON PAPER"
 LIFE AND INK, THEY RUN OUT AT THE SAME TIME,
 OR SO SAID MY OLD FRIEND THE SQUID.
     -- JIMMY BUFFETT, 1981
 Job cpu time:       0 days  0 hours  9 minutes  9.4 seconds.
 Elapsed time:       0 days  0 hours  4 minutes 36.4 seconds.
 File lengths (MBytes):  RWF=    220 Int=      0 D2E=      0 Chk=     14 Scr=      1
 Normal termination of Gaussian 16 at Wed Jul 17 18:59:13 2024.
