 Entering Gaussian System, Link 0=g16
 Initial command:
 /opt/sw/arch/manual/gaussian/G16_A03/g16/l1.exe "/scratch/1380849/Gau-57590.inp" -scrdir="/scratch/1380849/"
 Entering Link 1 = /opt/sw/arch/manual/gaussian/G16_A03/g16/l1.exe PID=     57591.
  
 Copyright (c) 1988,1990,1992,1993,1995,1998,2003,2009,2016,
            Gaussian, Inc.  All Rights Reserved.
  
 This is part of the Gaussian(R) 16 program.  It is based on
 the Gaussian(R) 09 system (copyright 2009, Gaussian, Inc.),
 the Gaussian(R) 03 system (copyright 2003, Gaussian, Inc.),
 the Gaussian(R) 98 system (copyright 1998, Gaussian, Inc.),
 the Gaussian(R) 94 system (copyright 1995, Gaussian, Inc.),
 the Gaussian 92(TM) system (copyright 1992, Gaussian, Inc.),
 the Gaussian 90(TM) system (copyright 1990, Gaussian, Inc.),
 the Gaussian 88(TM) system (copyright 1988, Gaussian, Inc.),
 the Gaussian 86(TM) system (copyright 1986, Carnegie Mellon
 University), and the Gaussian 82(TM) system (copyright 1983,
 Carnegie Mellon University). Gaussian is a federally registered
 trademark of Gaussian, Inc.
  
 This software contains proprietary and confidential information,
 including trade secrets, belonging to Gaussian, Inc.
  
 This software is provided under written license and may be
 used, copied, transmitted, or stored only in accord with that
 written license.
  
 The following legend is applicable only to US Government
 contracts under FAR:
  
                    RESTRICTED RIGHTS LEGEND
  
 Use, reproduction and disclosure by the US Government is
 subject to restrictions as set forth in subparagraphs (a)
 and (c) of the Commercial Computer Software - Restricted
 Rights clause in FAR 52.227-19.
  
 Gaussian, Inc.
 340 Quinnipiac St., Bldg. 40, Wallingford CT 06492
  
  
 ---------------------------------------------------------------
 Warning -- This program may not be used in any manner that
 competes with the business of Gaussian, Inc. or will provide
 assistance to any competitor of Gaussian, Inc.  The licensee
 of this program is prohibited from giving any competitor of
 Gaussian, Inc. access to this program.  By using this program,
 the user acknowledges that Gaussian, Inc. is engaged in the
 business of creating and licensing software in the field of
 computational chemistry and represents and warrants to the
 licensee that it is not a competitor of Gaussian, Inc. and that
 it will not use this program in any manner prohibited above.
 ---------------------------------------------------------------
  

 Cite this work as:
 Gaussian 16, Revision A.03,
 M. J. Frisch, G. W. Trucks, H. B. Schlegel, G. E. Scuseria, 
 M. A. Robb, J. R. Cheeseman, G. Scalmani, V. Barone, 
 G. A. Petersson, H. Nakatsuji, X. Li, M. Caricato, A. V. Marenich, 
 J. Bloino, B. G. Janesko, R. Gomperts, B. Mennucci, H. P. Hratchian, 
 J. V. Ortiz, A. F. Izmaylov, J. L. Sonnenberg, D. Williams-Young, 
 F. Ding, F. Lipparini, F. Egidi, J. Goings, B. Peng, A. Petrone, 
 T. Henderson, D. Ranasinghe, V. G. Zakrzewski, J. Gao, N. Rega, 
 G. Zheng, W. Liang, M. Hada, M. Ehara, K. Toyota, R. Fukuda, 
 J. Hasegawa, M. Ishida, T. Nakajima, Y. Honda, O. Kitao, H. Nakai, 
 T. Vreven, K. Throssell, J. A. Montgomery, Jr., J. E. Peralta, 
 F. Ogliaro, M. J. Bearpark, J. J. Heyd, E. N. Brothers, K. N. Kudin, 
 V. N. Staroverov, T. A. Keith, R. Kobayashi, J. Normand, 
 K. Raghavachari, A. P. Rendell, J. C. Burant, S. S. Iyengar, 
 J. Tomasi, M. Cossi, J. M. Millam, M. Klene, C. Adamo, R. Cammi, 
 J. W. Ochterski, R. L. Martin, K. Morokuma, O. Farkas, 
 J. B. Foresman, and D. J. Fox, Gaussian, Inc., Wallingford CT, 2016.
 
 ******************************************
 Gaussian 16:  ES64L-G16RevA.03 25-Dec-2016
                17-Jul-2024 
 ******************************************
 %nprocshared=4
 Will use up to    4 processors via shared memory.
 %mem=8GB
 %Chk=IBOFVQJTBBUKMU-UHFFFAOYSA-N_conf_2_0.chk
 -------------------------------------------------------
 # opt=CalcFc B3LYP/6-31G** SCRF=(Solvent=water) scf=xqc
 -------------------------------------------------------
 1/10=4,18=20,19=15,26=3,38=1/1,3;
 2/9=110,12=2,17=6,18=5,40=1/2;
 3/5=1,6=6,7=101,11=2,25=1,30=1,70=2201,71=2,72=1,74=-5,140=1/1,2,3;
 4//1;
 5/5=2,8=3,13=1,38=5,53=1/2,8;
 8/6=4,10=90,11=11/1;
 11/6=1,8=1,9=11,15=111,16=1/1,2,10;
 10/6=1,13=1/2;
 6/7=2,8=2,9=2,10=2,28=1/1;
 7/10=1,18=20,25=1/1,2,3,16;
 1/10=4,18=20,19=15,26=3/3(2);
 2/9=110/2;
 99//99;
 2/9=110/2;
 3/5=1,6=6,7=101,11=2,25=1,30=1,70=2205,71=1,72=1,74=-5/1,2,3;
 4/5=5,16=3,69=1/1;
 5/5=2,8=3,13=1,38=5,53=1/2,8;
 7//1,2,3,16;
 1/18=20,19=15,26=3/3(-5);
 2/9=110/2;
 6/7=2,8=2,9=2,10=2,19=2,28=1/1;
 99/9=1/99;
 ----------------------------------
 IBOFVQJTBBUKMU-UHFFFAOYSA-N_conf_2
 ----------------------------------
 Symbolic Z-matrix:
 Charge =  0 Multiplicity = 1
 N                    -4.79436   1.50741   0.10167 
 C                    -3.58867   0.78482   0.03187 
 C                    -2.8421    0.59405   1.1985 
 C                    -1.70181  -0.21647   1.19757 
 C                    -1.30225  -0.88782   0.03442 
 C                    -0.06716  -1.75884   0.03278 
 C                     1.22525  -0.98022   0.12223 
 C                     1.98949  -0.99579   1.29595 
 C                     3.1813   -0.26762   1.38096 
 C                     3.6571    0.46299   0.28768 
 N                     4.79208   1.27826   0.45183 
 C                     2.86043   0.51823  -0.8691 
 Cl                    3.35176   1.4635   -2.23293 
 C                     1.66972  -0.20908  -0.96056 
 C                    -2.07438  -0.74192  -1.12542 
 C                    -3.21384   0.06917  -1.11838 
 Cl                   -4.13593   0.2001   -2.57718 
 H                    -5.12329   1.80145  -0.81611 
 H                    -4.78463   2.26446   0.77711 
 H                    -3.14363   1.07716   2.12455 
 H                    -1.13114  -0.3249    2.11778 
 H                    -0.14191  -2.47283   0.86365 
 H                    -0.03752  -2.37901  -0.87291 
 H                     1.65699  -1.5636    2.16264 
 H                     3.73543  -0.27169   2.31635 
 H                     5.19516   1.56708  -0.43758 
 H                     5.48181   0.90829   1.09703 
 H                     1.08122  -0.16297  -1.87386 
 H                    -1.79512  -1.26423  -2.0373 
 

 GradGradGradGradGradGradGradGradGradGradGradGradGradGradGradGradGradGrad
 Berny optimization.
 Initialization pass.
                           ----------------------------
                           !    Initial Parameters    !
                           ! (Angstroms and Degrees)  !
 --------------------------                            --------------------------
 ! Name  Definition              Value          Derivative Info.                !
 --------------------------------------------------------------------------------
 ! R1    R(1,2)                  1.4074         calculate D2E/DX2 analytically  !
 ! R2    R(1,18)                 1.0183         calculate D2E/DX2 analytically  !
 ! R3    R(1,19)                 1.0146         calculate D2E/DX2 analytically  !
 ! R4    R(2,3)                  1.3981         calculate D2E/DX2 analytically  !
 ! R5    R(2,16)                 1.4056         calculate D2E/DX2 analytically  !
 ! R6    R(3,4)                  1.399          calculate D2E/DX2 analytically  !
 ! R7    R(3,20)                 1.0871         calculate D2E/DX2 analytically  !
 ! R8    R(4,5)                  1.4012         calculate D2E/DX2 analytically  !
 ! R9    R(4,21)                 1.0882         calculate D2E/DX2 analytically  !
 ! R10   R(5,6)                  1.5113         calculate D2E/DX2 analytically  !
 ! R11   R(5,15)                 1.401          calculate D2E/DX2 analytically  !
 ! R12   R(6,7)                  1.5115         calculate D2E/DX2 analytically  !
 ! R13   R(6,22)                 1.098          calculate D2E/DX2 analytically  !
 ! R14   R(6,23)                 1.0981         calculate D2E/DX2 analytically  !
 ! R15   R(7,8)                  1.4007         calculate D2E/DX2 analytically  !
 ! R16   R(7,14)                 1.4017         calculate D2E/DX2 analytically  !
 ! R17   R(8,9)                  1.3992         calculate D2E/DX2 analytically  !
 ! R18   R(8,24)                 1.0882         calculate D2E/DX2 analytically  !
 ! R19   R(9,10)                 1.3984         calculate D2E/DX2 analytically  !
 ! R20   R(9,25)                 1.0872         calculate D2E/DX2 analytically  !
 ! R21   R(10,11)                1.4071         calculate D2E/DX2 analytically  !
 ! R22   R(10,12)                1.4057         calculate D2E/DX2 analytically  !
 ! R23   R(11,26)                1.0183         calculate D2E/DX2 analytically  !
 ! R24   R(11,27)                1.0143         calculate D2E/DX2 analytically  !
 ! R25   R(12,13)                1.7306         calculate D2E/DX2 analytically  !
 ! R26   R(12,14)                1.3983         calculate D2E/DX2 analytically  !
 ! R27   R(14,28)                1.0875         calculate D2E/DX2 analytically  !
 ! R28   R(15,16)                1.3987         calculate D2E/DX2 analytically  !
 ! R29   R(15,29)                1.0873         calculate D2E/DX2 analytically  !
 ! R30   R(16,17)                1.7308         calculate D2E/DX2 analytically  !
 ! A1    A(2,1,18)             112.3512         calculate D2E/DX2 analytically  !
 ! A2    A(2,1,19)             114.0728         calculate D2E/DX2 analytically  !
 ! A3    A(18,1,19)            112.8079         calculate D2E/DX2 analytically  !
 ! A4    A(1,2,3)              119.0865         calculate D2E/DX2 analytically  !
 ! A5    A(1,2,16)             122.0359         calculate D2E/DX2 analytically  !
 ! A6    A(3,2,16)             118.0966         calculate D2E/DX2 analytically  !
 ! A7    A(2,3,4)              120.9125         calculate D2E/DX2 analytically  !
 ! A8    A(2,3,20)             120.1351         calculate D2E/DX2 analytically  !
 ! A9    A(4,3,20)             118.9524         calculate D2E/DX2 analytically  !
 ! A10   A(3,4,5)              120.7016         calculate D2E/DX2 analytically  !
 ! A11   A(3,4,21)             118.9866         calculate D2E/DX2 analytically  !
 ! A12   A(5,4,21)             120.3102         calculate D2E/DX2 analytically  !
 ! A13   A(4,5,6)              120.6691         calculate D2E/DX2 analytically  !
 ! A14   A(4,5,15)             118.6979         calculate D2E/DX2 analytically  !
 ! A15   A(6,5,15)             120.632          calculate D2E/DX2 analytically  !
 ! A16   A(5,6,7)              113.6921         calculate D2E/DX2 analytically  !
 ! A17   A(5,6,22)             108.5596         calculate D2E/DX2 analytically  !
 ! A18   A(5,6,23)             110.3927         calculate D2E/DX2 analytically  !
 ! A19   A(7,6,22)             110.3886         calculate D2E/DX2 analytically  !
 ! A20   A(7,6,23)             108.4615         calculate D2E/DX2 analytically  !
 ! A21   A(22,6,23)            104.9939         calculate D2E/DX2 analytically  !
 ! A22   A(6,7,8)              120.6903         calculate D2E/DX2 analytically  !
 ! A23   A(6,7,14)             120.5866         calculate D2E/DX2 analytically  !
 ! A24   A(8,7,14)             118.7134         calculate D2E/DX2 analytically  !
 ! A25   A(7,8,9)              120.6542         calculate D2E/DX2 analytically  !
 ! A26   A(7,8,24)             120.4306         calculate D2E/DX2 analytically  !
 ! A27   A(9,8,24)             118.9088         calculate D2E/DX2 analytically  !
 ! A28   A(8,9,10)             120.9449         calculate D2E/DX2 analytically  !
 ! A29   A(8,9,25)             118.9764         calculate D2E/DX2 analytically  !
 ! A30   A(10,9,25)            120.0779         calculate D2E/DX2 analytically  !
 ! A31   A(9,10,11)            119.0769         calculate D2E/DX2 analytically  !
 ! A32   A(9,10,12)            118.1047         calculate D2E/DX2 analytically  !
 ! A33   A(11,10,12)           122.0331         calculate D2E/DX2 analytically  !
 ! A34   A(10,11,26)           112.4413         calculate D2E/DX2 analytically  !
 ! A35   A(10,11,27)           114.2906         calculate D2E/DX2 analytically  !
 ! A36   A(26,11,27)           112.9453         calculate D2E/DX2 analytically  !
 ! A37   A(10,12,13)           120.6033         calculate D2E/DX2 analytically  !
 ! A38   A(10,12,14)           121.0658         calculate D2E/DX2 analytically  !
 ! A39   A(13,12,14)           118.3159         calculate D2E/DX2 analytically  !
 ! A40   A(7,14,12)            120.3762         calculate D2E/DX2 analytically  !
 ! A41   A(7,14,28)            120.0335         calculate D2E/DX2 analytically  !
 ! A42   A(12,14,28)           119.5851         calculate D2E/DX2 analytically  !
 ! A43   A(5,15,16)            120.346          calculate D2E/DX2 analytically  !
 ! A44   A(5,15,29)            120.1801         calculate D2E/DX2 analytically  !
 ! A45   A(16,15,29)           119.4728         calculate D2E/DX2 analytically  !
 ! A46   A(2,16,15)            121.106          calculate D2E/DX2 analytically  !
 ! A47   A(2,16,17)            120.6075         calculate D2E/DX2 analytically  !
 ! A48   A(15,16,17)           118.272          calculate D2E/DX2 analytically  !
 ! D1    D(18,1,2,3)           164.5563         calculate D2E/DX2 analytically  !
 ! D2    D(18,1,2,16)          -25.7619         calculate D2E/DX2 analytically  !
 ! D3    D(19,1,2,3)            34.5592         calculate D2E/DX2 analytically  !
 ! D4    D(19,1,2,16)         -155.759          calculate D2E/DX2 analytically  !
 ! D5    D(1,2,3,4)            174.2839         calculate D2E/DX2 analytically  !
 ! D6    D(1,2,3,20)            -5.6772         calculate D2E/DX2 analytically  !
 ! D7    D(16,2,3,4)             4.1951         calculate D2E/DX2 analytically  !
 ! D8    D(16,2,3,20)         -175.766          calculate D2E/DX2 analytically  !
 ! D9    D(1,2,16,15)         -174.018          calculate D2E/DX2 analytically  !
 ! D10   D(1,2,16,17)            7.3927         calculate D2E/DX2 analytically  !
 ! D11   D(3,2,16,15)           -4.2384         calculate D2E/DX2 analytically  !
 ! D12   D(3,2,16,17)          177.1723         calculate D2E/DX2 analytically  !
 ! D13   D(2,3,4,5)             -1.8388         calculate D2E/DX2 analytically  !
 ! D14   D(2,3,4,21)           178.6106         calculate D2E/DX2 analytically  !
 ! D15   D(20,3,4,5)           178.1228         calculate D2E/DX2 analytically  !
 ! D16   D(20,3,4,21)           -1.4279         calculate D2E/DX2 analytically  !
 ! D17   D(3,4,5,6)            179.754          calculate D2E/DX2 analytically  !
 ! D18   D(3,4,5,15)            -0.6001         calculate D2E/DX2 analytically  !
 ! D19   D(21,4,5,6)            -0.7012         calculate D2E/DX2 analytically  !
 ! D20   D(21,4,5,15)          178.9447         calculate D2E/DX2 analytically  !
 ! D21   D(4,5,6,7)            -70.9499         calculate D2E/DX2 analytically  !
 ! D22   D(4,5,6,22)            52.3246         calculate D2E/DX2 analytically  !
 ! D23   D(4,5,6,23)           166.9052         calculate D2E/DX2 analytically  !
 ! D24   D(15,5,6,7)           109.4111         calculate D2E/DX2 analytically  !
 ! D25   D(15,5,6,22)         -127.3144         calculate D2E/DX2 analytically  !
 ! D26   D(15,5,6,23)          -12.7338         calculate D2E/DX2 analytically  !
 ! D27   D(4,5,15,16)            0.5634         calculate D2E/DX2 analytically  !
 ! D28   D(4,5,15,29)         -179.0526         calculate D2E/DX2 analytically  !
 ! D29   D(6,5,15,16)         -179.7906         calculate D2E/DX2 analytically  !
 ! D30   D(6,5,15,29)            0.5934         calculate D2E/DX2 analytically  !
 ! D31   D(5,6,7,8)            108.2264         calculate D2E/DX2 analytically  !
 ! D32   D(5,6,7,14)           -70.6223         calculate D2E/DX2 analytically  !
 ! D33   D(22,6,7,8)           -14.0434         calculate D2E/DX2 analytically  !
 ! D34   D(22,6,7,14)          167.1079         calculate D2E/DX2 analytically  !
 ! D35   D(23,6,7,8)          -128.5667         calculate D2E/DX2 analytically  !
 ! D36   D(23,6,7,14)           52.5846         calculate D2E/DX2 analytically  !
 ! D37   D(6,7,8,9)           -179.5743         calculate D2E/DX2 analytically  !
 ! D38   D(6,7,8,24)            -0.5031         calculate D2E/DX2 analytically  !
 ! D39   D(14,7,8,9)            -0.7044         calculate D2E/DX2 analytically  !
 ! D40   D(14,7,8,24)          178.3668         calculate D2E/DX2 analytically  !
 ! D41   D(6,7,14,12)          179.4733         calculate D2E/DX2 analytically  !
 ! D42   D(6,7,14,28)            0.2986         calculate D2E/DX2 analytically  !
 ! D43   D(8,7,14,12)            0.6021         calculate D2E/DX2 analytically  !
 ! D44   D(8,7,14,28)         -178.5725         calculate D2E/DX2 analytically  !
 ! D45   D(7,8,9,10)            -1.7415         calculate D2E/DX2 analytically  !
 ! D46   D(7,8,9,25)           177.9224         calculate D2E/DX2 analytically  !
 ! D47   D(24,8,9,10)          179.1734         calculate D2E/DX2 analytically  !
 ! D48   D(24,8,9,25)           -1.1628         calculate D2E/DX2 analytically  !
 ! D49   D(8,9,10,11)          174.2355         calculate D2E/DX2 analytically  !
 ! D50   D(8,9,10,12)            4.1744         calculate D2E/DX2 analytically  !
 ! D51   D(25,9,10,11)          -5.4246         calculate D2E/DX2 analytically  !
 ! D52   D(25,9,10,12)        -175.4858         calculate D2E/DX2 analytically  !
 ! D53   D(9,10,11,26)         164.989          calculate D2E/DX2 analytically  !
 ! D54   D(9,10,11,27)          34.5105         calculate D2E/DX2 analytically  !
 ! D55   D(12,10,11,26)        -25.3568         calculate D2E/DX2 analytically  !
 ! D56   D(12,10,11,27)       -155.8354         calculate D2E/DX2 analytically  !
 ! D57   D(9,10,12,13)         177.1517         calculate D2E/DX2 analytically  !
 ! D58   D(9,10,12,14)          -4.281          calculate D2E/DX2 analytically  !
 ! D59   D(11,10,12,13)          7.4013         calculate D2E/DX2 analytically  !
 ! D60   D(11,10,12,14)       -174.0313         calculate D2E/DX2 analytically  !
 ! D61   D(10,12,14,7)           1.9378         calculate D2E/DX2 analytically  !
 ! D62   D(10,12,14,28)       -178.8838         calculate D2E/DX2 analytically  !
 ! D63   D(13,12,14,7)        -179.4628         calculate D2E/DX2 analytically  !
 ! D64   D(13,12,14,28)         -0.2845         calculate D2E/DX2 analytically  !
 ! D65   D(5,15,16,2)            1.9027         calculate D2E/DX2 analytically  !
 ! D66   D(5,15,16,17)        -179.476          calculate D2E/DX2 analytically  !
 ! D67   D(29,15,16,2)        -178.4786         calculate D2E/DX2 analytically  !
 ! D68   D(29,15,16,17)          0.1428         calculate D2E/DX2 analytically  !
 --------------------------------------------------------------------------------
 Trust Radius=3.00D-01 FncErr=1.00D-07 GrdErr=1.00D-06 EigMax=2.50D+02 EigMin=1.00D-04
 Number of steps in this run=    156 maximum allowed number of steps=    174.
 GradGradGradGradGradGradGradGradGradGradGradGradGradGradGradGradGradGrad

                          Input orientation:                          
 ---------------------------------------------------------------------
 Center     Atomic      Atomic             Coordinates (Angstroms)
 Number     Number       Type             X           Y           Z
 ---------------------------------------------------------------------
      1          7           0       -4.794359    1.507415    0.101669
      2          6           0       -3.588675    0.784822    0.031873
      3          6           0       -2.842105    0.594053    1.198496
      4          6           0       -1.701809   -0.216468    1.197569
      5          6           0       -1.302253   -0.887822    0.034422
      6          6           0       -0.067158   -1.758845    0.032779
      7          6           0        1.225254   -0.980221    0.122226
      8          6           0        1.989491   -0.995794    1.295947
      9          6           0        3.181296   -0.267617    1.380959
     10          6           0        3.657102    0.462989    0.287681
     11          7           0        4.792079    1.278264    0.451834
     12          6           0        2.860426    0.518230   -0.869096
     13         17           0        3.351763    1.463500   -2.232933
     14          6           0        1.669723   -0.209079   -0.960556
     15          6           0       -2.074381   -0.741920   -1.125423
     16          6           0       -3.213841    0.069165   -1.118377
     17         17           0       -4.135934    0.200096   -2.577177
     18          1           0       -5.123291    1.801450   -0.816106
     19          1           0       -4.784632    2.264456    0.777112
     20          1           0       -3.143628    1.077162    2.124552
     21          1           0       -1.131136   -0.324904    2.117778
     22          1           0       -0.141906   -2.472825    0.863653
     23          1           0       -0.037517   -2.379008   -0.872906
     24          1           0        1.656991   -1.563596    2.162641
     25          1           0        3.735430   -0.271687    2.316346
     26          1           0        5.195164    1.567083   -0.437583
     27          1           0        5.481808    0.908294    1.097030
     28          1           0        1.081218   -0.162966   -1.873865
     29          1           0       -1.795123   -1.264227   -2.037302
 ---------------------------------------------------------------------
                    Distance matrix (angstroms):
                    1          2          3          4          5
     1  N    0.000000
     2  C    1.407368   0.000000
     3  C    2.418379   1.398131   0.000000
     4  C    3.706297   2.433453   1.399007   0.000000
     5  C    4.235149   2.832926   2.433550   1.401168   0.000000
     6  C    5.746270   4.344113   3.820386   2.531352   1.511338
     7  C    6.513409   5.128104   4.492227   3.210511   2.530719
     8  C    7.328913   5.990360   5.087379   3.773953   3.526851
     9  C    8.270332   6.982848   6.087456   4.886815   4.722290
    10  C    8.517782   7.257430   6.564027   5.477908   5.146263
    11  N    9.595567   8.405765   7.701065   6.705290   6.481284
    12  C    7.779241   6.517186   6.066262   5.062101   4.485668
    13  Cl   8.474172   7.332096   7.134048   6.334763   5.685901
    14  C    6.771929   5.442748   5.065878   4.003097   3.206760
    15  C    3.736782   2.442000   2.788337   2.410643   1.400967
    16  C    2.460713   1.405610   2.404495   2.780545   2.428773
    17  Cl   3.052675   2.729202   4.010599   4.510787   4.004218
    18  H    1.018314   2.026733   3.274177   4.453473   4.749306
    19  H    1.014608   2.043284   2.596386   3.979393   4.755566
    20  H    2.646146   2.159360   1.087148   2.147468   3.408881
    21  H    4.565226   3.409104   2.148715   1.088215   2.164840
    22  H    6.169947   4.815012   4.099870   2.763321   2.132197
    23  H    6.219455   4.841402   4.582086   3.425392   2.155560
    24  H    7.436305   6.129621   5.082017   3.745351   3.707171
    25  H    8.990400   7.744517   6.727783   5.551421   5.564625
    26  H   10.004245   8.831090   8.259615   7.309105   6.961737
    27  H   10.341629   9.133644   8.330460   7.271832   7.097792
    28  H    6.419915   5.132060   5.040332   4.145094   3.138137
    29  H    4.610056   3.420076   3.875535   3.401602   2.162554
                    6          7          8          9         10
     6  C    0.000000
     7  C    1.511485   0.000000
     8  C    2.531333   1.400686   0.000000
     9  C    3.820184   2.432758   1.399239   0.000000
    10  C    4.344150   2.832687   2.434251   1.398369   0.000000
    11  N    5.745592   4.234576   3.706530   2.418190   1.407051
    12  C    3.816962   2.429374   2.781764   2.404842   1.405659
    13  Cl   5.215936   4.005070   4.511863   4.010741   2.729056
    14  C    2.530859   1.401652   2.411012   2.787647   2.441197
    15  C    2.530713   3.535676   4.737355   5.842008   6.024828
    16  C    3.816856   4.727142   5.834189   6.874436   7.024382
    17  Cl   5.215770   6.117374   7.345208   8.332314   8.307101
    18  H    6.241857   6.994440   7.929502   8.835966   8.950146
    19  H    6.244640   6.861161   7.535725   8.380455   8.645674
    20  H    4.677939   5.227740   5.597557   6.508919   7.071154
    21  H    2.745078   3.156619   3.296030   4.375300   5.186256
    22  H    1.098046   2.155622   2.628945   4.021718   4.835619
    23  H    1.098065   2.131076   3.275052   4.460789   4.803553
    24  H    2.747203   2.165645   1.088170   2.148044   3.409247
    25  H    4.678247   3.408396   2.147987   1.087211   2.159019
    26  H    6.243003   4.749982   4.455313   3.275498   2.027478
    27  H    6.247983   4.757623   3.982637   2.599180   2.045213
    28  H    2.738775   2.161719   3.400922   3.874940   3.420421
    29  H    2.741485   3.723828   5.050337   6.119026   6.173781
                   11         12         13         14         15
    11  N    0.000000
    12  C    2.460446   0.000000
    13  Cl   3.052343   1.730607   0.000000
    14  C    3.735792   1.398255   2.691788   0.000000
    15  C    7.329198   5.099607   5.960998   3.785421   0.000000
    16  C    8.247559   6.095942   6.803937   4.894029   1.398670
    17  Cl   9.489298   7.208869   7.601336   6.040409   2.691651
    18  H   10.009793   8.086358   8.599311   7.085769   3.982494
    19  H    9.632848   8.012878   8.712223   7.127170   4.472515
    20  H    8.112574   6.732235   7.831158   5.860090   3.874879
    21  H    6.358458   5.056170   6.497959   4.163456   3.403229
    22  H    6.211640   4.578517   6.106490   3.425534   3.269085
    23  H    6.201256   4.097813   5.301109   2.762416   2.625383
    24  H    4.564187   3.869585   5.599700   3.404297   5.040799
    25  H    2.644855   3.396563   4.884057   3.874164   6.769106
    26  H    1.018311   2.595631   2.575294   3.982084   7.658388
    27  H    1.014338   3.299916   3.991742   4.473720   8.047266
    28  H    4.610478   2.153873   2.815972   1.087473   3.294413
    29  H    7.486741   5.120155   5.828310   3.778607   1.087342
                   16         17         18         19         20
    16  C    0.000000
    17  Cl   1.730751   0.000000
    18  H    2.595800   2.576932   0.000000
    19  H    3.298418   3.991697   1.693343   0.000000
    20  H    3.396701   4.884688   3.618166   2.432726   0.000000
    21  H    3.868546   5.598843   5.391323   4.674420   2.452745
    22  H    4.452745   5.910675   6.775338   6.633568   4.816909
    23  H    4.017815   5.133550   6.583658   6.842471   5.529719
    24  H    6.095571   7.689894   8.134414   7.620248   5.479142
    25  H    7.759244   9.280491   9.622218   9.021791   7.012675
    26  H    8.568466   9.670363  10.328055  10.077606   8.737277
    27  H    9.012573  10.319995  10.813230  10.360565   8.688064
    28  H    4.367170   5.276849   6.593460   6.879553   5.947653
    29  H    2.152933   2.813380   4.686833   5.413843   4.962016
                   21         22         23         24         25
    21  H    0.000000
    22  H    2.676746   0.000000
    23  H    3.789398   1.742221   0.000000
    24  H    3.051233   2.397936   3.570826   0.000000
    25  H    4.870906   4.689250   5.370965   2.452053   0.000000
    26  H    7.080365   6.818973   6.568264   5.392679   3.618843
    27  H    6.803950   6.566017   6.719371   4.677070   2.434937
    28  H    4.566613   3.784902   2.676626   4.311225   4.961303
    29  H    4.311369   3.550968   2.384896   5.444835   7.108192
                   26         27         28         29
    26  H    0.000000
    27  H    1.694464   0.000000
    28  H    4.688340   5.416549   0.000000
    29  H    7.709704   8.215692   3.084286   0.000000
 Stoichiometry    C13H12Cl2N2
 Framework group  C1[X(C13H12Cl2N2)]
 Deg. of freedom    81
 Full point group                 C1      NOp   1
 Largest Abelian subgroup         C1      NOp   1
 Largest concise Abelian subgroup C1      NOp   1
                         Standard orientation:                         
 ---------------------------------------------------------------------
 Center     Atomic      Atomic             Coordinates (Angstroms)
 Number     Number       Type             X           Y           Z
 ---------------------------------------------------------------------
      1          7           0       -4.601255   -0.364451    1.678369
      2          6           0       -3.423468   -0.475654    0.916046
      3          6           0       -2.590910   -1.582177    1.108975
      4          6           0       -1.474965   -1.793087    0.292026
      5          6           0       -1.186707   -0.919473   -0.764846
      6          6           0        0.022132   -1.144885   -1.643504
      7          6           0        1.336615   -0.867165   -0.950979
      8          6           0        2.191725   -1.917087   -0.592690
      9          6           0        3.404340   -1.659745    0.056317
     10          6           0        3.809217   -0.349687    0.330649
     11          7           0        4.973716   -0.139073    1.091817
     12          6           0        2.924130    0.696337    0.017071
     13         17           0        3.328192    2.335841    0.396226
     14          6           0        1.712119    0.445389   -0.633446
     15          6           0       -2.045313    0.163146   -0.996017
     16          6           0       -3.159920    0.368603   -0.176434
     17         17           0       -4.192267    1.714890   -0.518878
     18          1           0       -4.995145    0.574101    1.647818
     19          1           0       -4.518570   -0.725735    2.622862
     20          1           0       -2.805164   -2.294827    1.901513
     21          1           0       -0.835352   -2.652203    0.484445
     22          1           0       -0.003690   -2.177783   -2.015202
     23          1           0       -0.036333   -0.517741   -2.542959
     24          1           0        1.915582   -2.948648   -0.801833
     25          1           0        4.031297   -2.497144    0.352488
     26          1           0        5.311405    0.819529    1.028527
     27          1           0        5.703414   -0.826422    0.936979
     28          1           0        1.053731    1.274815   -0.880782
     29          1           0       -1.853089    0.847216   -1.819067
 ---------------------------------------------------------------------
 Rotational constants (GHZ):           0.6944612           0.1713080           0.1542486
 Standard basis: 6-31G(d,p) (6D, 7F)
 There are   323 symmetry adapted cartesian basis functions of A   symmetry.
 There are   323 symmetry adapted basis functions of A   symmetry.
   323 basis functions,   608 primitive gaussians,   323 cartesian basis functions
    69 alpha electrons       69 beta electrons
       nuclear repulsion energy      1307.5473313835 Hartrees.
 NAtoms=   29 NActive=   29 NUniq=   29 SFac= 1.00D+00 NAtFMM=   60 NAOKFM=F Big=F
 Integral buffers will be    131072 words long.
 Raffenetti 2 integral format.
 Two-electron integral symmetry is turned on.
 Force inversion solution in PCM.
 ------------------------------------------------------------------------------
 Polarizable Continuum Model (PCM)
 =================================
 Model                : PCM.
 Atomic radii         : UFF (Universal Force Field).
 Polarization charges : Total charges.
 Charge compensation  : None.
 Solution method      : Matrix inversion.
 Cavity type          : Scaled VdW (van der Waals Surface) (Alpha=1.100).
 Cavity algorithm     : GePol (No added spheres)
                        Default sphere list used, NSphG=   29.
                        Lebedev-Laikov grids with approx.  5.0 points / Ang**2.
                        Smoothing algorithm: York/Karplus (Gamma=1.0000).
                        Polarization charges: spherical gaussians, with
                                              point-specific exponents (IZeta= 3).
                        Self-potential: point-specific (ISelfS= 7).
                        Self-field    : sphere-specific E.n sum rule (ISelfD= 2).
 1st derivatives      : Analytical E(r).r(x)/FMM algorithm (CHGder, D1EAlg=3).
                        Cavity 1st derivative terms included.
 2nd derivatives      : Analytical E(r).r(xy)/FMM algorithm (CHGder, D2EAlg=3).
                        Cavity 2nd derivative terms included.
 Solvent              : Water, Eps=  78.355300 Eps(inf)=   1.777849
 ------------------------------------------------------------------------------
 One-electron integrals computed using PRISM.
 NBasis=   323 RedAO= T EigKep=  4.20D-04  NBF=   323
 NBsUse=   323 1.00D-06 EigRej= -1.00D+00 NBFU=   323
 ExpMin= 1.43D-01 ExpMax= 2.52D+04 ExpMxC= 3.78D+03 IAcc=3 IRadAn=         5 AccDes= 0.00D+00
 Harris functional with IExCor=  402 and IRadAn=       5 diagonalized for initial guess.
 HarFok:  IExCor=  402 AccDes= 0.00D+00 IRadAn=         5 IDoV= 1 UseB2=F ITyADJ=14
 ICtDFT=  3500011 ScaDFX=  1.000000  1.000000  1.000000  1.000000
 FoFCou: FMM=F IPFlag=           0 FMFlag=      100000 FMFlg1=           0
         NFxFlg=           0 DoJE=T BraDBF=F KetDBF=T FulRan=T
         wScrn=  0.000000 ICntrl=       500 IOpCl=  0 I1Cent=   200000004 NGrid=           0
         NMat0=    1 NMatS0=      1 NMatT0=    0 NMatD0=    1 NMtDS0=    0 NMtDT0=    0
 Petite list used in FoFCou.
 Requested convergence on RMS density matrix=1.00D-08 within  32 cycles.
 Requested convergence on MAX density matrix=1.00D-06.
 Requested convergence on             energy=1.00D-06.
 No special actions if energy rises.
 Inv3:  Mode=1 IEnd=    15759792.
 Iteration    1 A*A^-1 deviation from unit magnitude is 3.33D-15 for   1982.
 Iteration    1 A*A^-1 deviation from orthogonality  is 2.30D-15 for   1956    549.
 Iteration    1 A^-1*A deviation from unit magnitude is 3.33D-15 for   1982.
 Iteration    1 A^-1*A deviation from orthogonality  is 2.27D-14 for    874    841.
 Error on total polarization charges =  0.01166
 SCF Done:  E(RB3LYP) =  -1532.54791656     A.U. after   13 cycles
            NFock= 13  Conv=0.52D-08     -V/T= 2.0057
 QCSCF skips out because SCF is already converged.
 DoSCS=F DFT=T ScalE2(SS,OS)=  1.000000  1.000000
 Range of M.O.s used for correlation:     1   323
 NBasis=   323 NAE=    69 NBE=    69 NFC=     0 NFV=     0
 NROrb=    323 NOA=    69 NOB=    69 NVA=   254 NVB=   254
 Symmetrizing basis deriv contribution to polar:
 IMax=3 JMax=2 DiffMx= 0.00D+00
 G2DrvN: will do    30 centers at a time, making    1 passes.
 Calling FoFCou, ICntrl=  3107 FMM=F I1Cent=   0 AccDes= 0.00D+00.
 NEqPCM:  Using equilibrium solvation (IEInf=0, Eps=  78.3553, EpsInf=   1.7778)
 G2PCM: DoFxE=T DoFxN=T DoGrad=T DoDP/DQ/DG/TGxP=FFFF NFrqRd=   0 IEInf=0 SqF1=F DoCFld=F IF1Alg=4.
 End of G2Drv F.D. properties file   721 does not exist.
 End of G2Drv F.D. properties file   722 does not exist.
 End of G2Drv F.D. properties file   788 does not exist.
          IDoAtm=11111111111111111111111111111
 NEqPCM:  Using equilibrium solvation (IEInf=0, Eps=  78.3553, EpsInf=   1.7778)
          Differentiating once with respect to nuclear coordinates.
 CalDSu exits because no D1Ps are significant.
          There are    90 degrees of freedom in the 1st order CPHF.  IDoFFX=6 NUNeed=     0.
     84 vectors produced by pass  0 Test12= 1.95D-14 1.11D-09 XBig12= 1.57D-01 1.22D-01.
 AX will form    84 AO Fock derivatives at one time.
     84 vectors produced by pass  1 Test12= 1.95D-14 1.11D-09 XBig12= 2.68D-02 2.75D-02.
     84 vectors produced by pass  2 Test12= 1.95D-14 1.11D-09 XBig12= 2.31D-04 1.59D-03.
     84 vectors produced by pass  3 Test12= 1.95D-14 1.11D-09 XBig12= 6.46D-07 8.73D-05.
     84 vectors produced by pass  4 Test12= 1.95D-14 1.11D-09 XBig12= 8.67D-10 2.72D-06.
     68 vectors produced by pass  5 Test12= 1.95D-14 1.11D-09 XBig12= 8.48D-13 1.07D-07.
     18 vectors produced by pass  6 Test12= 1.95D-14 1.11D-09 XBig12= 8.02D-16 3.48D-09.
 InvSVY:  IOpt=1 It=  1 EMax= 5.00D-16
 Solved reduced A of dimension   506 with    90 vectors.
 End of Minotr F.D. properties file   721 does not exist.
 End of Minotr F.D. properties file   722 does not exist.
 End of Minotr F.D. properties file   788 does not exist.

 **********************************************************************

            Population analysis using the SCF density.

 **********************************************************************

 Orbital symmetries:
       Occupied  (A) (A) (A) (A) (A) (A) (A) (A) (A) (A) (A) (A)
                 (A) (A) (A) (A) (A) (A) (A) (A) (A) (A) (A) (A)
                 (A) (A) (A) (A) (A) (A) (A) (A) (A) (A) (A) (A)
                 (A) (A) (A) (A) (A) (A) (A) (A) (A) (A) (A) (A)
                 (A) (A) (A) (A) (A) (A) (A) (A) (A) (A) (A) (A)
                 (A) (A) (A) (A) (A) (A) (A) (A) (A)
       Virtual   (A) (A) (A) (A) (A) (A) (A) (A) (A) (A) (A) (A)
                 (A) (A) (A) (A) (A) (A) (A) (A) (A) (A) (A) (A)
                 (A) (A) (A) (A) (A) (A) (A) (A) (A) (A) (A) (A)
                 (A) (A) (A) (A) (A) (A) (A) (A) (A) (A) (A) (A)
                 (A) (A) (A) (A) (A) (A) (A) (A) (A) (A) (A) (A)
                 (A) (A) (A) (A) (A) (A) (A) (A) (A) (A) (A) (A)
                 (A) (A) (A) (A) (A) (A) (A) (A) (A) (A) (A) (A)
                 (A) (A) (A) (A) (A) (A) (A) (A) (A) (A) (A) (A)
                 (A) (A) (A) (A) (A) (A) (A) (A) (A) (A) (A) (A)
                 (A) (A) (A) (A) (A) (A) (A) (A) (A) (A) (A) (A)
                 (A) (A) (A) (A) (A) (A) (A) (A) (A) (A) (A) (A)
                 (A) (A) (A) (A) (A) (A) (A) (A) (A) (A) (A) (A)
                 (A) (A) (A) (A) (A) (A) (A) (A) (A) (A) (A) (A)
                 (A) (A) (A) (A) (A) (A) (A) (A) (A) (A) (A) (A)
                 (A) (A) (A) (A) (A) (A) (A) (A) (A) (A) (A) (A)
                 (A) (A) (A) (A) (A) (A) (A) (A) (A) (A) (A) (A)
                 (A) (A) (A) (A) (A) (A) (A) (A) (A) (A) (A) (A)
                 (A) (A) (A) (A) (A) (A) (A) (A) (A) (A) (A) (A)
                 (A) (A) (A) (A) (A) (A) (A) (A) (A) (A) (A) (A)
                 (A) (A) (A) (A) (A) (A) (A) (A) (A) (A) (A) (A)
                 (A) (A) (A) (A) (A) (A) (A) (A) (A) (A) (A) (A)
                 (A) (A)
 The electronic state is 1-A.
 Alpha  occ. eigenvalues -- -101.55723-101.55695 -14.34212 -14.34202 -10.24615
 Alpha  occ. eigenvalues --  -10.24507 -10.23921 -10.23916 -10.19862 -10.19849
 Alpha  occ. eigenvalues --  -10.19585 -10.19574 -10.19241 -10.19210 -10.19189
 Alpha  occ. eigenvalues --  -10.19173 -10.19077  -9.47379  -9.47350  -7.23744
 Alpha  occ. eigenvalues --   -7.23714  -7.22813  -7.22797  -7.22784  -7.22768
 Alpha  occ. eigenvalues --   -0.92816  -0.92784  -0.87558  -0.87437  -0.84740
 Alpha  occ. eigenvalues --   -0.83030  -0.77332  -0.73871  -0.73446  -0.72112
 Alpha  occ. eigenvalues --   -0.67262  -0.61972  -0.61695  -0.59286  -0.57104
 Alpha  occ. eigenvalues --   -0.52024  -0.51901  -0.51596  -0.51163  -0.47168
 Alpha  occ. eigenvalues --   -0.46655  -0.45291  -0.44214  -0.43774  -0.43142
 Alpha  occ. eigenvalues --   -0.42900  -0.42525  -0.40747  -0.40467  -0.38793
 Alpha  occ. eigenvalues --   -0.37612  -0.36267  -0.35574  -0.34469  -0.34061
 Alpha  occ. eigenvalues --   -0.34056  -0.32265  -0.31977  -0.30876  -0.30328
 Alpha  occ. eigenvalues --   -0.24807  -0.24658  -0.21293  -0.20325
 Alpha virt. eigenvalues --   -0.01572  -0.01050  -0.00038   0.01558   0.03724
 Alpha virt. eigenvalues --    0.03976   0.09547   0.09634   0.10304   0.12172
 Alpha virt. eigenvalues --    0.13012   0.14231   0.15050   0.15634   0.15898
 Alpha virt. eigenvalues --    0.16647   0.17339   0.18199   0.18422   0.20711
 Alpha virt. eigenvalues --    0.23500   0.24773   0.27343   0.27715   0.28719
 Alpha virt. eigenvalues --    0.29381   0.30653   0.31222   0.31769   0.33873
 Alpha virt. eigenvalues --    0.34668   0.35566   0.39637   0.39817   0.41223
 Alpha virt. eigenvalues --    0.41323   0.42938   0.43477   0.43597   0.45130
 Alpha virt. eigenvalues --    0.49008   0.49466   0.50906   0.51768   0.52218
 Alpha virt. eigenvalues --    0.53310   0.53682   0.54867   0.55088   0.55804
 Alpha virt. eigenvalues --    0.58497   0.58573   0.58713   0.58802   0.59796
 Alpha virt. eigenvalues --    0.60257   0.60705   0.61472   0.61993   0.62968
 Alpha virt. eigenvalues --    0.63945   0.64578   0.65061   0.66570   0.69174
 Alpha virt. eigenvalues --    0.69312   0.69956   0.72203   0.72828   0.74877
 Alpha virt. eigenvalues --    0.75396   0.75663   0.76983   0.78150   0.79925
 Alpha virt. eigenvalues --    0.80629   0.81478   0.82164   0.82330   0.83136
 Alpha virt. eigenvalues --    0.84006   0.84730   0.85195   0.85297   0.86760
 Alpha virt. eigenvalues --    0.86990   0.87526   0.87953   0.90646   0.91260
 Alpha virt. eigenvalues --    0.91922   0.92248   0.93017   0.93237   0.94423
 Alpha virt. eigenvalues --    0.95347   0.96031   0.96232   0.98710   0.99392
 Alpha virt. eigenvalues --    1.00911   1.01322   1.04911   1.05872   1.10023
 Alpha virt. eigenvalues --    1.10643   1.11108   1.12734   1.13216   1.14766
 Alpha virt. eigenvalues --    1.16064   1.18790   1.19029   1.20219   1.25214
 Alpha virt. eigenvalues --    1.25675   1.27482   1.29071   1.31871   1.33158
 Alpha virt. eigenvalues --    1.34214   1.36236   1.38012   1.39654   1.40381
 Alpha virt. eigenvalues --    1.41130   1.41169   1.42778   1.45400   1.50094
 Alpha virt. eigenvalues --    1.51049   1.52321   1.52503   1.54735   1.58097
 Alpha virt. eigenvalues --    1.62002   1.74402   1.75634   1.76096   1.77281
 Alpha virt. eigenvalues --    1.77912   1.79628   1.80455   1.82359   1.82664
 Alpha virt. eigenvalues --    1.84668   1.86006   1.86451   1.87544   1.88703
 Alpha virt. eigenvalues --    1.89168   1.90309   1.93420   1.94901   1.97582
 Alpha virt. eigenvalues --    1.97834   1.98324   1.98849   2.00446   2.02279
 Alpha virt. eigenvalues --    2.03939   2.04436   2.06706   2.07825   2.08983
 Alpha virt. eigenvalues --    2.13293   2.14444   2.15881   2.16307   2.17168
 Alpha virt. eigenvalues --    2.21808   2.23161   2.24222   2.26720   2.27129
 Alpha virt. eigenvalues --    2.29008   2.29711   2.30883   2.32820   2.33382
 Alpha virt. eigenvalues --    2.34127   2.34695   2.35146   2.35950   2.41607
 Alpha virt. eigenvalues --    2.43553   2.44415   2.46103   2.46650   2.47446
 Alpha virt. eigenvalues --    2.48258   2.48924   2.50350   2.53164   2.53818
 Alpha virt. eigenvalues --    2.55321   2.56313   2.58339   2.58893   2.61795
 Alpha virt. eigenvalues --    2.63551   2.64907   2.65023   2.65867   2.68068
 Alpha virt. eigenvalues --    2.69805   2.71333   2.76790   2.77050   2.79036
 Alpha virt. eigenvalues --    2.80453   2.85091   2.85853   2.88241   2.90111
 Alpha virt. eigenvalues --    2.96215   2.96800   2.99373   3.01105   3.02915
 Alpha virt. eigenvalues --    3.08996   3.17318   3.18727   3.24965   3.26447
 Alpha virt. eigenvalues --    3.27457   3.28339   3.31374   3.34064   3.34349
 Alpha virt. eigenvalues --    3.42460   3.42677   3.47767   3.49089   3.50640
 Alpha virt. eigenvalues --    3.74030   3.75063   4.03865   4.03938   4.07899
 Alpha virt. eigenvalues --    4.08016   4.13745   4.14489   4.16857   4.22037
 Alpha virt. eigenvalues --    4.28304   4.28409   4.39829   4.41752   4.42469
 Alpha virt. eigenvalues --    4.47202   4.58108   4.79063   4.82455
          Condensed to atoms (all electrons):
               1          2          3          4          5          6
     1  N    6.817369   0.318121  -0.067641   0.004570   0.000450   0.000000
     2  C    0.318121   4.630884   0.521197  -0.024266  -0.027616   0.000279
     3  C   -0.067641   0.521197   4.941779   0.512709  -0.029304   0.005906
     4  C    0.004570  -0.024266   0.512709   4.915048   0.531799  -0.060711
     5  C    0.000450  -0.027616  -0.029304   0.531799   4.730881   0.353084
     6  C    0.000000   0.000279   0.005906  -0.060711   0.353084   5.116957
     7  C   -0.000000  -0.000010   0.000267  -0.001300  -0.057650   0.353767
     8  C   -0.000000   0.000001   0.000016   0.001855  -0.004236  -0.046288
     9  C    0.000000   0.000000   0.000000  -0.000105  -0.000061   0.006308
    10  C    0.000000   0.000000   0.000000  -0.000002   0.000059   0.000513
    11  N   -0.000000  -0.000000   0.000000   0.000000   0.000000   0.000001
    12  C   -0.000000   0.000000  -0.000002  -0.000044   0.000103   0.005922
    13  Cl   0.000000  -0.000000   0.000000   0.000002  -0.000001  -0.000176
    14  C   -0.000000  -0.000003  -0.000044  -0.000588  -0.000945  -0.060062
    15  C    0.003919  -0.028732  -0.047136  -0.040586   0.540636  -0.046514
    16  C   -0.075712   0.498205  -0.047732  -0.042530  -0.034411   0.007120
    17  Cl  -0.007439  -0.071920   0.004388   0.000498   0.004065  -0.000173
    18  H    0.338479  -0.025309   0.005724  -0.000191  -0.000017  -0.000000
    19  H    0.344463  -0.024545  -0.009982  -0.000019  -0.000016  -0.000000
    20  H   -0.007403  -0.041224   0.366420  -0.031637   0.003352  -0.000185
    21  H   -0.000111   0.004199  -0.037227   0.366224  -0.042601  -0.007970
    22  H    0.000000   0.000047   0.000028  -0.006886  -0.029171   0.363655
    23  H   -0.000000  -0.000001  -0.000188   0.005463  -0.033405   0.362895
    24  H    0.000000   0.000000   0.000003  -0.000006   0.000152  -0.009296
    25  H    0.000000  -0.000000   0.000000   0.000002  -0.000001  -0.000187
    26  H    0.000000  -0.000000   0.000000   0.000000   0.000000   0.000000
    27  H    0.000000   0.000000  -0.000000  -0.000000   0.000000  -0.000000
    28  H    0.000000  -0.000001  -0.000013   0.000182   0.001916  -0.008658
    29  H   -0.000097   0.003352   0.000461   0.005688  -0.032872  -0.010048
               7          8          9         10         11         12
     1  N   -0.000000  -0.000000   0.000000   0.000000  -0.000000  -0.000000
     2  C   -0.000010   0.000001   0.000000   0.000000  -0.000000   0.000000
     3  C    0.000267   0.000016   0.000000   0.000000   0.000000  -0.000002
     4  C   -0.001300   0.001855  -0.000105  -0.000002   0.000000  -0.000044
     5  C   -0.057650  -0.004236  -0.000061   0.000059   0.000000   0.000103
     6  C    0.353767  -0.046288   0.006308   0.000513   0.000001   0.005922
     7  C    4.734918   0.546813  -0.033252  -0.026541   0.000509  -0.032572
     8  C    0.546813   4.909908   0.502606  -0.024817   0.004479  -0.042043
     9  C   -0.033252   0.502606   4.954804   0.525566  -0.068098  -0.048054
    10  C   -0.026541  -0.024817   0.525566   4.629196   0.318157   0.494300
    11  N    0.000509   0.004479  -0.068098   0.318157   6.818092  -0.075265
    12  C   -0.032572  -0.042043  -0.048054   0.494300  -0.075265   5.182115
    13  Cl   0.003896   0.000550   0.004370  -0.071213  -0.007530   0.212733
    14  C    0.525695  -0.041374  -0.046380  -0.029624   0.003859   0.495993
    15  C   -0.004783  -0.000158   0.000005   0.000001  -0.000000   0.000015
    16  C    0.000057   0.000007  -0.000000  -0.000000   0.000000   0.000000
    17  Cl   0.000001  -0.000000   0.000000  -0.000000   0.000000  -0.000000
    18  H   -0.000000  -0.000000  -0.000000   0.000000  -0.000000  -0.000000
    19  H   -0.000000  -0.000000   0.000000   0.000000  -0.000000  -0.000000
    20  H    0.000003   0.000000  -0.000000  -0.000000   0.000000   0.000000
    21  H    0.001305   0.001648   0.000062  -0.000006  -0.000000  -0.000007
    22  H   -0.033300  -0.007878   0.000341  -0.000003  -0.000000  -0.000183
    23  H   -0.029297   0.002885  -0.000251  -0.000001  -0.000000   0.000143
    24  H   -0.040434   0.367517  -0.038893   0.004186  -0.000111   0.000621
    25  H    0.003470  -0.030756   0.365700  -0.041676  -0.007458   0.005150
    26  H   -0.000004  -0.000201   0.005741  -0.025156   0.338407  -0.013586
    27  H   -0.000004  -0.000054  -0.009893  -0.024168   0.344546   0.006152
    28  H   -0.035674   0.005532   0.000465   0.003347  -0.000099  -0.043227
    29  H    0.000090  -0.000006   0.000000   0.000000  -0.000000   0.000004
              13         14         15         16         17         18
     1  N    0.000000  -0.000000   0.003919  -0.075712  -0.007439   0.338479
     2  C   -0.000000  -0.000003  -0.028732   0.498205  -0.071920  -0.025309
     3  C    0.000000  -0.000044  -0.047136  -0.047732   0.004388   0.005724
     4  C    0.000002  -0.000588  -0.040586  -0.042530   0.000498  -0.000191
     5  C   -0.000001  -0.000945   0.540636  -0.034411   0.004065  -0.000017
     6  C   -0.000176  -0.060062  -0.046514   0.007120  -0.000173  -0.000000
     7  C    0.003896   0.525695  -0.004783   0.000057   0.000001  -0.000000
     8  C    0.000550  -0.041374  -0.000158   0.000007  -0.000000  -0.000000
     9  C    0.004370  -0.046380   0.000005  -0.000000   0.000000  -0.000000
    10  C   -0.071213  -0.029624   0.000001  -0.000000  -0.000000   0.000000
    11  N   -0.007530   0.003859  -0.000000   0.000000   0.000000  -0.000000
    12  C    0.212733   0.495993   0.000015   0.000000  -0.000000  -0.000000
    13  Cl  16.946597  -0.070349  -0.000000  -0.000000   0.000000   0.000000
    14  C   -0.070349   4.967273   0.001827  -0.000112   0.000002  -0.000000
    15  C   -0.000000   0.001827   4.968788   0.478658  -0.069182   0.000137
    16  C   -0.000000  -0.000112   0.478658   5.201999   0.211568  -0.013640
    17  Cl   0.000000   0.000002  -0.069182   0.211568  16.948556   0.014108
    18  H    0.000000  -0.000000   0.000137  -0.013640   0.014108   0.426636
    19  H    0.000000   0.000000  -0.000069   0.006183   0.000116  -0.025964
    20  H   -0.000000   0.000001   0.000853   0.005146  -0.000161   0.000005
    21  H    0.000000   0.000160   0.005716   0.000612   0.000013   0.000003
    22  H    0.000003   0.005447   0.002935  -0.000334   0.000004   0.000000
    23  H   -0.000004  -0.007302  -0.007763   0.000324  -0.000016   0.000000
    24  H    0.000013   0.005791  -0.000005  -0.000000  -0.000000   0.000000
    25  H   -0.000161   0.000820  -0.000000   0.000000  -0.000000   0.000000
    26  H    0.014188   0.000108   0.000000  -0.000000  -0.000000   0.000000
    27  H    0.000117  -0.000084   0.000000  -0.000000  -0.000000   0.000000
    28  H   -0.000535   0.368366   0.001813   0.000039  -0.000007   0.000000
    29  H   -0.000001   0.000013   0.370055  -0.045360  -0.000635  -0.000001
              19         20         21         22         23         24
     1  N    0.344463  -0.007403  -0.000111   0.000000  -0.000000   0.000000
     2  C   -0.024545  -0.041224   0.004199   0.000047  -0.000001   0.000000
     3  C   -0.009982   0.366420  -0.037227   0.000028  -0.000188   0.000003
     4  C   -0.000019  -0.031637   0.366224  -0.006886   0.005463  -0.000006
     5  C   -0.000016   0.003352  -0.042601  -0.029171  -0.033405   0.000152
     6  C   -0.000000  -0.000185  -0.007970   0.363655   0.362895  -0.009296
     7  C   -0.000000   0.000003   0.001305  -0.033300  -0.029297  -0.040434
     8  C   -0.000000   0.000000   0.001648  -0.007878   0.002885   0.367517
     9  C    0.000000  -0.000000   0.000062   0.000341  -0.000251  -0.038893
    10  C    0.000000  -0.000000  -0.000006  -0.000003  -0.000001   0.004186
    11  N   -0.000000   0.000000  -0.000000  -0.000000  -0.000000  -0.000111
    12  C   -0.000000   0.000000  -0.000007  -0.000183   0.000143   0.000621
    13  Cl   0.000000  -0.000000   0.000000   0.000003  -0.000004   0.000013
    14  C    0.000000   0.000001   0.000160   0.005447  -0.007302   0.005791
    15  C   -0.000069   0.000853   0.005716   0.002935  -0.007763  -0.000005
    16  C    0.006183   0.005146   0.000612  -0.000334   0.000324  -0.000000
    17  Cl   0.000116  -0.000161   0.000013   0.000004  -0.000016  -0.000000
    18  H   -0.025964   0.000005   0.000003   0.000000   0.000000   0.000000
    19  H    0.421137   0.003866  -0.000005   0.000000   0.000000   0.000000
    20  H    0.003866   0.598410  -0.005493  -0.000003   0.000002  -0.000000
    21  H   -0.000005  -0.005493   0.608711   0.002622   0.000095   0.000596
    22  H    0.000000  -0.000003   0.002622   0.610873  -0.034403   0.005603
    23  H    0.000000   0.000002   0.000095  -0.034403   0.613252   0.000094
    24  H    0.000000  -0.000000   0.000596   0.005603   0.000094   0.607796
    25  H    0.000000  -0.000000  -0.000002  -0.000006   0.000003  -0.005622
    26  H    0.000000  -0.000000  -0.000000  -0.000000  -0.000000   0.000003
    27  H    0.000000  -0.000000  -0.000000   0.000000  -0.000000  -0.000006
    28  H    0.000000  -0.000000  -0.000009   0.000116   0.002463  -0.000158
    29  H    0.000003   0.000015  -0.000158   0.000133   0.005763  -0.000000
              25         26         27         28         29
     1  N    0.000000   0.000000   0.000000   0.000000  -0.000097
     2  C   -0.000000  -0.000000   0.000000  -0.000001   0.003352
     3  C    0.000000   0.000000  -0.000000  -0.000013   0.000461
     4  C    0.000002   0.000000  -0.000000   0.000182   0.005688
     5  C   -0.000001   0.000000   0.000000   0.001916  -0.032872
     6  C   -0.000187   0.000000  -0.000000  -0.008658  -0.010048
     7  C    0.003470  -0.000004  -0.000004  -0.035674   0.000090
     8  C   -0.030756  -0.000201  -0.000054   0.005532  -0.000006
     9  C    0.365700   0.005741  -0.009893   0.000465   0.000000
    10  C   -0.041676  -0.025156  -0.024168   0.003347   0.000000
    11  N   -0.007458   0.338407   0.344546  -0.000099  -0.000000
    12  C    0.005150  -0.013586   0.006152  -0.043227   0.000004
    13  Cl  -0.000161   0.014188   0.000117  -0.000535  -0.000001
    14  C    0.000820   0.000108  -0.000084   0.368366   0.000013
    15  C   -0.000000   0.000000   0.000000   0.001813   0.370055
    16  C    0.000000  -0.000000  -0.000000   0.000039  -0.045360
    17  Cl  -0.000000  -0.000000  -0.000000  -0.000007  -0.000635
    18  H    0.000000   0.000000   0.000000   0.000000  -0.000001
    19  H    0.000000   0.000000   0.000000   0.000000   0.000003
    20  H   -0.000000  -0.000000  -0.000000  -0.000000   0.000015
    21  H   -0.000002  -0.000000  -0.000000  -0.000009  -0.000158
    22  H   -0.000006  -0.000000   0.000000   0.000116   0.000133
    23  H    0.000003  -0.000000  -0.000000   0.002463   0.005763
    24  H   -0.005622   0.000003  -0.000006  -0.000158  -0.000000
    25  H    0.599841   0.000006   0.003855   0.000015  -0.000000
    26  H    0.000006   0.426499  -0.025953  -0.000001  -0.000000
    27  H    0.003855  -0.025953   0.420443   0.000003  -0.000000
    28  H    0.000015  -0.000001   0.000003   0.590765   0.000511
    29  H   -0.000000  -0.000000  -0.000000   0.000511   0.589359
 Mulliken charges:
               1
     1  N   -0.668968
     2  C    0.267343
     3  C   -0.119631
     4  C   -0.135168
     5  C    0.125811
     6  C   -0.326139
     7  C    0.124032
     8  C   -0.146007
     9  C   -0.120981
    10  C    0.267882
    11  N   -0.669489
    12  C   -0.148268
    13  Cl  -0.032496
    14  C   -0.118487
    15  C   -0.130430
    16  C   -0.150088
    17  Cl  -0.033786
    18  H    0.280030
    19  H    0.284832
    20  H    0.108034
    21  H    0.101621
    22  H    0.120360
    23  H    0.119247
    24  H    0.102157
    25  H    0.107007
    26  H    0.279951
    27  H    0.285047
    28  H    0.112850
    29  H    0.113733
 Sum of Mulliken charges =  -0.00000
 Mulliken charges with hydrogens summed into heavy atoms:
               1
     1  N   -0.104106
     2  C    0.267343
     3  C   -0.011597
     4  C   -0.033547
     5  C    0.125811
     6  C   -0.086532
     7  C    0.124032
     8  C   -0.043850
     9  C   -0.013974
    10  C    0.267882
    11  N   -0.104492
    12  C   -0.148268
    13  Cl  -0.032496
    14  C   -0.005637
    15  C   -0.016697
    16  C   -0.150088
    17  Cl  -0.033786
 APT charges:
               1
     1  N   -1.110396
     2  C    0.120385
     3  C   -0.420594
     4  C   -0.514736
     5  C   -0.409219
     6  C   -0.957509
     7  C   -0.398914
     8  C   -0.531886
     9  C   -0.372121
    10  C    0.204536
    11  N   -1.541343
    12  C   -0.118197
    13  Cl  -0.022322
    14  C   -0.517405
    15  C   -0.438131
    16  C   -0.047131
    17  Cl   0.013950
    18  H    0.698751
    19  H    0.709892
    20  H    0.651496
    21  H    0.392080
    22  H    0.526367
    23  H    0.402647
    24  H    0.513236
    25  H    0.788265
    26  H    0.698402
    27  H    1.113121
    28  H    0.197749
    29  H    0.369029
 Sum of APT charges =  -0.00000
 APT charges with hydrogens summed into heavy atoms:
               1
     1  N    0.298247
     2  C    0.120385
     3  C    0.230902
     4  C   -0.122656
     5  C   -0.409219
     6  C   -0.028495
     7  C   -0.398914
     8  C   -0.018650
     9  C    0.416144
    10  C    0.204536
    11  N    0.270179
    12  C   -0.118197
    13  Cl  -0.022322
    14  C   -0.319656
    15  C   -0.069102
    16  C   -0.047131
    17  Cl   0.013950
 Electronic spatial extent (au):  <R**2>=           6743.3345
 Charge=             -0.0000 electrons
 Dipole moment (field-independent basis, Debye):
    X=              2.1513    Y=             -2.5263    Z=              1.0636  Tot=              3.4845
 Quadrupole moment (field-independent basis, Debye-Ang):
   XX=            -98.0159   YY=           -107.4533   ZZ=           -106.7732
   XY=             -6.6118   XZ=            -11.0810   YZ=             -1.7563
 Traceless Quadrupole moment (field-independent basis, Debye-Ang):
   XX=              6.0649   YY=             -3.3725   ZZ=             -2.6924
   XY=             -6.6118   XZ=            -11.0810   YZ=             -1.7563
 Octapole moment (field-independent basis, Debye-Ang**2):
  XXX=            158.1723  YYY=             -6.3631  ZZZ=             18.3652  XYY=             12.1141
  XXY=             -8.0601  XXZ=             64.5759  XZZ=            -47.2913  YZZ=              2.2124
  YYZ=              6.8741  XYZ=              2.9669
 Hexadecapole moment (field-independent basis, Debye-Ang**3):
 XXXX=          -5955.2543 YYYY=          -1342.4363 ZZZZ=           -603.8446 XXXY=           -197.2659
 XXXZ=           -118.9424 YYYX=            -37.7578 YYYZ=             -6.7966 ZZZX=           -110.0734
 ZZZY=            -21.4701 XXYY=          -1317.7787 XXZZ=          -1163.4022 YYZZ=           -329.5020
 XXYZ=             -3.3015 YYXZ=             -3.6524 ZZXY=             24.1109
 N-N= 1.307547331383D+03 E-N=-6.222316243156D+03  KE= 1.523802287153D+03
  Exact polarizability:   0.000   0.000   0.000   0.000   0.000   0.000
 Approx polarizability: 300.105 -37.869 297.489   8.282 -20.878 199.770
 D2PCM: PCM CHGder 2nd derivatives, FixD1E=F FixD2E=F DoIter=F DoCFld=F I1PDM=0
 Calling FoFJK, ICntrl=    100147 FMM=F ISym2X=0 I1Cent= 0 IOpClX= 0 NMat=1 NMatS=1 NMatT=0.
 ***** Axes restored to original set *****
 -------------------------------------------------------------------
 Center     Atomic                   Forces (Hartrees/Bohr)
 Number     Number              X              Y              Z
 -------------------------------------------------------------------
      1        7           0.007421889   -0.002786143   -0.010177583
      2        6          -0.023183929    0.000527124    0.004429002
      3        6           0.017783686   -0.006241665    0.004321786
      4        6          -0.007906951    0.005724817   -0.000879091
      5        6          -0.002196183   -0.001210938   -0.004565618
      6        6          -0.000466127   -0.008168215   -0.002580271
      7        6           0.001461364   -0.000535814    0.003556283
      8        6           0.007322918    0.005561369   -0.001403634
      9        6          -0.010627238   -0.012056894    0.002035691
     10        6           0.009952603    0.019515474    0.009765425
     11        7          -0.005476707   -0.004184529   -0.011249703
     12        6          -0.011356541   -0.016793446    0.008035458
     13       17           0.006722467    0.009600834   -0.011551362
     14        6           0.002714682    0.000203876    0.004770545
     15        6          -0.000751018    0.002409274    0.005412701
     16        6           0.016958211   -0.002166190    0.010750829
     17       17          -0.010355751    0.002756672   -0.012506910
     18        1          -0.000622030    0.002835934    0.006422357
     19        1          -0.000215378   -0.000760018   -0.002986676
     20        1          -0.001524767    0.001336504   -0.002091886
     21        1          -0.000257885   -0.000563099   -0.001525386
     22        1           0.003242591    0.002134223    0.000635118
     23        1          -0.003108482    0.001831684   -0.000290573
     24        1          -0.000315946    0.000022150   -0.001929876
     25        1           0.001979067    0.000858137   -0.002080877
     26        1           0.002868291   -0.001348511    0.006444891
     27        1          -0.000612321    0.000620657   -0.002906863
     28        1           0.001403057    0.000223618    0.000908889
     29        1          -0.000853571    0.000653114    0.001237334
 -------------------------------------------------------------------
 Cartesian Forces:  Max     0.023183929 RMS     0.006845859
 FormGI is forming the generalized inverse of G from B-inverse, IUseBI=4.

 GradGradGradGradGradGradGradGradGradGradGradGradGradGradGradGradGradGrad
 Berny optimization.
 Internal  Forces:  Max     0.016267204 RMS     0.003266736
 Search for a local minimum.
 Step number   1 out of a maximum of  156
 All quantities printed in internal units (Hartrees-Bohrs-Radians)
 Mixed Optimization -- RFO/linear search
 Second derivative matrix not updated -- analytic derivatives used.
 ITU=  0
     Eigenvalues ---    0.00047   0.00105   0.00495   0.00504   0.01538
     Eigenvalues ---    0.01602   0.01692   0.01700   0.01760   0.01776
     Eigenvalues ---    0.01874   0.01889   0.01959   0.01992   0.02222
     Eigenvalues ---    0.02241   0.02422   0.02442   0.02619   0.02644
     Eigenvalues ---    0.02753   0.02761   0.02882   0.02913   0.05139
     Eigenvalues ---    0.05208   0.08708   0.11342   0.11466   0.11699
     Eigenvalues ---    0.11759   0.12274   0.12362   0.12412   0.13341
     Eigenvalues ---    0.13359   0.16027   0.16103   0.16592   0.16611
     Eigenvalues ---    0.18106   0.18399   0.18561   0.18855   0.19054
     Eigenvalues ---    0.19343   0.19437   0.21343   0.21354   0.22316
     Eigenvalues ---    0.22589   0.28012   0.28029   0.29816   0.31833
     Eigenvalues ---    0.32490   0.32917   0.33056   0.33798   0.35538
     Eigenvalues ---    0.35565   0.35768   0.35813   0.35904   0.35947
     Eigenvalues ---    0.37947   0.38250   0.41653   0.41729   0.44105
     Eigenvalues ---    0.44300   0.44787   0.44803   0.45951   0.46058
     Eigenvalues ---    0.46547   0.46687   0.47550   0.47577   0.50698
     Eigenvalues ---    0.50776
 RFO step:  Lambda=-8.67945598D-03 EMin= 4.65971103D-04
 Linear search not attempted -- first point.
 Iteration  1 RMS(Cart)=  0.03298237 RMS(Int)=  0.00078236
 Iteration  2 RMS(Cart)=  0.00114148 RMS(Int)=  0.00040475
 Iteration  3 RMS(Cart)=  0.00000101 RMS(Int)=  0.00040475
 Iteration  4 RMS(Cart)=  0.00000000 RMS(Int)=  0.00040475
 Variable       Old X    -DE/DX   Delta X   Delta X   Delta X     New X
                                 (Linear)    (Quad)   (Total)
    R1        2.65954  -0.00634   0.00000  -0.03492  -0.03492   2.62462
    R2        1.92433  -0.00477   0.00000  -0.01196  -0.01196   1.91237
    R3        1.91733  -0.00255   0.00000  -0.00539  -0.00539   1.91194
    R4        2.64208   0.00722   0.00000   0.02128   0.02138   2.66346
    R5        2.65622  -0.00000   0.00000   0.00007   0.00019   2.65641
    R6        2.64374  -0.00639   0.00000  -0.02031  -0.02033   2.62341
    R7        2.05441  -0.00076   0.00000  -0.00092  -0.00092   2.05350
    R8        2.64782   0.00026   0.00000   0.00438   0.00426   2.65208
    R9        2.05643  -0.00137   0.00000  -0.00287  -0.00287   2.05355
   R10        2.85601   0.00612   0.00000   0.01629   0.01629   2.87231
   R11        2.64744  -0.00273   0.00000  -0.00795  -0.00805   2.63940
   R12        2.85629   0.00628   0.00000   0.01656   0.01656   2.87286
   R13        2.07501  -0.00113   0.00000  -0.00375  -0.00375   2.07125
   R14        2.07504  -0.00088   0.00000  -0.00400  -0.00400   2.07104
   R15        2.64691  -0.00029   0.00000  -0.00055  -0.00067   2.64625
   R16        2.64874  -0.00246   0.00000  -0.00361  -0.00372   2.64502
   R17        2.64418  -0.00455   0.00000  -0.01410  -0.01410   2.63008
   R18        2.05634  -0.00145   0.00000  -0.00281  -0.00281   2.05353
   R19        2.64253   0.00536   0.00000   0.01513   0.01524   2.65778
   R20        2.05453  -0.00079   0.00000  -0.00120  -0.00120   2.05333
   R21        2.65894  -0.00635   0.00000  -0.03444  -0.03444   2.62450
   R22        2.65631   0.00170   0.00000   0.00624   0.00636   2.66267
   R23        1.92433  -0.00488   0.00000  -0.01209  -0.01209   1.91224
   R24        1.91682  -0.00249   0.00000  -0.00497  -0.00497   1.91185
   R25        3.27037   0.01626   0.00000   0.06824   0.06824   3.33861
   R26        2.64232  -0.00310   0.00000  -0.01461  -0.01461   2.62771
   R27        2.05503  -0.00151   0.00000  -0.00361  -0.00361   2.05142
   R28        2.64310  -0.00133   0.00000  -0.00837  -0.00835   2.63476
   R29        2.05478  -0.00157   0.00000  -0.00351  -0.00351   2.05127
   R30        3.27065   0.01627   0.00000   0.06760   0.06760   3.33824
    A1        1.96090   0.00602   0.00000   0.04326   0.04299   2.00389
    A2        1.99095  -0.00107   0.00000   0.00654   0.00627   1.99722
    A3        1.96887  -0.00393   0.00000  -0.01917  -0.01956   1.94931
    A4        2.07845   0.00685   0.00000   0.03283   0.03166   2.11011
    A5        2.12993  -0.00070   0.00000   0.01018   0.00891   2.13883
    A6        2.06117  -0.00569   0.00000  -0.02937  -0.03037   2.03081
    A7        2.11032   0.00220   0.00000   0.01095   0.01103   2.12135
    A8        2.09675  -0.00390   0.00000  -0.02833  -0.02837   2.06838
    A9        2.07611   0.00170   0.00000   0.01738   0.01734   2.09345
   A10        2.10664   0.00242   0.00000   0.01325   0.01310   2.11975
   A11        2.07671  -0.00029   0.00000  -0.00024  -0.00018   2.07653
   A12        2.09981  -0.00213   0.00000  -0.01296  -0.01290   2.08691
   A13        2.10607   0.00153   0.00000   0.01009   0.01019   2.11626
   A14        2.07167  -0.00350   0.00000  -0.01782  -0.01805   2.05361
   A15        2.10543   0.00197   0.00000   0.00778   0.00788   2.11330
   A16        1.98430   0.00228   0.00000   0.00566   0.00566   1.98996
   A17        1.89472   0.00207   0.00000   0.01434   0.01436   1.90908
   A18        1.92672  -0.00400   0.00000  -0.02720  -0.02717   1.89955
   A19        1.92664  -0.00429   0.00000  -0.03169  -0.03163   1.89502
   A20        1.89301   0.00235   0.00000   0.01887   0.01895   1.91196
   A21        1.83249   0.00143   0.00000   0.02068   0.02090   1.85339
   A22        2.10644   0.00401   0.00000   0.01608   0.01618   2.12263
   A23        2.10463  -0.00037   0.00000   0.00239   0.00249   2.10712
   A24        2.07194  -0.00363   0.00000  -0.01830  -0.01854   2.05340
   A25        2.10581   0.00280   0.00000   0.01496   0.01482   2.12063
   A26        2.10191  -0.00265   0.00000  -0.01520  -0.01518   2.08673
   A27        2.07535  -0.00014   0.00000   0.00045   0.00047   2.07582
   A28        2.11089   0.00164   0.00000   0.00933   0.00946   2.12034
   A29        2.07653   0.00198   0.00000   0.01637   0.01630   2.09283
   A30        2.09575  -0.00362   0.00000  -0.02567  -0.02574   2.07001
   A31        2.07828   0.00729   0.00000   0.03639   0.03513   2.11342
   A32        2.06132  -0.00578   0.00000  -0.02962  -0.03069   2.03063
   A33        2.12988  -0.00102   0.00000   0.00749   0.00608   2.13596
   A34        1.96247   0.00606   0.00000   0.04249   0.04231   2.00478
   A35        1.99475  -0.00137   0.00000   0.00341   0.00323   1.99797
   A36        1.97127  -0.00391   0.00000  -0.02082  -0.02109   1.95018
   A37        2.10492  -0.00527   0.00000  -0.02861  -0.02871   2.07622
   A38        2.11300   0.00220   0.00000   0.02147   0.02159   2.13459
   A39        2.06500   0.00308   0.00000   0.00742   0.00733   2.07233
   A40        2.10096   0.00289   0.00000   0.00576   0.00564   2.10660
   A41        2.09498  -0.00070   0.00000   0.00384   0.00387   2.09885
   A42        2.08715  -0.00219   0.00000  -0.00947  -0.00943   2.07772
   A43        2.10043   0.00309   0.00000   0.00667   0.00660   2.10703
   A44        2.09754  -0.00118   0.00000   0.00171   0.00174   2.09928
   A45        2.08519  -0.00191   0.00000  -0.00836  -0.00833   2.07686
   A46        2.11370   0.00159   0.00000   0.01981   0.01992   2.13362
   A47        2.10500  -0.00499   0.00000  -0.02670  -0.02682   2.07818
   A48        2.06424   0.00341   0.00000   0.00724   0.00713   2.07136
    D1        2.87205  -0.00222   0.00000  -0.07499  -0.07565   2.79640
    D2       -0.44963   0.00024   0.00000   0.01131   0.01223  -0.43740
    D3        0.60317  -0.00125   0.00000  -0.09378  -0.09470   0.50847
    D4       -2.71851   0.00122   0.00000  -0.00749  -0.00683  -2.72533
    D5        3.04183   0.00115   0.00000   0.03433   0.03449   3.07632
    D6       -0.09909   0.00120   0.00000   0.03562   0.03570  -0.06338
    D7        0.07322  -0.00167   0.00000  -0.05234  -0.05176   0.02146
    D8       -3.06769  -0.00162   0.00000  -0.05105  -0.05055  -3.11824
    D9       -3.03719  -0.00179   0.00000  -0.03734  -0.03641  -3.07360
   D10        0.12903  -0.00229   0.00000  -0.05459  -0.05372   0.07530
   D11       -0.07397   0.00188   0.00000   0.05424   0.05368  -0.02029
   D12        3.09224   0.00138   0.00000   0.03699   0.03637   3.12861
   D13       -0.03209   0.00048   0.00000   0.02040   0.02076  -0.01133
   D14        3.11734   0.00043   0.00000   0.01388   0.01399   3.13133
   D15        3.10883   0.00042   0.00000   0.01911   0.01952   3.12835
   D16       -0.02492   0.00038   0.00000   0.01258   0.01275  -0.01217
   D17        3.13730  -0.00002   0.00000  -0.00129  -0.00137   3.13593
   D18       -0.01047   0.00035   0.00000   0.00931   0.00926  -0.00121
   D19       -0.01224   0.00004   0.00000   0.00538   0.00550  -0.00674
   D20        3.12317   0.00041   0.00000   0.01598   0.01613   3.13931
   D21       -1.23831   0.00164   0.00000   0.02802   0.02810  -1.21020
   D22        0.91324  -0.00078   0.00000   0.00168   0.00180   0.91503
   D23        2.91305  -0.00006   0.00000   0.01979   0.01987   2.93291
   D24        1.90958   0.00128   0.00000   0.01730   0.01720   1.92678
   D25       -2.22206  -0.00114   0.00000  -0.00904  -0.00911  -2.23116
   D26       -0.22225  -0.00041   0.00000   0.00908   0.00897  -0.21328
   D27        0.00983  -0.00017   0.00000  -0.00715  -0.00733   0.00251
   D28       -3.12506  -0.00032   0.00000  -0.01036  -0.01048  -3.13554
   D29       -3.13794   0.00020   0.00000   0.00345   0.00329  -3.13464
   D30        0.01036   0.00004   0.00000   0.00024   0.00014   0.01050
   D31        1.88891   0.00125   0.00000   0.02060   0.02070   1.90960
   D32       -1.23259   0.00095   0.00000   0.01067   0.01057  -1.22202
   D33       -0.24510   0.00014   0.00000   0.02169   0.02172  -0.22338
   D34        2.91658  -0.00016   0.00000   0.01177   0.01160   2.92818
   D35       -2.24391  -0.00059   0.00000   0.00342   0.00359  -2.24032
   D36        0.91777  -0.00090   0.00000  -0.00650  -0.00653   0.91124
   D37       -3.13416   0.00012   0.00000   0.00108   0.00096  -3.13320
   D38       -0.00878   0.00045   0.00000   0.01657   0.01667   0.00789
   D39       -0.01229   0.00045   0.00000   0.01105   0.01101  -0.00128
   D40        3.11309   0.00078   0.00000   0.02653   0.02672   3.13981
   D41        3.13240   0.00014   0.00000   0.00228   0.00208   3.13448
   D42        0.00521  -0.00025   0.00000  -0.00849  -0.00861  -0.00340
   D43        0.01051  -0.00024   0.00000  -0.00784  -0.00804   0.00247
   D44       -3.11668  -0.00064   0.00000  -0.01861  -0.01873  -3.13541
   D45       -0.03039   0.00039   0.00000   0.01925   0.01966  -0.01073
   D46        3.10533   0.00058   0.00000   0.02544   0.02605   3.13138
   D47        3.12716   0.00010   0.00000   0.00414   0.00419   3.13136
   D48       -0.02029   0.00029   0.00000   0.01033   0.01058  -0.00971
   D49        3.04098   0.00124   0.00000   0.03705   0.03739   3.07837
   D50        0.07286  -0.00170   0.00000  -0.05303  -0.05240   0.02045
   D51       -0.09468   0.00103   0.00000   0.03065   0.03094  -0.06374
   D52       -3.06280  -0.00191   0.00000  -0.05943  -0.05885  -3.12165
   D53        2.87960  -0.00241   0.00000  -0.08287  -0.08361   2.79599
   D54        0.60232  -0.00125   0.00000  -0.09630  -0.09722   0.50510
   D55       -0.44256   0.00020   0.00000   0.00723   0.00815  -0.43441
   D56       -2.71984   0.00136   0.00000  -0.00619  -0.00545  -2.72529
   D57        3.09188   0.00158   0.00000   0.04214   0.04145   3.13333
   D58       -0.07472   0.00189   0.00000   0.05583   0.05530  -0.01941
   D59        0.12918  -0.00230   0.00000  -0.05363  -0.05259   0.07659
   D60       -3.03742  -0.00199   0.00000  -0.03994  -0.03873  -3.07615
   D61        0.03382  -0.00076   0.00000  -0.02530  -0.02547   0.00835
   D62       -3.12211  -0.00036   0.00000  -0.01446  -0.01480  -3.13692
   D63       -3.13222  -0.00058   0.00000  -0.01242  -0.01215   3.13881
   D64       -0.00497  -0.00017   0.00000  -0.00158  -0.00148  -0.00645
   D65        0.03321  -0.00075   0.00000  -0.02422  -0.02445   0.00876
   D66       -3.13245  -0.00038   0.00000  -0.00783  -0.00767  -3.14011
   D67       -3.11504  -0.00060   0.00000  -0.02099  -0.02130  -3.13634
   D68        0.00249  -0.00022   0.00000  -0.00460  -0.00452  -0.00202
         Item               Value     Threshold  Converged?
 Maximum Force            0.016267     0.000450     NO 
 RMS     Force            0.003267     0.000300     NO 
 Maximum Displacement     0.101870     0.001800     NO 
 RMS     Displacement     0.033036     0.001200     NO 
 Predicted change in Energy=-4.805641D-03
 GradGradGradGradGradGradGradGradGradGradGradGradGradGradGradGradGradGrad

                          Input orientation:                          
 ---------------------------------------------------------------------
 Center     Atomic      Atomic             Coordinates (Angstroms)
 Number     Number       Type             X           Y           Z
 ---------------------------------------------------------------------
      1          7           0       -4.816222    1.505152    0.074870
      2          6           0       -3.642582    0.763472    0.036164
      3          6           0       -2.849968    0.602029    1.190387
      4          6           0       -1.715862   -0.198606    1.186470
      5          6           0       -1.314746   -0.894538    0.035653
      6          6           0       -0.068126   -1.764143    0.034365
      7          6           0        1.231819   -0.982228    0.133935
      8          6           0        2.018817   -1.010750    1.291845
      9          6           0        3.203517   -0.286159    1.384019
     10          6           0        3.670455    0.497533    0.313575
     11          7           0        4.813829    1.275738    0.439796
     12          6           0        2.861538    0.526385   -0.839756
     13         17           0        3.376345    1.499499   -2.221532
     14          6           0        1.676692   -0.195213   -0.934617
     15          6           0       -2.098618   -0.756168   -1.112038
     16          6           0       -3.236118    0.050047   -1.104815
     17         17           0       -4.189399    0.184476   -2.585956
     18          1           0       -5.144890    1.827425   -0.826368
     19          1           0       -4.819219    2.248231    0.761506
     20          1           0       -3.144983    1.120249    2.098821
     21          1           0       -1.129827   -0.285767    2.097441
     22          1           0       -0.116079   -2.469914    0.871584
     23          1           0       -0.061567   -2.371852   -0.877638
     24          1           0        1.701771   -1.610280    2.140918
     25          1           0        3.789314   -0.319569    2.298552
     26          1           0        5.243481    1.545834   -0.435658
     27          1           0        5.494773    0.916821    1.096338
     28          1           0        1.096522   -0.137804   -1.850343
     29          1           0       -1.830666   -1.279899   -2.024278
 ---------------------------------------------------------------------
                    Distance matrix (angstroms):
                    1          2          3          4          5
     1  N    0.000000
     2  C    1.388891   0.000000
     3  C    2.434371   1.409444   0.000000
     4  C    3.708190   2.441526   1.388247   0.000000
     5  C    4.245042   2.857939   2.435166   1.403422   0.000000
     6  C    5.764924   4.377851   3.830641   2.548193   1.519960
     7  C    6.539827   5.178495   4.504104   3.226564   2.549969
     8  C    7.384344   6.064325   5.129953   3.823416   3.564290
     9  C    8.320990   7.056026   6.121360   4.924122   4.754252
    10  C    8.549618   7.323127   6.579943   5.500815   5.183371
    11  N    9.639692   8.481522   7.729881   6.735583   6.514051
    12  C    7.793748   6.567116   6.062054   5.058042   4.497411
    13  Cl   8.508328   7.409741   7.156369   6.358349   5.729976
    14  C    6.787358   5.491463   5.063783   4.001056   3.221674
    15  C    3.729301   2.451835   2.776759   2.395938   1.396710
    16  C    2.450656   1.405710   2.392017   2.760976   2.425815
    17  Cl   3.035965   2.740394   4.028547   4.527288   4.037417
    18  H    1.011985   2.032950   3.291741   4.462572   4.777255
    19  H    1.011753   2.028572   2.602281   3.974724   4.762897
    20  H    2.652841   2.151615   1.086663   2.148057   3.415522
    21  H    4.570305   3.415217   2.137713   1.086694   2.157723
    22  H    6.207032   4.856844   4.124636   2.795943   2.148812
    23  H    6.208476   4.846541   4.571202   3.423482   2.141732
    24  H    7.513901   6.215046   5.149384   3.818902   3.747507
    25  H    9.073567   7.843753   6.793927   5.617680   5.612730
    26  H   10.072731   8.932906   8.308953   7.355734   7.013408
    27  H   10.378157   9.199931   8.351206   7.296955   7.125701
    28  H    6.431663   5.179798   5.036683   4.139497   3.153386
    29  H    4.590912   3.421086   3.861956   3.389879   2.158239
                    6          7          8          9         10
     6  C    0.000000
     7  C    1.520250   0.000000
     8  C    2.550331   1.400334   0.000000
     9  C    3.835316   2.436148   1.391776   0.000000
    10  C    4.378371   2.858131   2.441278   1.406434   0.000000
    11  N    5.765304   4.245322   3.710271   2.433965   1.388826
    12  C    3.820149   2.424865   2.759834   2.392144   1.409025
    13  Cl   5.254028   4.038092   4.526372   4.027213   2.741751
    14  C    2.538673   1.399682   2.395680   2.777686   2.452136
    15  C    2.540306   3.563056   4.774593   5.879103   6.073413
    16  C    3.824290   4.750005   5.872274   6.912034   7.064901
    17  Cl   5.258146   6.176456   7.416728   8.404606   8.383472
    18  H    6.278038   7.034113   7.991293   8.890947   8.987680
    19  H    6.261051   6.888016   7.593480   8.436524   8.679870
    20  H    4.695609   5.238089   5.644218   6.541588   7.072841
    21  H    2.751197   3.149252   3.329946   4.391678   5.180584
    22  H    1.096060   2.138730   2.619840   4.006381   4.843032
[...]
    45    C    3  dz2    Ryd( 3d)     0.00056

    46    C    4  S      Cor( 1S)     1.99904
    47    C    4  S      Val( 2S)     0.94950
    48    C    4  S      Ryd( 3S)     0.00068
    49    C    4  S      Ryd( 4S)     0.00005
    50    C    4  px     Val( 2p)     1.12194
    51    C    4  px     Ryd( 3p)     0.00360
    52    C    4  py     Val( 2p)     1.09924
    53    C    4  py     Ryd( 3p)     0.00381
    54    C    4  pz     Val( 2p)     1.06745
    55    C    4  pz     Ryd( 3p)     0.00433
    56    C    4  dxy    Ryd( 3d)     0.00059
    57    C    4  dxz    Ryd( 3d)     0.00052
    58    C    4  dyz    Ryd( 3d)     0.00059
    59    C    4  dx2y2  Ryd( 3d)     0.00042
    60    C    4  dz2    Ryd( 3d)     0.00060

    61    C    5  S      Cor( 1S)     1.99900
    62    C    5  S      Val( 2S)     0.88332
    63    C    5  S      Ryd( 3S)     0.00098
    64    C    5  S      Ryd( 4S)     0.00005
    65    C    5  px     Val( 2p)     1.01491
    66    C    5  px     Ryd( 3p)     0.00498
    67    C    5  py     Val( 2p)     1.01910
    68    C    5  py     Ryd( 3p)     0.00325
    69    C    5  pz     Val( 2p)     1.06442
    70    C    5  pz     Ryd( 3p)     0.00439
    71    C    5  dxy    Ryd( 3d)     0.00052
    72    C    5  dxz    Ryd( 3d)     0.00072
    73    C    5  dyz    Ryd( 3d)     0.00051
    74    C    5  dx2y2  Ryd( 3d)     0.00079
    75    C    5  dz2    Ryd( 3d)     0.00072

    76    C    6  S      Cor( 1S)     1.99921
    77    C    6  S      Val( 2S)     1.02341
    78    C    6  S      Ryd( 3S)     0.00067
    79    C    6  S      Ryd( 4S)     0.00002
    80    C    6  px     Val( 2p)     1.03286
    81    C    6  px     Ryd( 3p)     0.00187
    82    C    6  py     Val( 2p)     1.24758
    83    C    6  py     Ryd( 3p)     0.00576
    84    C    6  pz     Val( 2p)     1.17573
    85    C    6  pz     Ryd( 3p)     0.00304
    86    C    6  dxy    Ryd( 3d)     0.00038
    87    C    6  dxz    Ryd( 3d)     0.00069
    88    C    6  dyz    Ryd( 3d)     0.00057
    89    C    6  dx2y2  Ryd( 3d)     0.00099
    90    C    6  dz2    Ryd( 3d)     0.00069

    91    C    7  S      Cor( 1S)     1.99900
    92    C    7  S      Val( 2S)     0.88366
    93    C    7  S      Ryd( 3S)     0.00091
    94    C    7  S      Ryd( 4S)     0.00005
    95    C    7  px     Val( 2p)     1.02882
    96    C    7  px     Ryd( 3p)     0.00504
    97    C    7  py     Val( 2p)     1.07357
    98    C    7  py     Ryd( 3p)     0.00476
    99    C    7  pz     Val( 2p)     0.98485
   100    C    7  pz     Ryd( 3p)     0.00253
   101    C    7  dxy    Ryd( 3d)     0.00077
   102    C    7  dxz    Ryd( 3d)     0.00055
   103    C    7  dyz    Ryd( 3d)     0.00086
   104    C    7  dx2y2  Ryd( 3d)     0.00073
   105    C    7  dz2    Ryd( 3d)     0.00043

   106    C    8  S      Cor( 1S)     1.99904
   107    C    8  S      Val( 2S)     0.94601
   108    C    8  S      Ryd( 3S)     0.00060
   109    C    8  S      Ryd( 4S)     0.00004
   110    C    8  px     Val( 2p)     1.06458
   111    C    8  px     Ryd( 3p)     0.00434
   112    C    8  py     Val( 2p)     1.18826
   113    C    8  py     Ryd( 3p)     0.00486
   114    C    8  pz     Val( 2p)     1.08045
   115    C    8  pz     Ryd( 3p)     0.00400
   116    C    8  dxy    Ryd( 3d)     0.00060
   117    C    8  dxz    Ryd( 3d)     0.00051
   118    C    8  dyz    Ryd( 3d)     0.00039
   119    C    8  dx2y2  Ryd( 3d)     0.00067
   120    C    8  dz2    Ryd( 3d)     0.00046

   121    C    9  S      Cor( 1S)     1.99905
   122    C    9  S      Val( 2S)     0.94938
   123    C    9  S      Ryd( 3S)     0.00063
   124    C    9  S      Ryd( 4S)     0.00004
   125    C    9  px     Val( 2p)     1.14042
   126    C    9  px     Ryd( 3p)     0.00441
   127    C    9  py     Val( 2p)     1.10264
   128    C    9  py     Ryd( 3p)     0.00445
   129    C    9  pz     Val( 2p)     1.09516
   130    C    9  pz     Ryd( 3p)     0.00407
   131    C    9  dxy    Ryd( 3d)     0.00063
   132    C    9  dxz    Ryd( 3d)     0.00044
   133    C    9  dyz    Ryd( 3d)     0.00044
   134    C    9  dx2y2  Ryd( 3d)     0.00058
   135    C    9  dz2    Ryd( 3d)     0.00047

   136    C   10  S      Cor( 1S)     1.99883
   137    C   10  S      Val( 2S)     0.84306
   138    C   10  S      Ryd( 3S)     0.00126
   139    C   10  S      Ryd( 4S)     0.00010
   140    C   10  px     Val( 2p)     0.94006
   141    C   10  px     Ryd( 3p)     0.00463
   142    C   10  py     Val( 2p)     1.08952
   143    C   10  py     Ryd( 3p)     0.00498
   144    C   10  pz     Val( 2p)     0.94685
   145    C   10  pz     Ryd( 3p)     0.00250
   146    C   10  dxy    Ryd( 3d)     0.00100
   147    C   10  dxz    Ryd( 3d)     0.00117
   148    C   10  dyz    Ryd( 3d)     0.00102
   149    C   10  dx2y2  Ryd( 3d)     0.00092
   150    C   10  dz2    Ryd( 3d)     0.00084

   151    N   11  S      Cor( 1S)     1.99948
   152    N   11  S      Val( 2S)     1.36191
   153    N   11  S      Ryd( 3S)     0.00016
   154    N   11  S      Ryd( 4S)     0.00001
   155    N   11  px     Val( 2p)     1.33349
   156    N   11  px     Ryd( 3p)     0.00223
   157    N   11  py     Val( 2p)     1.42659
   158    N   11  py     Ryd( 3p)     0.00185
   159    N   11  pz     Val( 2p)     1.62911
   160    N   11  pz     Ryd( 3p)     0.00360
   161    N   11  dxy    Ryd( 3d)     0.00055
   162    N   11  dxz    Ryd( 3d)     0.00071
   163    N   11  dyz    Ryd( 3d)     0.00054
   164    N   11  dx2y2  Ryd( 3d)     0.00031
   165    N   11  dz2    Ryd( 3d)     0.00110

   166    C   12  S      Cor( 1S)     1.99851
   167    C   12  S      Val( 2S)     0.91415
   168    C   12  S      Ryd( 3S)     0.00063
   169    C   12  S      Ryd( 4S)     0.00009
   170    C   12  px     Val( 2p)     1.10870
   171    C   12  px     Ryd( 3p)     0.00637
   172    C   12  py     Val( 2p)     0.90108
   173    C   12  py     Ryd( 3p)     0.00640
   174    C   12  pz     Val( 2p)     1.16969
   175    C   12  pz     Ryd( 3p)     0.00332
   176    C   12  dxy    Ryd( 3d)     0.00103
   177    C   12  dxz    Ryd( 3d)     0.00059
   178    C   12  dyz    Ryd( 3d)     0.00095
   179    C   12  dx2y2  Ryd( 3d)     0.00130
   180    C   12  dz2    Ryd( 3d)     0.00077

   181   Cl   13  S      Cor( 1S)     2.00000
   182   Cl   13  S      Cor( 2S)     1.99981
   183   Cl   13  S      Val( 3S)     1.83944
   184   Cl   13  S      Ryd( 4S)     0.00300
   185   Cl   13  S      Ryd( 5S)     0.00000
   186   Cl   13  px     Cor( 2p)     1.99998
   187   Cl   13  px     Val( 3p)     1.93746
   188   Cl   13  px     Ryd( 4p)     0.00170
   189   Cl   13  py     Cor( 2p)     1.99992
   190   Cl   13  py     Val( 3p)     1.33023
   191   Cl   13  py     Ryd( 4p)     0.00368
   192   Cl   13  pz     Cor( 2p)     1.99999
   193   Cl   13  pz     Val( 3p)     1.91750
   194   Cl   13  pz     Ryd( 4p)     0.00248
   195   Cl   13  dxy    Ryd( 3d)     0.00171
   196   Cl   13  dxz    Ryd( 3d)     0.00014
   197   Cl   13  dyz    Ryd( 3d)     0.00308
   198   Cl   13  dx2y2  Ryd( 3d)     0.00305
   199   Cl   13  dz2    Ryd( 3d)     0.00127

   200    C   14  S      Cor( 1S)     1.99889
   201    C   14  S      Val( 2S)     0.94453
   202    C   14  S      Ryd( 3S)     0.00116
   203    C   14  S      Ryd( 4S)     0.00006
   204    C   14  px     Val( 2p)     1.12620
   205    C   14  px     Ryd( 3p)     0.00378
   206    C   14  py     Val( 2p)     1.14483
   207    C   14  py     Ryd( 3p)     0.00545
   208    C   14  pz     Val( 2p)     1.06580
   209    C   14  pz     Ryd( 3p)     0.00533
   210    C   14  dxy    Ryd( 3d)     0.00059
   211    C   14  dxz    Ryd( 3d)     0.00049
   212    C   14  dyz    Ryd( 3d)     0.00043
   213    C   14  dx2y2  Ryd( 3d)     0.00062
   214    C   14  dz2    Ryd( 3d)     0.00048

   215    C   15  S      Cor( 1S)     1.99890
   216    C   15  S      Val( 2S)     0.94380
   217    C   15  S      Ryd( 3S)     0.00107
   218    C   15  S      Ryd( 4S)     0.00006
   219    C   15  px     Val( 2p)     1.06621
   220    C   15  px     Ryd( 3p)     0.00482
   221    C   15  py     Val( 2p)     1.09946
   222    C   15  py     Ryd( 3p)     0.00536
   223    C   15  pz     Val( 2p)     1.18582
   224    C   15  pz     Ryd( 3p)     0.00440
   225    C   15  dxy    Ryd( 3d)     0.00042
   226    C   15  dxz    Ryd( 3d)     0.00054
   227    C   15  dyz    Ryd( 3d)     0.00056
   228    C   15  dx2y2  Ryd( 3d)     0.00052
   229    C   15  dz2    Ryd( 3d)     0.00049

   230    C   16  S      Cor( 1S)     1.99851
   231    C   16  S      Val( 2S)     0.91855
   232    C   16  S      Ryd( 3S)     0.00061
   233    C   16  S      Ryd( 4S)     0.00009
   234    C   16  px     Val( 2p)     1.02795
   235    C   16  px     Ryd( 3p)     0.00560
   236    C   16  py     Val( 2p)     1.04428
   237    C   16  py     Ryd( 3p)     0.00416
   238    C   16  pz     Val( 2p)     1.07415
   239    C   16  pz     Ryd( 3p)     0.00598
   240    C   16  dxy    Ryd( 3d)     0.00124
   241    C   16  dxz    Ryd( 3d)     0.00086
   242    C   16  dyz    Ryd( 3d)     0.00085
   243    C   16  dx2y2  Ryd( 3d)     0.00091
   244    C   16  dz2    Ryd( 3d)     0.00090

   245   Cl   17  S      Cor( 1S)     2.00000
   246   Cl   17  S      Cor( 2S)     1.99981
   247   Cl   17  S      Val( 3S)     1.83989
   248   Cl   17  S      Ryd( 4S)     0.00302
   249   Cl   17  S      Ryd( 5S)     0.00000
   250   Cl   17  px     Cor( 2p)     1.99995
   251   Cl   17  px     Val( 3p)     1.65060
   252   Cl   17  px     Ryd( 4p)     0.00296
   253   Cl   17  py     Cor( 2p)     1.99996
   254   Cl   17  py     Val( 3p)     1.64564
   255   Cl   17  py     Ryd( 4p)     0.00299
   256   Cl   17  pz     Cor( 2p)     1.99998
   257   Cl   17  pz     Val( 3p)     1.87688
   258   Cl   17  pz     Ryd( 4p)     0.00186
   259   Cl   17  dxy    Ryd( 3d)     0.00295
   260   Cl   17  dxz    Ryd( 3d)     0.00165
   261   Cl   17  dyz    Ryd( 3d)     0.00115
   262   Cl   17  dx2y2  Ryd( 3d)     0.00227
   263   Cl   17  dz2    Ryd( 3d)     0.00102

   264    H   18  S      Val( 1S)     0.56813
   265    H   18  S      Ryd( 2S)     0.00158
   266    H   18  px     Ryd( 2p)     0.00039
   267    H   18  py     Ryd( 2p)     0.00063
   268    H   18  pz     Ryd( 2p)     0.00024

   269    H   19  S      Val( 1S)     0.56759
   270    H   19  S      Ryd( 2S)     0.00127
   271    H   19  px     Ryd( 2p)     0.00030
   272    H   19  py     Ryd( 2p)     0.00031
   273    H   19  pz     Ryd( 2p)     0.00061

   274    H   20  S      Val( 1S)     0.75134
   275    H   20  S      Ryd( 2S)     0.00094
   276    H   20  px     Ryd( 2p)     0.00009
   277    H   20  py     Ryd( 2p)     0.00019
   278    H   20  pz     Ryd( 2p)     0.00035

   279    H   21  S      Val( 1S)     0.75193
   280    H   21  S      Ryd( 2S)     0.00160
   281    H   21  px     Ryd( 2p)     0.00025
   282    H   21  py     Ryd( 2p)     0.00025
   283    H   21  pz     Ryd( 2p)     0.00011

   284    H   22  S      Val( 1S)     0.73196
   285    H   22  S      Ryd( 2S)     0.00149
   286    H   22  px     Ryd( 2p)     0.00010
   287    H   22  py     Ryd( 2p)     0.00034
   288    H   22  pz     Ryd( 2p)     0.00011

   289    H   23  S      Val( 1S)     0.73310
   290    H   23  S      Ryd( 2S)     0.00171
   291    H   23  px     Ryd( 2p)     0.00010
   292    H   23  py     Ryd( 2p)     0.00014
   293    H   23  pz     Ryd( 2p)     0.00032

   294    H   24  S      Val( 1S)     0.75656
   295    H   24  S      Ryd( 2S)     0.00095
   296    H   24  px     Ryd( 2p)     0.00008
   297    H   24  py     Ryd( 2p)     0.00038
   298    H   24  pz     Ryd( 2p)     0.00016

   299    H   25  S      Val( 1S)     0.75317
   300    H   25  S      Ryd( 2S)     0.00099
   301    H   25  px     Ryd( 2p)     0.00022
   302    H   25  py     Ryd( 2p)     0.00024
   303    H   25  pz     Ryd( 2p)     0.00016

   304    H   26  S      Val( 1S)     0.56805
   305    H   26  S      Ryd( 2S)     0.00171
   306    H   26  px     Ryd( 2p)     0.00025
   307    H   26  py     Ryd( 2p)     0.00057
   308    H   26  pz     Ryd( 2p)     0.00044

   309    H   27  S      Val( 1S)     0.56730
   310    H   27  S      Ryd( 2S)     0.00116
   311    H   27  px     Ryd( 2p)     0.00043
   312    H   27  py     Ryd( 2p)     0.00036
   313    H   27  pz     Ryd( 2p)     0.00043

   314    H   28  S      Val( 1S)     0.74432
   315    H   28  S      Ryd( 2S)     0.00166
   316    H   28  px     Ryd( 2p)     0.00023
   317    H   28  py     Ryd( 2p)     0.00024
   318    H   28  pz     Ryd( 2p)     0.00016

   319    H   29  S      Val( 1S)     0.74422
   320    H   29  S      Ryd( 2S)     0.00118
   321    H   29  px     Ryd( 2p)     0.00009
   322    H   29  py     Ryd( 2p)     0.00018
   323    H   29  pz     Ryd( 2p)     0.00035

 WARNING:  1 low occupancy (<1.9990e) core orbital  found on  C    2
           1 low occupancy (<1.9990e) core orbital  found on  C   10
           1 low occupancy (<1.9990e) core orbital  found on  C   12
           1 low occupancy (<1.9990e) core orbital  found on  C   14
           1 low occupancy (<1.9990e) core orbital  found on  C   15
           1 low occupancy (<1.9990e) core orbital  found on  C   16


 Summary of Natural Population Analysis:                  
                                                          
                                       Natural Population 
                Natural  -----------------------------------------------
    Atom  No    Charge         Core      Valence    Rydberg      Total
 -----------------------------------------------------------------------
      N    1   -0.77145      1.99948     5.76084    0.01113     7.77145
      C    2    0.16369      1.99882     3.81927    0.01821     5.83631
      C    3   -0.31622      1.99905     4.30128    0.01589     6.31622
      C    4   -0.25236      1.99904     4.23813    0.01520     6.25236
      C    5    0.00233      1.99900     3.98176    0.01691     5.99767
      C    6   -0.49347      1.99921     4.47958    0.01468     6.49347
      C    7    0.01347      1.99900     3.97090    0.01663     5.98653
      C    8   -0.29481      1.99904     4.27930    0.01647     6.29481
      C    9   -0.30281      1.99905     4.28761    0.01615     6.30281
      C   10    0.16326      1.99883     3.81948    0.01843     5.83674
      N   11   -0.76162      1.99948     5.75110    0.01105     7.76162
      C   12   -0.11358      1.99851     4.09362    0.02145     6.11358
     Cl   13   -0.04444      9.99970     7.02464    0.02010    17.04444
      C   14   -0.29863      1.99889     4.28135    0.01839     6.29863
      C   15   -0.31240      1.99890     4.29528    0.01822     6.31240
      C   16   -0.08463      1.99851     4.06492    0.02120     6.08463
     Cl   17   -0.03258      9.99970     7.01301    0.01987    17.03258
      H   18    0.42903      0.00000     0.56813    0.00283     0.57097
      H   19    0.42991      0.00000     0.56759    0.00250     0.57009
      H   20    0.24708      0.00000     0.75134    0.00157     0.75292
      H   21    0.24585      0.00000     0.75193    0.00222     0.75415
      H   22    0.26600      0.00000     0.73196    0.00205     0.73400
      H   23    0.26465      0.00000     0.73310    0.00226     0.73535
      H   24    0.24186      0.00000     0.75656    0.00158     0.75814
      H   25    0.24521      0.00000     0.75317    0.00162     0.75479
      H   26    0.42899      0.00000     0.56805    0.00296     0.57101
      H   27    0.43031      0.00000     0.56730    0.00239     0.56969
      H   28    0.25339      0.00000     0.74432    0.00229     0.74661
      H   29    0.25397      0.00000     0.74422    0.00180     0.74603
 =======================================================================
   * Total *    0.00000     49.98422    87.69973    0.31605   138.00000

                                 Natural Population      
 --------------------------------------------------------
   Core                      49.98422 ( 99.9684% of  50)
   Valence                   87.69973 ( 99.6588% of  88)
   Natural Minimal Basis    137.68395 ( 99.7710% of 138)
   Natural Rydberg Basis      0.31605 (  0.2290% of 138)
 --------------------------------------------------------

    Atom  No          Natural Electron Configuration
 ----------------------------------------------------------------------------
      N    1      [core]2S( 1.36)2p( 4.40)3p( 0.01)
      C    2      [core]2S( 0.84)2p( 2.98)3p( 0.01)
      C    3      [core]2S( 0.95)2p( 3.35)3p( 0.01)
      C    4      [core]2S( 0.95)2p( 3.29)3p( 0.01)
      C    5      [core]2S( 0.88)2p( 3.10)3p( 0.01)
      C    6      [core]2S( 1.02)2p( 3.46)3p( 0.01)
      C    7      [core]2S( 0.88)2p( 3.09)3p( 0.01)
      C    8      [core]2S( 0.95)2p( 3.33)3p( 0.01)
      C    9      [core]2S( 0.95)2p( 3.34)3p( 0.01)
      C   10      [core]2S( 0.84)2p( 2.98)3p( 0.01)
      N   11      [core]2S( 1.36)2p( 4.39)3p( 0.01)
      C   12      [core]2S( 0.91)2p( 3.18)3p( 0.02)
     Cl   13      [core]3S( 1.84)3p( 5.19)3d( 0.01)4p( 0.01)
      C   14      [core]2S( 0.94)2p( 3.34)3p( 0.01)
      C   15      [core]2S( 0.94)2p( 3.35)3p( 0.01)
      C   16      [core]2S( 0.92)2p( 3.15)3p( 0.02)
     Cl   17      [core]3S( 1.84)3p( 5.17)3d( 0.01)4p( 0.01)
      H   18            1S( 0.57)
      H   19            1S( 0.57)
      H   20            1S( 0.75)
      H   21            1S( 0.75)
      H   22            1S( 0.73)
      H   23            1S( 0.73)
      H   24            1S( 0.76)
      H   25            1S( 0.75)
      H   26            1S( 0.57)
      H   27            1S( 0.57)
      H   28            1S( 0.74)
      H   29            1S( 0.74)


 NBO analysis skipped by request.
 1\1\GINC-DRG2-W002\SP\RB3LYP TD-FC\6-31G(d,p)\C13H12Cl2N2\QDUEZ\17-Jul
 -2024\0\\# TD(NStates=10, Root=1) B3LYP/6-31G** SCRF=(Solvent=water) v
 olume pop=NPA density=current Geom=AllCheck Guess=Read\\IBOFVQJTBBUKMU
 -UHFFFAOYSA-N_conf_2\\0,1\N,0,-4.8423329219,1.497590065,0.0101995425\C
 ,0,-3.6696669072,0.7552154432,-0.0098663387\C,0,-2.795853579,0.7416148
 14,1.0973802083\C,0,-1.6541061677,-0.0476970312,1.112461297\C,0,-1.316
 5744593,-0.8697345188,0.0256224366\C,0,-0.0703112985,-1.7393004527,0.0
 497611158\C,0,1.2329354087,-0.9645396555,0.1637757776\C,0,2.1015607316
 ,-1.1439928291,1.2470421002\C,0,3.300417896,-0.4431815932,1.3436588284
 \C,0,3.6930309038,0.4810733304,0.3582704922\N,0,4.8557677754,1.2280582
 122,0.4899843639\C,0,2.8078352575,0.6497453913,-0.7253406871\Cl,0,3.23
 89700225,1.7919739469,-2.010244665\C,0,1.6107391954,-0.0488962402,-0.8
 260955594\C,0,-2.1707625887,-0.8651868933,-1.0795023541\C,0,-3.3164106
 893,-0.0712067752,-1.0904436205\Cl,0,-4.3607416138,-0.1041186022,-2.52
 17259609\H,0,-5.2081341581,1.7540587884,-0.8975606754\H,0,-4.833985555
 9,2.2816086376,0.6492859801\H,0,-3.0352806062,1.3667837141,1.953348999
 1\H,0,-1.0071493152,-0.0215289322,1.9850911358\H,0,-0.129374482,-2.439
 9064434,0.8911087973\H,0,-0.0548583756,-2.3540758224,-0.8580159287\H,0
 ,1.8413504246,-1.8508864491,2.0303017662\H,0,3.9548386355,-0.603552119
 2,2.1961060084\H,0,5.255347743,1.5633534231,-0.3769319531\H,0,5.555097
 5988,0.8153926261,1.0932259483\H,0,0.9687384252,0.125282903,-1.6838087
 218\H,0,-1.9510872995,-1.4839469374,-1.9438453303\\Version=ES64L-G16Re
 vA.03\State=1-A\HF=-1532.5530962\RMSD=6.091e-09\Dipole=0.65049,0.56707
 16,1.1312132\Quadrupole=14.917157,-6.2534186,-8.6637384,-10.8273741,2.
 8658519,1.0416078\PG=C01 [X(C13H12Cl2N2)]\\@


 SCIENCE AT ITS BEST PROVIDES US WITH BETTER QUESTIONS, 
 NOT ABSOLUTE ANSWERS

                                    -- NORMAN COUSINS, 1976
 Job cpu time:       0 days  0 hours 53 minutes 16.2 seconds.
 Elapsed time:       0 days  0 hours 17 minutes 48.3 seconds.
 File lengths (MBytes):  RWF=    866 Int=      0 D2E=      0 Chk=     54 Scr=      1
 Normal termination of Gaussian 16 at Wed Jul 17 23:12:52 2024.
