 Entering Gaussian System, Link 0=g16
 Initial command:
 /opt/sw/arch/manual/gaussian/G16_A03/g16/l1.exe "/scratch/1380851/Gau-183083.inp" -scrdir="/scratch/1380851/"
 Entering Link 1 = /opt/sw/arch/manual/gaussian/G16_A03/g16/l1.exe PID=    183084.
  
 Copyright (c) 1988,1990,1992,1993,1995,1998,2003,2009,2016,
            Gaussian, Inc.  All Rights Reserved.
  
 This is part of the Gaussian(R) 16 program.  It is based on
 the Gaussian(R) 09 system (copyright 2009, Gaussian, Inc.),
 the Gaussian(R) 03 system (copyright 2003, Gaussian, Inc.),
 the Gaussian(R) 98 system (copyright 1998, Gaussian, Inc.),
 the Gaussian(R) 94 system (copyright 1995, Gaussian, Inc.),
 the Gaussian 92(TM) system (copyright 1992, Gaussian, Inc.),
 the Gaussian 90(TM) system (copyright 1990, Gaussian, Inc.),
 the Gaussian 88(TM) system (copyright 1988, Gaussian, Inc.),
 the Gaussian 86(TM) system (copyright 1986, Carnegie Mellon
 University), and the Gaussian 82(TM) system (copyright 1983,
 Carnegie Mellon University). Gaussian is a federally registered
 trademark of Gaussian, Inc.
  
 This software contains proprietary and confidential information,
 including trade secrets, belonging to Gaussian, Inc.
  
 This software is provided under written license and may be
 used, copied, transmitted, or stored only in accord with that
 written license.
  
 The following legend is applicable only to US Government
 contracts under FAR:
  
                    RESTRICTED RIGHTS LEGEND
  
 Use, reproduction and disclosure by the US Government is
 subject to restrictions as set forth in subparagraphs (a)
 and (c) of the Commercial Computer Software - Restricted
 Rights clause in FAR 52.227-19.
  
 Gaussian, Inc.
 340 Quinnipiac St., Bldg. 40, Wallingford CT 06492
  
  
 ---------------------------------------------------------------
 Warning -- This program may not be used in any manner that
 competes with the business of Gaussian, Inc. or will provide
 assistance to any competitor of Gaussian, Inc.  The licensee
 of this program is prohibited from giving any competitor of
 Gaussian, Inc. access to this program.  By using this program,
 the user acknowledges that Gaussian, Inc. is engaged in the
 business of creating and licensing software in the field of
 computational chemistry and represents and warrants to the
 licensee that it is not a competitor of Gaussian, Inc. and that
 it will not use this program in any manner prohibited above.
 ---------------------------------------------------------------
  

 Cite this work as:
 Gaussian 16, Revision A.03,
 M. J. Frisch, G. W. Trucks, H. B. Schlegel, G. E. Scuseria, 
 M. A. Robb, J. R. Cheeseman, G. Scalmani, V. Barone, 
 G. A. Petersson, H. Nakatsuji, X. Li, M. Caricato, A. V. Marenich, 
 J. Bloino, B. G. Janesko, R. Gomperts, B. Mennucci, H. P. Hratchian, 
 J. V. Ortiz, A. F. Izmaylov, J. L. Sonnenberg, D. Williams-Young, 
 F. Ding, F. Lipparini, F. Egidi, J. Goings, B. Peng, A. Petrone, 
 T. Henderson, D. Ranasinghe, V. G. Zakrzewski, J. Gao, N. Rega, 
 G. Zheng, W. Liang, M. Hada, M. Ehara, K. Toyota, R. Fukuda, 
 J. Hasegawa, M. Ishida, T. Nakajima, Y. Honda, O. Kitao, H. Nakai, 
 T. Vreven, K. Throssell, J. A. Montgomery, Jr., J. E. Peralta, 
 F. Ogliaro, M. J. Bearpark, J. J. Heyd, E. N. Brothers, K. N. Kudin, 
 V. N. Staroverov, T. A. Keith, R. Kobayashi, J. Normand, 
 K. Raghavachari, A. P. Rendell, J. C. Burant, S. S. Iyengar, 
 J. Tomasi, M. Cossi, J. M. Millam, M. Klene, C. Adamo, R. Cammi, 
 J. W. Ochterski, R. L. Martin, K. Morokuma, O. Farkas, 
 J. B. Foresman, and D. J. Fox, Gaussian, Inc., Wallingford CT, 2016.
 
 ******************************************
 Gaussian 16:  ES64L-G16RevA.03 25-Dec-2016
                17-Jul-2024 
 ******************************************
 %nprocshared=4
 Will use up to    4 processors via shared memory.
 %mem=8GB
 %Chk=IBOFVQJTBBUKMU-UHFFFAOYSA-N_conf_4_0.chk
 -------------------------------------------------------
 # opt=CalcFc B3LYP/6-31G** SCRF=(Solvent=water) scf=xqc
 -------------------------------------------------------
 1/10=4,18=20,19=15,26=3,38=1/1,3;
 2/9=110,12=2,17=6,18=5,40=1/2;
 3/5=1,6=6,7=101,11=2,25=1,30=1,70=2201,71=2,72=1,74=-5,140=1/1,2,3;
 4//1;
 5/5=2,8=3,13=1,38=5,53=1/2,8;
 8/6=4,10=90,11=11/1;
 11/6=1,8=1,9=11,15=111,16=1/1,2,10;
 10/6=1,13=1/2;
 6/7=2,8=2,9=2,10=2,28=1/1;
 7/10=1,18=20,25=1/1,2,3,16;
 1/10=4,18=20,19=15,26=3/3(2);
 2/9=110/2;
 99//99;
 2/9=110/2;
 3/5=1,6=6,7=101,11=2,25=1,30=1,70=2205,71=1,72=1,74=-5/1,2,3;
 4/5=5,16=3,69=1/1;
 5/5=2,8=3,13=1,38=5,53=1/2,8;
 7//1,2,3,16;
 1/18=20,19=15,26=3/3(-5);
 2/9=110/2;
 6/7=2,8=2,9=2,10=2,19=2,28=1/1;
 99/9=1/99;
 ----------------------------------
 IBOFVQJTBBUKMU-UHFFFAOYSA-N_conf_4
 ----------------------------------
 Symbolic Z-matrix:
 Charge =  0 Multiplicity = 1
 N                    -4.70324   1.12086  -1.3937 
 C                    -3.5407    0.58394  -0.80981 
 C                    -2.67093  -0.17365  -1.59995 
 C                    -1.56846  -0.82365  -1.0349 
 C                    -1.33134  -0.76192   0.34468 
 C                    -0.13706  -1.45982   0.9536 
 C                     1.18426  -0.80749   0.6172 
 C                     2.07869  -1.42008  -0.26973 
 C                     3.29781  -0.81127  -0.58745 
 C                     3.66938   0.40295  -0.00176 
 N                     4.84445   1.04169  -0.43882 
 C                     2.74616   1.03912   0.84608 
 Cl                    3.10944   2.57929   1.54671 
 C                     1.52741   0.4345    1.16888 
 C                    -2.2273   -0.04671   1.14994 
 C                    -3.3282    0.60056   0.57954 
 Cl                   -4.4083    1.45714   1.62603 
 H                    -4.58775   1.4035   -2.36127 
 H                    -5.12583   1.84687  -0.81812 
 H                    -2.84511  -0.2658   -2.66909 
 H                    -0.89895  -1.38619  -1.6826 
 H                    -0.14048  -2.50798   0.62642 
 H                    -0.23528  -1.50301   2.04641 
 H                     1.8289   -2.37161  -0.73483 
 H                     3.95642  -1.29415  -1.30516 
 H                     5.59069   0.40741  -0.70279 
 H                     5.15156   1.77129   0.20175 
 H                     0.83878   0.94016   1.84171 
 H                    -2.07498   0.00403   2.22536 
 

 GradGradGradGradGradGradGradGradGradGradGradGradGradGradGradGradGradGrad
 Berny optimization.
 Initialization pass.
                           ----------------------------
                           !    Initial Parameters    !
                           ! (Angstroms and Degrees)  !
 --------------------------                            --------------------------
 ! Name  Definition              Value          Derivative Info.                !
 --------------------------------------------------------------------------------
 ! R1    R(1,2)                  1.4074         calculate D2E/DX2 analytically  !
 ! R2    R(1,18)                 1.0146         calculate D2E/DX2 analytically  !
 ! R3    R(1,19)                 1.0183         calculate D2E/DX2 analytically  !
 ! R4    R(2,3)                  1.3981         calculate D2E/DX2 analytically  !
 ! R5    R(2,16)                 1.4056         calculate D2E/DX2 analytically  !
 ! R6    R(3,4)                  1.399          calculate D2E/DX2 analytically  !
 ! R7    R(3,20)                 1.0871         calculate D2E/DX2 analytically  !
 ! R8    R(4,5)                  1.4012         calculate D2E/DX2 analytically  !
 ! R9    R(4,21)                 1.0882         calculate D2E/DX2 analytically  !
 ! R10   R(5,6)                  1.5113         calculate D2E/DX2 analytically  !
 ! R11   R(5,15)                 1.401          calculate D2E/DX2 analytically  !
 ! R12   R(6,7)                  1.5115         calculate D2E/DX2 analytically  !
 ! R13   R(6,22)                 1.098          calculate D2E/DX2 analytically  !
 ! R14   R(6,23)                 1.0981         calculate D2E/DX2 analytically  !
 ! R15   R(7,8)                  1.4007         calculate D2E/DX2 analytically  !
 ! R16   R(7,14)                 1.4017         calculate D2E/DX2 analytically  !
 ! R17   R(8,9)                  1.3992         calculate D2E/DX2 analytically  !
 ! R18   R(8,24)                 1.0882         calculate D2E/DX2 analytically  !
 ! R19   R(9,10)                 1.3984         calculate D2E/DX2 analytically  !
 ! R20   R(9,25)                 1.0872         calculate D2E/DX2 analytically  !
 ! R21   R(10,11)                1.407          calculate D2E/DX2 analytically  !
 ! R22   R(10,12)                1.4057         calculate D2E/DX2 analytically  !
 ! R23   R(11,26)                1.0143         calculate D2E/DX2 analytically  !
 ! R24   R(11,27)                1.0183         calculate D2E/DX2 analytically  !
 ! R25   R(12,13)                1.7306         calculate D2E/DX2 analytically  !
 ! R26   R(12,14)                1.3983         calculate D2E/DX2 analytically  !
 ! R27   R(14,28)                1.0875         calculate D2E/DX2 analytically  !
 ! R28   R(15,16)                1.3987         calculate D2E/DX2 analytically  !
 ! R29   R(15,29)                1.0873         calculate D2E/DX2 analytically  !
 ! R30   R(16,17)                1.7307         calculate D2E/DX2 analytically  !
 ! A1    A(2,1,18)             114.073          calculate D2E/DX2 analytically  !
 ! A2    A(2,1,19)             112.3517         calculate D2E/DX2 analytically  !
 ! A3    A(18,1,19)            112.8082         calculate D2E/DX2 analytically  !
 ! A4    A(1,2,3)              119.0865         calculate D2E/DX2 analytically  !
 ! A5    A(1,2,16)             122.036          calculate D2E/DX2 analytically  !
 ! A6    A(3,2,16)             118.0966         calculate D2E/DX2 analytically  !
 ! A7    A(2,3,4)              120.9128         calculate D2E/DX2 analytically  !
 ! A8    A(2,3,20)             120.1351         calculate D2E/DX2 analytically  !
 ! A9    A(4,3,20)             118.9521         calculate D2E/DX2 analytically  !
 ! A10   A(3,4,5)              120.7014         calculate D2E/DX2 analytically  !
 ! A11   A(3,4,21)             118.9868         calculate D2E/DX2 analytically  !
 ! A12   A(5,4,21)             120.3103         calculate D2E/DX2 analytically  !
 ! A13   A(4,5,6)              120.669          calculate D2E/DX2 analytically  !
 ! A14   A(4,5,15)             118.6979         calculate D2E/DX2 analytically  !
 ! A15   A(6,5,15)             120.6321         calculate D2E/DX2 analytically  !
 ! A16   A(5,6,7)              113.6924         calculate D2E/DX2 analytically  !
 ! A17   A(5,6,22)             108.5592         calculate D2E/DX2 analytically  !
 ! A18   A(5,6,23)             110.3928         calculate D2E/DX2 analytically  !
 ! A19   A(7,6,22)             110.3885         calculate D2E/DX2 analytically  !
 ! A20   A(7,6,23)             108.4613         calculate D2E/DX2 analytically  !
 ! A21   A(22,6,23)            104.994          calculate D2E/DX2 analytically  !
 ! A22   A(6,7,8)              120.6903         calculate D2E/DX2 analytically  !
 ! A23   A(6,7,14)             120.5865         calculate D2E/DX2 analytically  !
 ! A24   A(8,7,14)             118.7135         calculate D2E/DX2 analytically  !
 ! A25   A(7,8,9)              120.6542         calculate D2E/DX2 analytically  !
 ! A26   A(7,8,24)             120.4309         calculate D2E/DX2 analytically  !
 ! A27   A(9,8,24)             118.9085         calculate D2E/DX2 analytically  !
 ! A28   A(8,9,10)             120.9448         calculate D2E/DX2 analytically  !
 ! A29   A(8,9,25)             118.9763         calculate D2E/DX2 analytically  !
 ! A30   A(10,9,25)            120.078          calculate D2E/DX2 analytically  !
 ! A31   A(9,10,11)            119.077          calculate D2E/DX2 analytically  !
 ! A32   A(9,10,12)            118.1047         calculate D2E/DX2 analytically  !
 ! A33   A(11,10,12)           122.0329         calculate D2E/DX2 analytically  !
 ! A34   A(10,11,26)           114.2907         calculate D2E/DX2 analytically  !
 ! A35   A(10,11,27)           112.4408         calculate D2E/DX2 analytically  !
 ! A36   A(26,11,27)           112.9452         calculate D2E/DX2 analytically  !
 ! A37   A(10,12,13)           120.6032         calculate D2E/DX2 analytically  !
 ! A38   A(10,12,14)           121.0658         calculate D2E/DX2 analytically  !
 ! A39   A(13,12,14)           118.316          calculate D2E/DX2 analytically  !
 ! A40   A(7,14,12)            120.3762         calculate D2E/DX2 analytically  !
 ! A41   A(7,14,28)            120.0337         calculate D2E/DX2 analytically  !
 ! A42   A(12,14,28)           119.5851         calculate D2E/DX2 analytically  !
 ! A43   A(5,15,16)            120.3461         calculate D2E/DX2 analytically  !
 ! A44   A(5,15,29)            120.18           calculate D2E/DX2 analytically  !
 ! A45   A(16,15,29)           119.4728         calculate D2E/DX2 analytically  !
 ! A46   A(2,16,15)            121.106          calculate D2E/DX2 analytically  !
 ! A47   A(2,16,17)            120.6075         calculate D2E/DX2 analytically  !
 ! A48   A(15,16,17)           118.272          calculate D2E/DX2 analytically  !
 ! D1    D(18,1,2,3)           -34.5582         calculate D2E/DX2 analytically  !
 ! D2    D(18,1,2,16)          155.7595         calculate D2E/DX2 analytically  !
 ! D3    D(19,1,2,3)          -164.5565         calculate D2E/DX2 analytically  !
 ! D4    D(19,1,2,16)           25.7612         calculate D2E/DX2 analytically  !
 ! D5    D(1,2,3,4)           -174.2837         calculate D2E/DX2 analytically  !
 ! D6    D(1,2,3,20)             5.6779         calculate D2E/DX2 analytically  !
 ! D7    D(16,2,3,4)            -4.1944         calculate D2E/DX2 analytically  !
 ! D8    D(16,2,3,20)          175.7671         calculate D2E/DX2 analytically  !
 ! D9    D(1,2,16,15)          174.0174         calculate D2E/DX2 analytically  !
 ! D10   D(1,2,16,17)           -7.3932         calculate D2E/DX2 analytically  !
 ! D11   D(3,2,16,15)            4.2373         calculate D2E/DX2 analytically  !
 ! D12   D(3,2,16,17)         -177.1732         calculate D2E/DX2 analytically  !
 ! D13   D(2,3,4,5)              1.8392         calculate D2E/DX2 analytically  !
 ! D14   D(2,3,4,21)          -178.6093         calculate D2E/DX2 analytically  !
 ! D15   D(20,3,4,5)          -178.1227         calculate D2E/DX2 analytically  !
 ! D16   D(20,3,4,21)            1.4287         calculate D2E/DX2 analytically  !
 ! D17   D(3,4,5,6)           -179.7554         calculate D2E/DX2 analytically  !
 ! D18   D(3,4,5,15)             0.5988         calculate D2E/DX2 analytically  !
 ! D19   D(21,4,5,6)             0.6991         calculate D2E/DX2 analytically  !
 ! D20   D(21,4,5,15)         -178.9468         calculate D2E/DX2 analytically  !
 ! D21   D(4,5,6,7)             70.9453         calculate D2E/DX2 analytically  !
 ! D22   D(4,5,6,22)           -52.3291         calculate D2E/DX2 analytically  !
 ! D23   D(4,5,6,23)          -166.9097         calculate D2E/DX2 analytically  !
 ! D24   D(15,5,6,7)          -109.4157         calculate D2E/DX2 analytically  !
 ! D25   D(15,5,6,22)          127.3099         calculate D2E/DX2 analytically  !
 ! D26   D(15,5,6,23)           12.7293         calculate D2E/DX2 analytically  !
 ! D27   D(4,5,15,16)           -0.5625         calculate D2E/DX2 analytically  !
 ! D28   D(4,5,15,29)          179.0531         calculate D2E/DX2 analytically  !
 ! D29   D(6,5,15,16)          179.7915         calculate D2E/DX2 analytically  !
 ! D30   D(6,5,15,29)           -0.5929         calculate D2E/DX2 analytically  !
 ! D31   D(5,6,7,8)           -108.2304         calculate D2E/DX2 analytically  !
 ! D32   D(5,6,7,14)            70.6187         calculate D2E/DX2 analytically  !
 ! D33   D(22,6,7,8)            14.0392         calculate D2E/DX2 analytically  !
 ! D34   D(22,6,7,14)         -167.1117         calculate D2E/DX2 analytically  !
 ! D35   D(23,6,7,8)           128.5625         calculate D2E/DX2 analytically  !
 ! D36   D(23,6,7,14)          -52.5884         calculate D2E/DX2 analytically  !
 ! D37   D(6,7,8,9)            179.5748         calculate D2E/DX2 analytically  !
 ! D38   D(6,7,8,24)             0.504          calculate D2E/DX2 analytically  !
 ! D39   D(14,7,8,9)             0.7045         calculate D2E/DX2 analytically  !
 ! D40   D(14,7,8,24)         -178.3663         calculate D2E/DX2 analytically  !
 ! D41   D(6,7,14,12)         -179.4736         calculate D2E/DX2 analytically  !
 ! D42   D(6,7,14,28)           -0.2989         calculate D2E/DX2 analytically  !
 ! D43   D(8,7,14,12)           -0.602          calculate D2E/DX2 analytically  !
 ! D44   D(8,7,14,28)          178.5727         calculate D2E/DX2 analytically  !
 ! D45   D(7,8,9,10)             1.7413         calculate D2E/DX2 analytically  !
 ! D46   D(7,8,9,25)          -177.9231         calculate D2E/DX2 analytically  !
 ! D47   D(24,8,9,10)         -179.1739         calculate D2E/DX2 analytically  !
 ! D48   D(24,8,9,25)            1.1617         calculate D2E/DX2 analytically  !
 ! D49   D(8,9,10,11)         -174.2353         calculate D2E/DX2 analytically  !
 ! D50   D(8,9,10,12)           -4.1744         calculate D2E/DX2 analytically  !
 ! D51   D(25,9,10,11)           5.4254         calculate D2E/DX2 analytically  !
 ! D52   D(25,9,10,12)         175.4863         calculate D2E/DX2 analytically  !
 ! D53   D(9,10,11,26)         -34.5112         calculate D2E/DX2 analytically  !
 ! D54   D(9,10,11,27)        -164.9892         calculate D2E/DX2 analytically  !
 ! D55   D(12,10,11,26)        155.8349         calculate D2E/DX2 analytically  !
 ! D56   D(12,10,11,27)         25.3569         calculate D2E/DX2 analytically  !
 ! D57   D(9,10,12,13)        -177.1513         calculate D2E/DX2 analytically  !
 ! D58   D(9,10,12,14)           4.2812         calculate D2E/DX2 analytically  !
 ! D59   D(11,10,12,13)         -7.4011         calculate D2E/DX2 analytically  !
 ! D60   D(11,10,12,14)        174.0313         calculate D2E/DX2 analytically  !
 ! D61   D(10,12,14,7)          -1.9381         calculate D2E/DX2 analytically  !
 ! D62   D(10,12,14,28)        178.8835         calculate D2E/DX2 analytically  !
 ! D63   D(13,12,14,7)         179.4625         calculate D2E/DX2 analytically  !
 ! D64   D(13,12,14,28)          0.2841         calculate D2E/DX2 analytically  !
 ! D65   D(5,15,16,2)           -1.9024         calculate D2E/DX2 analytically  !
 ! D66   D(5,15,16,17)         179.4761         calculate D2E/DX2 analytically  !
 ! D67   D(29,15,16,2)         178.4793         calculate D2E/DX2 analytically  !
 ! D68   D(29,15,16,17)         -0.1422         calculate D2E/DX2 analytically  !
 --------------------------------------------------------------------------------
 Trust Radius=3.00D-01 FncErr=1.00D-07 GrdErr=1.00D-06 EigMax=2.50D+02 EigMin=1.00D-04
 Number of steps in this run=    156 maximum allowed number of steps=    174.
 GradGradGradGradGradGradGradGradGradGradGradGradGradGradGradGradGradGrad

                          Input orientation:                          
 ---------------------------------------------------------------------
 Center     Atomic      Atomic             Coordinates (Angstroms)
 Number     Number       Type             X           Y           Z
 ---------------------------------------------------------------------
      1          7           0       -4.703239    1.120856   -1.393697
      2          6           0       -3.540705    0.583942   -0.809811
      3          6           0       -2.670932   -0.173650   -1.599952
      4          6           0       -1.568464   -0.823653   -1.034897
      5          6           0       -1.331340   -0.761918    0.344681
      6          6           0       -0.137063   -1.459817    0.953603
      7          6           0        1.184257   -0.807485    0.617205
      8          6           0        2.078686   -1.420085   -0.269725
      9          6           0        3.297814   -0.811273   -0.587447
     10          6           0        3.669382    0.402950   -0.001757
     11          7           0        4.844445    1.041694   -0.438818
     12          6           0        2.746155    1.039120    0.846078
     13         17           0        3.109443    2.579295    1.546709
     14          6           0        1.527406    0.434502    1.168883
     15          6           0       -2.227301   -0.046706    1.149937
     16          6           0       -3.328202    0.600556    0.579541
     17         17           0       -4.408304    1.457137    1.626028
     18          1           0       -4.587752    1.403502   -2.361270
     19          1           0       -5.125830    1.846867   -0.818120
     20          1           0       -2.845111   -0.265803   -2.669093
     21          1           0       -0.898947   -1.386185   -1.682602
     22          1           0       -0.140483   -2.507980    0.626422
     23          1           0       -0.235282   -1.503005    2.046413
     24          1           0        1.828900   -2.371607   -0.734825
     25          1           0        3.956418   -1.294146   -1.305156
     26          1           0        5.590690    0.407408   -0.702794
     27          1           0        5.151564    1.771292    0.201746
     28          1           0        0.838778    0.940162    1.841713
     29          1           0       -2.074982    0.004031    2.225361
 ---------------------------------------------------------------------
                    Distance matrix (angstroms):
                    1          2          3          4          5
     1  N    0.000000
     2  C    1.407368   0.000000
     3  C    2.418379   1.398132   0.000000
     4  C    3.706301   2.433459   1.399009   0.000000
     5  C    4.235151   2.832929   2.433550   1.401169   0.000000
     6  C    5.746273   4.344117   3.820387   2.531352   1.511339
     7  C    6.513435   5.128129   4.492217   3.210478   2.530725
     8  C    7.328997   5.990440   5.087433   3.773980   3.526890
     9  C    8.270430   6.982937   6.087500   4.886821   4.722326
    10  C    8.517845   7.257483   6.564014   5.477861   5.146276
    11  N    9.595642   8.405826   7.701051   6.705239   6.481297
    12  C    7.779251   6.517189   6.066194   5.062008   4.485655
    13  Cl   8.474139   7.332058   7.133926   6.334631   5.685870
    14  C    6.771915   5.442730   5.065801   4.003000   3.206736
    15  C    3.736782   2.441999   2.788335   2.410646   1.400969
    16  C    2.460713   1.405608   2.404493   2.780550   2.428776
    17  Cl   3.052672   2.729195   4.010594   4.510789   4.004218
    18  H    1.014605   2.043284   2.596384   3.979395   4.755569
    19  H    1.018314   2.026739   3.274183   4.453484   4.749318
    20  H    2.646148   2.159362   1.087149   2.147469   3.408881
    21  H    4.565234   3.409113   2.148722   1.088218   2.164844
    22  H    6.169933   4.815003   4.099879   2.763343   2.132193
    23  H    6.219457   4.841404   4.582091   3.425400   2.155562
    24  H    7.436414   6.129726   5.082121   3.745435   3.707229
    25  H    8.990536   7.744639   6.727867   5.551461   5.564675
    26  H   10.341728   9.133728   8.330481   7.271814   7.097818
    27  H   10.004282   8.831115   8.259562   7.309022   6.961726
    28  H    6.419850   5.131991   5.040208   4.144965   3.138087
    29  H    4.610055   3.420074   3.875531   3.401603   2.162554
                    6          7          8          9         10
     6  C    0.000000
     7  C    1.511485   0.000000
     8  C    2.531335   1.400688   0.000000
     9  C    3.820186   2.432760   1.399239   0.000000
    10  C    4.344150   2.832687   2.434251   1.398369   0.000000
    11  N    5.745591   4.234575   3.706531   2.418191   1.407050
    12  C    3.816961   2.429374   2.781765   2.404844   1.405661
    13  Cl   5.215937   4.005071   4.511865   4.010743   2.729057
    14  C    2.530859   1.401653   2.411015   2.787650   2.441199
    15  C    2.530716   3.535720   4.737419   5.842086   6.024904
    16  C    3.816860   4.727185   5.834268   6.874533   7.024467
    17  Cl   5.215771   6.117432   7.345293   8.332431   8.307226
    18  H    6.244647   6.861185   7.535821   8.380563   8.645732
    19  H    6.241871   6.994493   7.929613   8.836102   8.950257
    20  H    4.677940   5.227712   5.597599   6.508941   7.071106
    21  H    2.745080   3.156540   3.296008   4.375236   5.186123
    22  H    1.098045   2.155621   2.628937   4.021713   4.835617
    23  H    1.098065   2.131074   3.275030   4.460771   4.803547
    24  H    2.747210   2.165647   1.088167   2.148039   3.409242
    25  H    4.678250   3.408399   2.147988   1.087213   2.159021
    26  H    6.247987   4.757627   3.982643   2.599186   2.045213
    27  H    6.242991   4.749971   4.455306   3.275494   2.027471
    28  H    2.738777   2.161723   3.400927   3.874945   3.420424
    29  H    2.741486   3.723891   5.050398   6.119113   6.173889
                   11         12         13         14         15
    11  N    0.000000
    12  C    2.460444   0.000000
    13  Cl   3.052338   1.730607   0.000000
    14  C    3.735791   1.398255   2.691789   0.000000
    15  C    7.329281   5.099668   5.961052   3.785465   0.000000
    16  C    8.247655   6.095998   6.803976   4.894060   1.398671
    17  Cl   9.489444   7.208976   7.601450   6.040481   2.691650
    18  H    9.632916   8.012868   8.712152   7.127138   4.472517
    19  H   10.009923   8.086418   8.599336   7.085796   3.982504
    20  H    8.112518   6.732125   7.830981   5.859982   3.874878
    21  H    6.358313   5.055996   6.497743   4.163299   3.403235
    22  H    6.211637   4.578520   6.106497   3.425539   3.269059
    23  H    6.201249   4.097825   5.301137   2.762437   2.625380
    24  H    4.564182   3.869583   5.599698   3.404299   5.040859
    25  H    2.644860   3.396567   4.884060   3.874170   6.769193
    26  H    1.014339   3.299916   3.991735   4.473722   8.047348
    27  H    1.018311   2.595618   2.575278   3.982071   7.658449
    28  H    4.610477   2.153873   2.815973   1.087475   3.294435
    29  H    7.486859   5.120273   5.828448   3.778710   1.087341
                   16         17         18         19         20
    16  C    0.000000
    17  Cl   1.730747   0.000000
    18  H    3.298418   3.991694   0.000000
    19  H    2.595807   2.576934   1.693343   0.000000
    20  H    3.396701   4.884685   2.432721   3.618170   0.000000
    21  H    3.868555   5.598848   4.674423   5.391336   2.452749
    22  H    4.452723   5.910639   6.633566   6.775328   4.816927
    23  H    4.017815   5.133545   6.842474   6.583666   5.529727
    24  H    6.095655   7.689968   7.620380   8.134539   5.479250
    25  H    7.759360   9.280623   9.021947   9.622390   7.012747
    26  H    9.012675  10.320136  10.360667  10.813378   8.688054
    27  H    8.568535   9.670489  10.077629  10.328150   8.737178
    28  H    4.367164   5.276897   6.879460   6.593434   5.947500
    29  H    2.152934   2.813380   5.413845   4.686843   4.962014
                   21         22         23         24         25
    21  H    0.000000
    22  H    2.676804   0.000000
    23  H    3.789413   1.742221   0.000000
    24  H    3.051309   2.397929   3.570798   0.000000
    25  H    4.870883   4.689242   5.370939   2.452047   0.000000
    26  H    6.803851   6.566022   6.719357   4.677073   2.434947
    27  H    7.080192   6.818965   6.568252   5.392669   3.618845
    28  H    4.566440   3.784912   2.676671   4.311230   4.961310
    29  H    4.311373   3.550928   2.384885   5.444874   7.108277
                   26         27         28         29
    26  H    0.000000
    27  H    1.694463   0.000000
    28  H    5.416550   4.688326   0.000000
    29  H    8.215797   7.709812   3.084399   0.000000
 Stoichiometry    C13H12Cl2N2
 Framework group  C1[X(C13H12Cl2N2)]
 Deg. of freedom    81
 Full point group                 C1      NOp   1
 Largest Abelian subgroup         C1      NOp   1
 Largest concise Abelian subgroup C1      NOp   1
                         Standard orientation:                         
 ---------------------------------------------------------------------
 Center     Atomic      Atomic             Coordinates (Angstroms)
 Number     Number       Type             X           Y           Z
 ---------------------------------------------------------------------
      1          7           0        4.601255   -0.364421    1.678407
      2          6           0        3.423466   -0.475620    0.916087
      3          6           0        2.590840   -1.582078    1.109108
      4          6           0        1.474887   -1.793000    0.292170
      5          6           0        1.186696   -0.919468   -0.764789
      6          6           0       -0.022133   -1.144905   -1.643457
      7          6           0       -1.336630   -0.867171   -0.950963
      8          6           0       -2.191783   -1.917081   -0.592734
      9          6           0       -3.404415   -1.659723    0.056235
     10          6           0       -3.809265   -0.349662    0.330590
     11          7           0       -4.973782   -0.139033    1.091723
     12          6           0       -2.924135    0.696348    0.017075
     13         17           0       -3.328163    2.335851    0.396272
     14          6           0       -1.712109    0.445386   -0.633407
     15          6           0        2.045358    0.163092   -0.996038
     16          6           0        3.159967    0.368562   -0.176460
     17         17           0        4.192380    1.714770   -0.518998
     18          1           0        4.518552   -0.725631    2.622924
     19          1           0        4.995210    0.574101    1.647780
     20          1           0        2.805042   -2.294667    1.901716
     21          1           0        0.835209   -2.652053    0.484674
     22          1           0        0.003699   -2.177815   -2.015121
     23          1           0        0.036341   -0.517789   -2.542930
     24          1           0       -1.915661   -2.948643   -0.801885
     25          1           0       -4.031411   -2.497114    0.352350
     26          1           0       -5.703502   -0.826348    0.936834
     27          1           0       -5.311430    0.819584    1.028444
     28          1           0       -1.053690    1.274803   -0.880697
     29          1           0        1.853180    0.847099   -1.819151
 ---------------------------------------------------------------------
 Rotational constants (GHZ):           0.6944774           0.1713047           0.1542474
 Standard basis: 6-31G(d,p) (6D, 7F)
 There are   323 symmetry adapted cartesian basis functions of A   symmetry.
 There are   323 symmetry adapted basis functions of A   symmetry.
   323 basis functions,   608 primitive gaussians,   323 cartesian basis functions
    69 alpha electrons       69 beta electrons
       nuclear repulsion energy      1307.5459111927 Hartrees.
 NAtoms=   29 NActive=   29 NUniq=   29 SFac= 1.00D+00 NAtFMM=   60 NAOKFM=F Big=F
 Integral buffers will be    131072 words long.
 Raffenetti 2 integral format.
 Two-electron integral symmetry is turned on.
 Force inversion solution in PCM.
 ------------------------------------------------------------------------------
 Polarizable Continuum Model (PCM)
 =================================
 Model                : PCM.
 Atomic radii         : UFF (Universal Force Field).
 Polarization charges : Total charges.
 Charge compensation  : None.
 Solution method      : Matrix inversion.
 Cavity type          : Scaled VdW (van der Waals Surface) (Alpha=1.100).
 Cavity algorithm     : GePol (No added spheres)
                        Default sphere list used, NSphG=   29.
                        Lebedev-Laikov grids with approx.  5.0 points / Ang**2.
                        Smoothing algorithm: York/Karplus (Gamma=1.0000).
                        Polarization charges: spherical gaussians, with
                                              point-specific exponents (IZeta= 3).
                        Self-potential: point-specific (ISelfS= 7).
                        Self-field    : sphere-specific E.n sum rule (ISelfD= 2).
 1st derivatives      : Analytical E(r).r(x)/FMM algorithm (CHGder, D1EAlg=3).
                        Cavity 1st derivative terms included.
 2nd derivatives      : Analytical E(r).r(xy)/FMM algorithm (CHGder, D2EAlg=3).
                        Cavity 2nd derivative terms included.
 Solvent              : Water, Eps=  78.355300 Eps(inf)=   1.777849
 ------------------------------------------------------------------------------
 One-electron integrals computed using PRISM.
 NBasis=   323 RedAO= T EigKep=  4.20D-04  NBF=   323
 NBsUse=   323 1.00D-06 EigRej= -1.00D+00 NBFU=   323
 ExpMin= 1.43D-01 ExpMax= 2.52D+04 ExpMxC= 3.78D+03 IAcc=3 IRadAn=         5 AccDes= 0.00D+00
 Harris functional with IExCor=  402 and IRadAn=       5 diagonalized for initial guess.
 HarFok:  IExCor=  402 AccDes= 0.00D+00 IRadAn=         5 IDoV= 1 UseB2=F ITyADJ=14
 ICtDFT=  3500011 ScaDFX=  1.000000  1.000000  1.000000  1.000000
 FoFCou: FMM=F IPFlag=           0 FMFlag=      100000 FMFlg1=           0
         NFxFlg=           0 DoJE=T BraDBF=F KetDBF=T FulRan=T
         wScrn=  0.000000 ICntrl=       500 IOpCl=  0 I1Cent=   200000004 NGrid=           0
         NMat0=    1 NMatS0=      1 NMatT0=    0 NMatD0=    1 NMtDS0=    0 NMtDT0=    0
 Petite list used in FoFCou.
 Requested convergence on RMS density matrix=1.00D-08 within  32 cycles.
 Requested convergence on MAX density matrix=1.00D-06.
 Requested convergence on             energy=1.00D-06.
 No special actions if energy rises.
 Inv3:  Mode=1 IEnd=    15759792.
 Iteration    1 A*A^-1 deviation from unit magnitude is 4.00D-15 for    729.
 Iteration    1 A*A^-1 deviation from orthogonality  is 2.65D-15 for    976    210.
 Iteration    1 A^-1*A deviation from unit magnitude is 3.77D-15 for    729.
 Iteration    1 A^-1*A deviation from orthogonality  is 3.97D-14 for    881    841.
 Error on total polarization charges =  0.01166
 SCF Done:  E(RB3LYP) =  -1532.54791656     A.U. after   13 cycles
            NFock= 13  Conv=0.52D-08     -V/T= 2.0057
 QCSCF skips out because SCF is already converged.
 DoSCS=F DFT=T ScalE2(SS,OS)=  1.000000  1.000000
 Range of M.O.s used for correlation:     1   323
 NBasis=   323 NAE=    69 NBE=    69 NFC=     0 NFV=     0
 NROrb=    323 NOA=    69 NOB=    69 NVA=   254 NVB=   254
 Symmetrizing basis deriv contribution to polar:
 IMax=3 JMax=2 DiffMx= 0.00D+00
 G2DrvN: will do    30 centers at a time, making    1 passes.
 Calling FoFCou, ICntrl=  3107 FMM=F I1Cent=   0 AccDes= 0.00D+00.
 NEqPCM:  Using equilibrium solvation (IEInf=0, Eps=  78.3553, EpsInf=   1.7778)
 G2PCM: DoFxE=T DoFxN=T DoGrad=T DoDP/DQ/DG/TGxP=FFFF NFrqRd=   0 IEInf=0 SqF1=F DoCFld=F IF1Alg=4.
 End of G2Drv F.D. properties file   721 does not exist.
 End of G2Drv F.D. properties file   722 does not exist.
 End of G2Drv F.D. properties file   788 does not exist.
          IDoAtm=11111111111111111111111111111
 NEqPCM:  Using equilibrium solvation (IEInf=0, Eps=  78.3553, EpsInf=   1.7778)
          Differentiating once with respect to nuclear coordinates.
 CalDSu exits because no D1Ps are significant.
          There are    90 degrees of freedom in the 1st order CPHF.  IDoFFX=6 NUNeed=     0.
     84 vectors produced by pass  0 Test12= 1.95D-14 1.11D-09 XBig12= 1.57D-01 1.22D-01.
 AX will form    84 AO Fock derivatives at one time.
     84 vectors produced by pass  1 Test12= 1.95D-14 1.11D-09 XBig12= 2.68D-02 2.75D-02.
     84 vectors produced by pass  2 Test12= 1.95D-14 1.11D-09 XBig12= 2.31D-04 1.58D-03.
     84 vectors produced by pass  3 Test12= 1.95D-14 1.11D-09 XBig12= 6.46D-07 8.73D-05.
     84 vectors produced by pass  4 Test12= 1.95D-14 1.11D-09 XBig12= 8.67D-10 2.72D-06.
     68 vectors produced by pass  5 Test12= 1.95D-14 1.11D-09 XBig12= 8.48D-13 1.07D-07.
     17 vectors produced by pass  6 Test12= 1.95D-14 1.11D-09 XBig12= 8.02D-16 3.74D-09.
 InvSVY:  IOpt=1 It=  1 EMax= 4.44D-16
 Solved reduced A of dimension   505 with    90 vectors.
 End of Minotr F.D. properties file   721 does not exist.
 End of Minotr F.D. properties file   722 does not exist.
 End of Minotr F.D. properties file   788 does not exist.

 **********************************************************************

            Population analysis using the SCF density.

 **********************************************************************

 Orbital symmetries:
       Occupied  (A) (A) (A) (A) (A) (A) (A) (A) (A) (A) (A) (A)
                 (A) (A) (A) (A) (A) (A) (A) (A) (A) (A) (A) (A)
                 (A) (A) (A) (A) (A) (A) (A) (A) (A) (A) (A) (A)
                 (A) (A) (A) (A) (A) (A) (A) (A) (A) (A) (A) (A)
                 (A) (A) (A) (A) (A) (A) (A) (A) (A) (A) (A) (A)
                 (A) (A) (A) (A) (A) (A) (A) (A) (A)
       Virtual   (A) (A) (A) (A) (A) (A) (A) (A) (A) (A) (A) (A)
                 (A) (A) (A) (A) (A) (A) (A) (A) (A) (A) (A) (A)
                 (A) (A) (A) (A) (A) (A) (A) (A) (A) (A) (A) (A)
                 (A) (A) (A) (A) (A) (A) (A) (A) (A) (A) (A) (A)
                 (A) (A) (A) (A) (A) (A) (A) (A) (A) (A) (A) (A)
                 (A) (A) (A) (A) (A) (A) (A) (A) (A) (A) (A) (A)
                 (A) (A) (A) (A) (A) (A) (A) (A) (A) (A) (A) (A)
                 (A) (A) (A) (A) (A) (A) (A) (A) (A) (A) (A) (A)
                 (A) (A) (A) (A) (A) (A) (A) (A) (A) (A) (A) (A)
                 (A) (A) (A) (A) (A) (A) (A) (A) (A) (A) (A) (A)
                 (A) (A) (A) (A) (A) (A) (A) (A) (A) (A) (A) (A)
                 (A) (A) (A) (A) (A) (A) (A) (A) (A) (A) (A) (A)
                 (A) (A) (A) (A) (A) (A) (A) (A) (A) (A) (A) (A)
                 (A) (A) (A) (A) (A) (A) (A) (A) (A) (A) (A) (A)
                 (A) (A) (A) (A) (A) (A) (A) (A) (A) (A) (A) (A)
                 (A) (A) (A) (A) (A) (A) (A) (A) (A) (A) (A) (A)
                 (A) (A) (A) (A) (A) (A) (A) (A) (A) (A) (A) (A)
                 (A) (A) (A) (A) (A) (A) (A) (A) (A) (A) (A) (A)
                 (A) (A) (A) (A) (A) (A) (A) (A) (A) (A) (A) (A)
                 (A) (A) (A) (A) (A) (A) (A) (A) (A) (A) (A) (A)
                 (A) (A) (A) (A) (A) (A) (A) (A) (A) (A) (A) (A)
                 (A) (A)
 The electronic state is 1-A.
 Alpha  occ. eigenvalues -- -101.55724-101.55695 -14.34212 -14.34202 -10.24615
 Alpha  occ. eigenvalues --  -10.24507 -10.23921 -10.23916 -10.19862 -10.19849
 Alpha  occ. eigenvalues --  -10.19585 -10.19574 -10.19242 -10.19210 -10.19189
 Alpha  occ. eigenvalues --  -10.19173 -10.19077  -9.47379  -9.47350  -7.23744
 Alpha  occ. eigenvalues --   -7.23714  -7.22813  -7.22797  -7.22784  -7.22768
 Alpha  occ. eigenvalues --   -0.92816  -0.92784  -0.87558  -0.87437  -0.84740
 Alpha  occ. eigenvalues --   -0.83030  -0.77332  -0.73871  -0.73446  -0.72112
 Alpha  occ. eigenvalues --   -0.67262  -0.61972  -0.61695  -0.59286  -0.57104
 Alpha  occ. eigenvalues --   -0.52024  -0.51901  -0.51596  -0.51163  -0.47168
 Alpha  occ. eigenvalues --   -0.46655  -0.45291  -0.44214  -0.43774  -0.43142
 Alpha  occ. eigenvalues --   -0.42900  -0.42525  -0.40747  -0.40467  -0.38793
 Alpha  occ. eigenvalues --   -0.37612  -0.36267  -0.35574  -0.34469  -0.34061
 Alpha  occ. eigenvalues --   -0.34056  -0.32265  -0.31977  -0.30876  -0.30328
 Alpha  occ. eigenvalues --   -0.24807  -0.24658  -0.21293  -0.20325
 Alpha virt. eigenvalues --   -0.01571  -0.01050  -0.00037   0.01558   0.03724
 Alpha virt. eigenvalues --    0.03977   0.09547   0.09634   0.10304   0.12172
 Alpha virt. eigenvalues --    0.13011   0.14231   0.15050   0.15633   0.15898
 Alpha virt. eigenvalues --    0.16647   0.17339   0.18199   0.18422   0.20711
 Alpha virt. eigenvalues --    0.23500   0.24772   0.27343   0.27715   0.28719
 Alpha virt. eigenvalues --    0.29381   0.30653   0.31222   0.31769   0.33873
 Alpha virt. eigenvalues --    0.34668   0.35566   0.39638   0.39817   0.41223
 Alpha virt. eigenvalues --    0.41323   0.42939   0.43477   0.43597   0.45130
 Alpha virt. eigenvalues --    0.49008   0.49466   0.50906   0.51768   0.52218
 Alpha virt. eigenvalues --    0.53310   0.53682   0.54867   0.55088   0.55805
 Alpha virt. eigenvalues --    0.58497   0.58573   0.58713   0.58802   0.59796
 Alpha virt. eigenvalues --    0.60257   0.60705   0.61472   0.61993   0.62969
 Alpha virt. eigenvalues --    0.63945   0.64578   0.65061   0.66569   0.69174
 Alpha virt. eigenvalues --    0.69312   0.69956   0.72202   0.72828   0.74877
 Alpha virt. eigenvalues --    0.75396   0.75663   0.76983   0.78150   0.79925
 Alpha virt. eigenvalues --    0.80630   0.81478   0.82164   0.82330   0.83136
 Alpha virt. eigenvalues --    0.84007   0.84730   0.85195   0.85297   0.86760
 Alpha virt. eigenvalues --    0.86990   0.87526   0.87953   0.90647   0.91260
 Alpha virt. eigenvalues --    0.91922   0.92248   0.93017   0.93237   0.94423
 Alpha virt. eigenvalues --    0.95347   0.96031   0.96232   0.98710   0.99392
 Alpha virt. eigenvalues --    1.00911   1.01322   1.04911   1.05872   1.10023
 Alpha virt. eigenvalues --    1.10643   1.11108   1.12735   1.13216   1.14766
 Alpha virt. eigenvalues --    1.16064   1.18790   1.19029   1.20219   1.25214
 Alpha virt. eigenvalues --    1.25675   1.27482   1.29071   1.31871   1.33158
 Alpha virt. eigenvalues --    1.34214   1.36236   1.38012   1.39655   1.40380
 Alpha virt. eigenvalues --    1.41130   1.41169   1.42777   1.45400   1.50094
 Alpha virt. eigenvalues --    1.51049   1.52321   1.52503   1.54735   1.58097
 Alpha virt. eigenvalues --    1.62000   1.74402   1.75634   1.76096   1.77281
 Alpha virt. eigenvalues --    1.77912   1.79628   1.80455   1.82359   1.82664
 Alpha virt. eigenvalues --    1.84668   1.86005   1.86451   1.87544   1.88703
 Alpha virt. eigenvalues --    1.89167   1.90309   1.93420   1.94901   1.97582
 Alpha virt. eigenvalues --    1.97835   1.98323   1.98849   2.00446   2.02279
 Alpha virt. eigenvalues --    2.03939   2.04436   2.06706   2.07824   2.08983
 Alpha virt. eigenvalues --    2.13293   2.14444   2.15881   2.16307   2.17168
 Alpha virt. eigenvalues --    2.21808   2.23162   2.24222   2.26720   2.27129
 Alpha virt. eigenvalues --    2.29008   2.29711   2.30883   2.32820   2.33383
 Alpha virt. eigenvalues --    2.34128   2.34695   2.35146   2.35950   2.41608
 Alpha virt. eigenvalues --    2.43553   2.44415   2.46103   2.46650   2.47446
 Alpha virt. eigenvalues --    2.48258   2.48924   2.50350   2.53164   2.53818
 Alpha virt. eigenvalues --    2.55321   2.56313   2.58339   2.58893   2.61795
 Alpha virt. eigenvalues --    2.63551   2.64906   2.65023   2.65867   2.68068
 Alpha virt. eigenvalues --    2.69805   2.71333   2.76790   2.77050   2.79036
 Alpha virt. eigenvalues --    2.80453   2.85091   2.85853   2.88241   2.90111
 Alpha virt. eigenvalues --    2.96215   2.96800   2.99373   3.01104   3.02915
 Alpha virt. eigenvalues --    3.08996   3.17318   3.18727   3.24965   3.26447
 Alpha virt. eigenvalues --    3.27456   3.28339   3.31375   3.34065   3.34349
 Alpha virt. eigenvalues --    3.42460   3.42677   3.47767   3.49089   3.50639
 Alpha virt. eigenvalues --    3.74030   3.75063   4.03865   4.03939   4.07899
 Alpha virt. eigenvalues --    4.08016   4.13745   4.14489   4.16857   4.22036
 Alpha virt. eigenvalues --    4.28304   4.28409   4.39830   4.41752   4.42469
 Alpha virt. eigenvalues --    4.47202   4.58108   4.79062   4.82455
          Condensed to atoms (all electrons):
               1          2          3          4          5          6
     1  N    6.817368   0.318122  -0.067641   0.004570   0.000450   0.000000
     2  C    0.318122   4.630879   0.521196  -0.024266  -0.027616   0.000279
     3  C   -0.067641   0.521196   4.941781   0.512709  -0.029303   0.005905
     4  C    0.004570  -0.024266   0.512709   4.915055   0.531795  -0.060713
     5  C    0.000450  -0.027616  -0.029303   0.531795   4.730883   0.353084
     6  C    0.000000   0.000279   0.005905  -0.060713   0.353084   5.116954
     7  C   -0.000000  -0.000010   0.000267  -0.001299  -0.057649   0.353767
     8  C   -0.000000   0.000001   0.000016   0.001855  -0.004236  -0.046286
     9  C    0.000000   0.000000   0.000000  -0.000105  -0.000061   0.006308
    10  C    0.000000   0.000000   0.000000  -0.000002   0.000059   0.000513
    11  N   -0.000000  -0.000000   0.000000   0.000000   0.000000   0.000001
    12  C   -0.000000   0.000000  -0.000002  -0.000044   0.000103   0.005922
    13  Cl   0.000000  -0.000000   0.000000   0.000002  -0.000001  -0.000176
    14  C   -0.000000  -0.000003  -0.000044  -0.000589  -0.000945  -0.060064
    15  C    0.003919  -0.028732  -0.047136  -0.040588   0.540634  -0.046512
    16  C   -0.075712   0.498206  -0.047732  -0.042530  -0.034411   0.007119
    17  Cl  -0.007440  -0.071921   0.004388   0.000498   0.004065  -0.000173
    18  H    0.344464  -0.024545  -0.009982  -0.000019  -0.000016  -0.000000
    19  H    0.338480  -0.025309   0.005724  -0.000191  -0.000017  -0.000000
    20  H   -0.007403  -0.041224   0.366420  -0.031637   0.003352  -0.000185
    21  H   -0.000111   0.004199  -0.037226   0.366224  -0.042600  -0.007970
    22  H    0.000000   0.000047   0.000028  -0.006886  -0.029171   0.363655
    23  H   -0.000000  -0.000001  -0.000188   0.005463  -0.033405   0.362894
    24  H    0.000000   0.000000   0.000003  -0.000006   0.000152  -0.009296
    25  H    0.000000  -0.000000   0.000000   0.000002  -0.000001  -0.000187
    26  H    0.000000   0.000000  -0.000000  -0.000000   0.000000  -0.000000
    27  H    0.000000  -0.000000   0.000000   0.000000   0.000000   0.000000
    28  H    0.000000  -0.000001  -0.000013   0.000182   0.001917  -0.008657
    29  H   -0.000097   0.003352   0.000461   0.005688  -0.032872  -0.010048
               7          8          9         10         11         12
     1  N   -0.000000  -0.000000   0.000000   0.000000  -0.000000  -0.000000
     2  C   -0.000010   0.000001   0.000000   0.000000  -0.000000   0.000000
     3  C    0.000267   0.000016   0.000000   0.000000   0.000000  -0.000002
     4  C   -0.001299   0.001855  -0.000105  -0.000002   0.000000  -0.000044
     5  C   -0.057649  -0.004236  -0.000061   0.000059   0.000000   0.000103
     6  C    0.353767  -0.046286   0.006308   0.000513   0.000001   0.005922
     7  C    4.734920   0.546811  -0.033251  -0.026541   0.000509  -0.032571
     8  C    0.546811   4.909911   0.502605  -0.024817   0.004479  -0.042042
     9  C   -0.033251   0.502605   4.954803   0.525567  -0.068098  -0.048054
    10  C   -0.026541  -0.024817   0.525567   4.629199   0.318157   0.494299
    11  N    0.000509   0.004479  -0.068098   0.318157   6.818092  -0.075265
    12  C   -0.032571  -0.042042  -0.048054   0.494299  -0.075265   5.182114
    13  Cl   0.003896   0.000550   0.004370  -0.071213  -0.007530   0.212733
    14  C    0.525692  -0.041375  -0.046380  -0.029624   0.003859   0.495994
    15  C   -0.004782  -0.000158   0.000005   0.000001  -0.000000   0.000015
    16  C    0.000057   0.000007  -0.000000  -0.000000   0.000000   0.000000
    17  Cl   0.000001  -0.000000   0.000000  -0.000000   0.000000  -0.000000
    18  H   -0.000000  -0.000000   0.000000   0.000000  -0.000000  -0.000000
    19  H   -0.000000  -0.000000  -0.000000   0.000000  -0.000000  -0.000000
    20  H    0.000003   0.000000  -0.000000  -0.000000   0.000000   0.000000
    21  H    0.001305   0.001648   0.000062  -0.000006  -0.000000  -0.000007
    22  H   -0.033300  -0.007878   0.000341  -0.000003  -0.000000  -0.000183
    23  H   -0.029297   0.002885  -0.000251  -0.000001  -0.000000   0.000143
    24  H   -0.040434   0.367517  -0.038894   0.004186  -0.000111   0.000621
    25  H    0.003470  -0.030756   0.365700  -0.041676  -0.007458   0.005150
    26  H   -0.000004  -0.000054  -0.009893  -0.024168   0.344546   0.006152
    27  H   -0.000004  -0.000201   0.005741  -0.025157   0.338406  -0.013587
    28  H   -0.035674   0.005532   0.000465   0.003347  -0.000099  -0.043227
    29  H    0.000090  -0.000006   0.000000   0.000000  -0.000000   0.000004
              13         14         15         16         17         18
     1  N    0.000000  -0.000000   0.003919  -0.075712  -0.007440   0.344464
     2  C   -0.000000  -0.000003  -0.028732   0.498206  -0.071921  -0.024545
     3  C    0.000000  -0.000044  -0.047136  -0.047732   0.004388  -0.009982
     4  C    0.000002  -0.000589  -0.040588  -0.042530   0.000498  -0.000019
     5  C   -0.000001  -0.000945   0.540634  -0.034411   0.004065  -0.000016
     6  C   -0.000176  -0.060064  -0.046512   0.007119  -0.000173  -0.000000
     7  C    0.003896   0.525692  -0.004782   0.000057   0.000001  -0.000000
     8  C    0.000550  -0.041375  -0.000158   0.000007  -0.000000  -0.000000
     9  C    0.004370  -0.046380   0.000005  -0.000000   0.000000   0.000000
    10  C   -0.071213  -0.029624   0.000001  -0.000000  -0.000000   0.000000
    11  N   -0.007530   0.003859  -0.000000   0.000000   0.000000  -0.000000
    12  C    0.212733   0.495994   0.000015   0.000000  -0.000000  -0.000000
    13  Cl  16.946596  -0.070349  -0.000000  -0.000000   0.000000   0.000000
    14  C   -0.070349   4.967276   0.001827  -0.000112   0.000002   0.000000
    15  C   -0.000000   0.001827   4.968792   0.478658  -0.069182  -0.000069
    16  C   -0.000000  -0.000112   0.478658   5.202000   0.211567   0.006183
    17  Cl   0.000000   0.000002  -0.069182   0.211567  16.948557   0.000116
    18  H    0.000000   0.000000  -0.000069   0.006183   0.000116   0.421136
    19  H    0.000000  -0.000000   0.000137  -0.013640   0.014108  -0.025964
    20  H   -0.000000   0.000001   0.000853   0.005146  -0.000161   0.003866
    21  H    0.000000   0.000160   0.005716   0.000612   0.000013  -0.000005
    22  H    0.000003   0.005448   0.002935  -0.000334   0.000004   0.000000
    23  H   -0.000004  -0.007302  -0.007763   0.000324  -0.000016   0.000000
    24  H    0.000013   0.005791  -0.000005  -0.000000  -0.000000   0.000000
    25  H   -0.000161   0.000820  -0.000000   0.000000  -0.000000   0.000000
    26  H    0.000117  -0.000084   0.000000  -0.000000  -0.000000   0.000000
    27  H    0.014188   0.000108   0.000000  -0.000000  -0.000000   0.000000
    28  H   -0.000535   0.368366   0.001813   0.000039  -0.000007   0.000000
    29  H   -0.000001   0.000013   0.370055  -0.045361  -0.000635   0.000003
              19         20         21         22         23         24
     1  N    0.338480  -0.007403  -0.000111   0.000000  -0.000000   0.000000
     2  C   -0.025309  -0.041224   0.004199   0.000047  -0.000001   0.000000
     3  C    0.005724   0.366420  -0.037226   0.000028  -0.000188   0.000003
     4  C   -0.000191  -0.031637   0.366224  -0.006886   0.005463  -0.000006
     5  C   -0.000017   0.003352  -0.042600  -0.029171  -0.033405   0.000152
     6  C   -0.000000  -0.000185  -0.007970   0.363655   0.362894  -0.009296
     7  C   -0.000000   0.000003   0.001305  -0.033300  -0.029297  -0.040434
     8  C   -0.000000   0.000000   0.001648  -0.007878   0.002885   0.367517
     9  C   -0.000000  -0.000000   0.000062   0.000341  -0.000251  -0.038894
    10  C    0.000000  -0.000000  -0.000006  -0.000003  -0.000001   0.004186
    11  N   -0.000000   0.000000  -0.000000  -0.000000  -0.000000  -0.000111
    12  C   -0.000000   0.000000  -0.000007  -0.000183   0.000143   0.000621
    13  Cl   0.000000  -0.000000   0.000000   0.000003  -0.000004   0.000013
    14  C   -0.000000   0.000001   0.000160   0.005448  -0.007302   0.005791
    15  C    0.000137   0.000853   0.005716   0.002935  -0.007763  -0.000005
    16  C   -0.013640   0.005146   0.000612  -0.000334   0.000324  -0.000000
    17  Cl   0.014108  -0.000161   0.000013   0.000004  -0.000016  -0.000000
    18  H   -0.025964   0.003866  -0.000005   0.000000   0.000000   0.000000
    19  H    0.426635   0.000005   0.000003   0.000000   0.000000   0.000000
    20  H    0.000005   0.598411  -0.005493  -0.000003   0.000002  -0.000000
    21  H    0.000003  -0.005493   0.608709   0.002622   0.000095   0.000596
    22  H    0.000000  -0.000003   0.002622   0.610874  -0.034404   0.005603
    23  H    0.000000   0.000002   0.000095  -0.034404   0.613253   0.000094
    24  H    0.000000  -0.000000   0.000596   0.005603   0.000094   0.607796
    25  H    0.000000  -0.000000  -0.000002  -0.000006   0.000003  -0.005622
    26  H    0.000000  -0.000000  -0.000000   0.000000  -0.000000  -0.000006
    27  H    0.000000  -0.000000  -0.000000  -0.000000  -0.000000   0.000003
    28  H    0.000000  -0.000000  -0.000009   0.000116   0.002463  -0.000158
    29  H   -0.000001   0.000015  -0.000158   0.000133   0.005764  -0.000000
              25         26         27         28         29
     1  N    0.000000   0.000000   0.000000   0.000000  -0.000097
     2  C   -0.000000   0.000000  -0.000000  -0.000001   0.003352
     3  C    0.000000  -0.000000   0.000000  -0.000013   0.000461
     4  C    0.000002  -0.000000   0.000000   0.000182   0.005688
     5  C   -0.000001   0.000000   0.000000   0.001917  -0.032872
     6  C   -0.000187  -0.000000   0.000000  -0.008657  -0.010048
     7  C    0.003470  -0.000004  -0.000004  -0.035674   0.000090
     8  C   -0.030756  -0.000054  -0.000201   0.005532  -0.000006
     9  C    0.365700  -0.009893   0.005741   0.000465   0.000000
    10  C   -0.041676  -0.024168  -0.025157   0.003347   0.000000
    11  N   -0.007458   0.344546   0.338406  -0.000099  -0.000000
    12  C    0.005150   0.006152  -0.013587  -0.043227   0.000004
    13  Cl  -0.000161   0.000117   0.014188  -0.000535  -0.000001
    14  C    0.000820  -0.000084   0.000108   0.368366   0.000013
    15  C   -0.000000   0.000000   0.000000   0.001813   0.370055
    16  C    0.000000  -0.000000  -0.000000   0.000039  -0.045361
    17  Cl  -0.000000  -0.000000  -0.000000  -0.000007  -0.000635
    18  H    0.000000   0.000000   0.000000   0.000000   0.000003
    19  H    0.000000   0.000000   0.000000   0.000000  -0.000001
    20  H   -0.000000  -0.000000  -0.000000  -0.000000   0.000015
    21  H   -0.000002  -0.000000  -0.000000  -0.000009  -0.000158
    22  H   -0.000006   0.000000  -0.000000   0.000116   0.000133
    23  H    0.000003  -0.000000  -0.000000   0.002463   0.005764
    24  H   -0.005622  -0.000006   0.000003  -0.000158  -0.000000
    25  H    0.599841   0.003855   0.000006   0.000015  -0.000000
    26  H    0.003855   0.420443  -0.025953   0.000003  -0.000000
    27  H    0.000006  -0.025953   0.426500  -0.000001  -0.000000
    28  H    0.000015   0.000003  -0.000001   0.590765   0.000510
    29  H   -0.000000  -0.000000  -0.000000   0.000510   0.589360
 Mulliken charges:
               1
     1  N   -0.668969
     2  C    0.267346
     3  C   -0.119634
     4  C   -0.135167
     5  C    0.125809
     6  C   -0.326134
     7  C    0.124030
     8  C   -0.146008
     9  C   -0.120980
    10  C    0.267881
    11  N   -0.669488
    12  C   -0.148269
    13  Cl  -0.032496
    14  C   -0.118486
    15  C   -0.130431
    16  C   -0.150088
    17  Cl  -0.033785
    18  H    0.284832
    19  H    0.280031
    20  H    0.108034
    21  H    0.101621
    22  H    0.120360
    23  H    0.119248
    24  H    0.102157
    25  H    0.107007
    26  H    0.285047
    27  H    0.279950
    28  H    0.112850
    29  H    0.113732
 Sum of Mulliken charges =  -0.00000
 Mulliken charges with hydrogens summed into heavy atoms:
               1
     1  N   -0.104107
     2  C    0.267346
     3  C   -0.011600
     4  C   -0.033546
     5  C    0.125809
     6  C   -0.086525
     7  C    0.124030
     8  C   -0.043851
     9  C   -0.013974
    10  C    0.267881
    11  N   -0.104491
    12  C   -0.148269
    13  Cl  -0.032496
    14  C   -0.005636
    15  C   -0.016700
    16  C   -0.150088
    17  Cl  -0.033785
 APT charges:
               1
     1  N   -1.110425
     2  C    0.120394
     3  C   -0.420596
     4  C   -0.514731
     5  C   -0.409222
     6  C   -0.957499
     7  C   -0.398929
     8  C   -0.531881
     9  C   -0.372124
    10  C    0.204538
    11  N   -1.541329
    12  C   -0.118195
    13  Cl  -0.022323
    14  C   -0.517412
    15  C   -0.438128
    16  C   -0.047118
    17  Cl   0.013951
    18  H    0.709886
    19  H    0.698792
    20  H    0.651473
    21  H    0.392051
    22  H    0.526361
    23  H    0.402648
    24  H    0.513244
    25  H    0.788283
    26  H    1.113136
    27  H    0.698375
    28  H    0.197737
    29  H    0.369045
 Sum of APT charges =  -0.00000
 APT charges with hydrogens summed into heavy atoms:
               1
     1  N    0.298253
     2  C    0.120394
     3  C    0.230877
     4  C   -0.122680
     5  C   -0.409222
     6  C   -0.028491
     7  C   -0.398929
     8  C   -0.018637
     9  C    0.416159
    10  C    0.204538
    11  N    0.270182
    12  C   -0.118195
    13  Cl  -0.022323
    14  C   -0.319675
    15  C   -0.069083
    16  C   -0.047118
    17  Cl   0.013951
 Electronic spatial extent (au):  <R**2>=           6743.3941
 Charge=             -0.0000 electrons
 Dipole moment (field-independent basis, Debye):
    X=             -2.1513    Y=             -2.5260    Z=              1.0635  Tot=              3.4842
 Quadrupole moment (field-independent basis, Debye-Ang):
   XX=            -98.0151   YY=           -107.4541   ZZ=           -106.7730
   XY=              6.6126   XZ=             11.0819   YZ=             -1.7557
 Traceless Quadrupole moment (field-independent basis, Debye-Ang):
   XX=              6.0656   YY=             -3.3734   ZZ=             -2.6922
   XY=              6.6126   XZ=             11.0819   YZ=             -1.7557
 Octapole moment (field-independent basis, Debye-Ang**2):
  XXX=           -158.1720  YYY=             -6.3603  ZZZ=             18.3665  XYY=            -12.1162
  XXY=             -8.0541  XXZ=             64.5692  XZZ=             47.2936  YZZ=              2.2122
  YYZ=              6.8729  XYZ=             -2.9664
 Hexadecapole moment (field-independent basis, Debye-Ang**3):
 XXXX=          -5955.3018 YYYY=          -1342.3870 ZZZZ=           -603.8535 XXXY=            197.2785
 XXXZ=            118.9743 YYYX=             37.7630 YYYZ=             -6.7916 ZZZX=            110.0738
 ZZZY=            -21.4714 XXYY=          -1317.7948 XXZZ=          -1163.4336 YYZZ=           -329.4957
 XXYZ=             -3.2855 YYXZ=              3.6503 ZZXY=            -24.1104
 N-N= 1.307545911193D+03 E-N=-6.222313379826D+03  KE= 1.523802267046D+03
  Exact polarizability:   0.000   0.000   0.000   0.000   0.000   0.000
 Approx polarizability: 300.113  37.874 297.479  -8.284 -20.877 199.774
 D2PCM: PCM CHGder 2nd derivatives, FixD1E=F FixD2E=F DoIter=F DoCFld=F I1PDM=0
 Calling FoFJK, ICntrl=    100147 FMM=F ISym2X=0 I1Cent= 0 IOpClX= 0 NMat=1 NMatS=1 NMatT=0.
 ***** Axes restored to original set *****
 -------------------------------------------------------------------
 Center     Atomic                   Forces (Hartrees/Bohr)
 Number     Number              X              Y              Z
 -------------------------------------------------------------------
      1        7           0.006082951    0.003277385    0.010895932
      2        6          -0.022477066   -0.002634019   -0.006725927
      3        6           0.017930090   -0.007022195    0.001775338
      4        6          -0.007744555    0.005066994   -0.003230480
      5        6          -0.002754090    0.001331878    0.004216809
      6        6          -0.001057429   -0.005559651    0.006445553
      7        6           0.001844827   -0.002297215   -0.002529666
      8        6           0.007306079    0.005687349   -0.000911484
      9        6          -0.010746707   -0.011623785    0.003442272
     10        6           0.011716840    0.011649681   -0.017384218
     11        7          -0.006893868    0.002259813    0.011018724
     12        6          -0.010943913   -0.018844396    0.000834125
     13       17           0.005676311    0.014475248    0.005389025
     14        6           0.003256527   -0.002275708   -0.003792518
     15        6          -0.000029053   -0.000859358   -0.005911798
     16        6           0.018005102   -0.007011935   -0.005878582
     17       17          -0.011634415    0.008651379    0.007817841
     18        1          -0.000588152    0.000936468    0.002883034
     19        1           0.000232213   -0.001028771   -0.006968659
     20        1          -0.001708566    0.002194776    0.000868095
     21        1          -0.000455634    0.000325435    0.001550086
     22        1           0.003369714    0.001570868   -0.001284395
     23        1          -0.003053469    0.001607614   -0.001093562
     24        1          -0.000538090    0.001031730    0.001570544
     25        1           0.001752782    0.001894693    0.001523842
     26        1          -0.000923813    0.002050486    0.002038248
     27        1           0.003548323   -0.004474212   -0.004355956
     28        1           0.001506700   -0.000249991   -0.000717335
     29        1          -0.000679636   -0.000130561   -0.001484886
 -------------------------------------------------------------------
 Cartesian Forces:  Max     0.022477066 RMS     0.006846041
 FormGI is forming the generalized inverse of G from B-inverse, IUseBI=4.

 GradGradGradGradGradGradGradGradGradGradGradGradGradGradGradGradGradGrad
 Berny optimization.
 Internal  Forces:  Max     0.016269110 RMS     0.003266799
 Search for a local minimum.
 Step number   1 out of a maximum of  156
 All quantities printed in internal units (Hartrees-Bohrs-Radians)
 Mixed Optimization -- RFO/linear search
 Second derivative matrix not updated -- analytic derivatives used.
 ITU=  0
     Eigenvalues ---    0.00047   0.00105   0.00495   0.00504   0.01538
     Eigenvalues ---    0.01602   0.01692   0.01700   0.01760   0.01776
     Eigenvalues ---    0.01874   0.01889   0.01959   0.01992   0.02222
     Eigenvalues ---    0.02241   0.02422   0.02441   0.02619   0.02644
     Eigenvalues ---    0.02753   0.02761   0.02882   0.02913   0.05139
     Eigenvalues ---    0.05208   0.08708   0.11342   0.11466   0.11699
     Eigenvalues ---    0.11759   0.12274   0.12362   0.12412   0.13341
     Eigenvalues ---    0.13359   0.16027   0.16104   0.16592   0.16611
     Eigenvalues ---    0.18106   0.18400   0.18561   0.18855   0.19054
     Eigenvalues ---    0.19344   0.19437   0.21343   0.21354   0.22316
     Eigenvalues ---    0.22589   0.28012   0.28029   0.29816   0.31833
     Eigenvalues ---    0.32490   0.32916   0.33056   0.33798   0.35538
     Eigenvalues ---    0.35564   0.35768   0.35812   0.35904   0.35947
     Eigenvalues ---    0.37947   0.38250   0.41653   0.41729   0.44105
     Eigenvalues ---    0.44300   0.44787   0.44803   0.45952   0.46058
     Eigenvalues ---    0.46547   0.46687   0.47550   0.47577   0.50698
     Eigenvalues ---    0.50776
 RFO step:  Lambda=-8.67961274D-03 EMin= 4.66515054D-04
 Linear search not attempted -- first point.
 Iteration  1 RMS(Cart)=  0.03297336 RMS(Int)=  0.00078228
 Iteration  2 RMS(Cart)=  0.00114132 RMS(Int)=  0.00040473
 Iteration  3 RMS(Cart)=  0.00000101 RMS(Int)=  0.00040473
 Iteration  4 RMS(Cart)=  0.00000000 RMS(Int)=  0.00040473
 Variable       Old X    -DE/DX   Delta X   Delta X   Delta X     New X
                                 (Linear)    (Quad)   (Total)
    R1        2.65954  -0.00634   0.00000  -0.03492  -0.03492   2.62462
    R2        1.91733  -0.00255   0.00000  -0.00539  -0.00539   1.91194
    R3        1.92433  -0.00477   0.00000  -0.01196  -0.01196   1.91237
    R4        2.64209   0.00722   0.00000   0.02128   0.02138   2.66346
    R5        2.65621   0.00000   0.00000   0.00007   0.00019   2.65641
    R6        2.64374  -0.00639   0.00000  -0.02032  -0.02034   2.62341
    R7        2.05441  -0.00077   0.00000  -0.00092  -0.00092   2.05350
    R8        2.64783   0.00026   0.00000   0.00438   0.00426   2.65208
    R9        2.05643  -0.00137   0.00000  -0.00288  -0.00288   2.05355
   R10        2.85602   0.00611   0.00000   0.01629   0.01629   2.87231
   R11        2.64745  -0.00274   0.00000  -0.00795  -0.00805   2.63940
   R12        2.85629   0.00628   0.00000   0.01656   0.01656   2.87286
   R13        2.07501  -0.00113   0.00000  -0.00375  -0.00375   2.07125
   R14        2.07504  -0.00088   0.00000  -0.00400  -0.00400   2.07104
   R15        2.64692  -0.00029   0.00000  -0.00055  -0.00067   2.64625
   R16        2.64874  -0.00246   0.00000  -0.00361  -0.00372   2.64502
   R17        2.64418  -0.00455   0.00000  -0.01410  -0.01410   2.63008
   R18        2.05634  -0.00145   0.00000  -0.00280  -0.00280   2.05353
   R19        2.64253   0.00536   0.00000   0.01513   0.01524   2.65778
   R20        2.05453  -0.00079   0.00000  -0.00120  -0.00120   2.05333
   R21        2.65894  -0.00634   0.00000  -0.03444  -0.03444   2.62450
   R22        2.65631   0.00170   0.00000   0.00624   0.00636   2.66267
   R23        1.91682  -0.00249   0.00000  -0.00497  -0.00497   1.91185
   R24        1.92433  -0.00488   0.00000  -0.01209  -0.01209   1.91224
   R25        3.27037   0.01626   0.00000   0.06823   0.06823   3.33861
   R26        2.64232  -0.00310   0.00000  -0.01461  -0.01461   2.62771
   R27        2.05503  -0.00151   0.00000  -0.00361  -0.00361   2.05142
   R28        2.64311  -0.00133   0.00000  -0.00837  -0.00835   2.63476
   R29        2.05478  -0.00157   0.00000  -0.00351  -0.00351   2.05127
   R30        3.27064   0.01627   0.00000   0.06760   0.06760   3.33824
    A1        1.99095  -0.00107   0.00000   0.00654   0.00627   1.99722
    A2        1.96091   0.00602   0.00000   0.04325   0.04299   2.00389
    A3        1.96887  -0.00393   0.00000  -0.01917  -0.01956   1.94931
    A4        2.07845   0.00685   0.00000   0.03283   0.03166   2.11011
    A5        2.12993  -0.00070   0.00000   0.01018   0.00890   2.13883
    A6        2.06117  -0.00569   0.00000  -0.02937  -0.03037   2.03081
    A7        2.11033   0.00220   0.00000   0.01095   0.01102   2.12135
    A8        2.09675  -0.00390   0.00000  -0.02833  -0.02837   2.06839
    A9        2.07611   0.00170   0.00000   0.01738   0.01734   2.09345
   A10        2.10664   0.00242   0.00000   0.01325   0.01311   2.11975
   A11        2.07671  -0.00029   0.00000  -0.00024  -0.00018   2.07653
   A12        2.09981  -0.00213   0.00000  -0.01297  -0.01290   2.08691
   A13        2.10607   0.00153   0.00000   0.01009   0.01019   2.11626
   A14        2.07167  -0.00350   0.00000  -0.01782  -0.01806   2.05361
   A15        2.10543   0.00197   0.00000   0.00778   0.00788   2.11330
   A16        1.98431   0.00228   0.00000   0.00566   0.00565   1.98996
   A17        1.89472   0.00207   0.00000   0.01435   0.01437   1.90908
   A18        1.92672  -0.00400   0.00000  -0.02720  -0.02717   1.89955
   A19        1.92664  -0.00429   0.00000  -0.03169  -0.03163   1.89502
   A20        1.89301   0.00235   0.00000   0.01887   0.01895   1.91196
   A21        1.83249   0.00143   0.00000   0.02068   0.02090   1.85339
   A22        2.10644   0.00401   0.00000   0.01608   0.01618   2.12263
   A23        2.10463  -0.00037   0.00000   0.00239   0.00249   2.10712
   A24        2.07194  -0.00363   0.00000  -0.01830  -0.01854   2.05340
   A25        2.10581   0.00280   0.00000   0.01496   0.01482   2.12063
   A26        2.10192  -0.00265   0.00000  -0.01520  -0.01519   2.08673
   A27        2.07535  -0.00014   0.00000   0.00046   0.00048   2.07582
   A28        2.11089   0.00164   0.00000   0.00933   0.00946   2.12034
   A29        2.07653   0.00198   0.00000   0.01637   0.01630   2.09283
   A30        2.09576  -0.00362   0.00000  -0.02567  -0.02574   2.07002
   A31        2.07829   0.00729   0.00000   0.03639   0.03513   2.11342
   A32        2.06132  -0.00578   0.00000  -0.02962  -0.03069   2.03063
   A33        2.12988  -0.00102   0.00000   0.00749   0.00608   2.13596
   A34        1.99475  -0.00137   0.00000   0.00341   0.00322   1.99797
   A35        1.96246   0.00606   0.00000   0.04250   0.04232   2.00478
   A36        1.97127  -0.00391   0.00000  -0.02082  -0.02109   1.95017
   A37        2.10492  -0.00527   0.00000  -0.02860  -0.02870   2.07622
   A38        2.11300   0.00220   0.00000   0.02147   0.02159   2.13459
   A39        2.06500   0.00308   0.00000   0.00742   0.00732   2.07233
   A40        2.10096   0.00290   0.00000   0.00576   0.00564   2.10660
   A41        2.09498  -0.00070   0.00000   0.00383   0.00387   2.09885
   A42        2.08715  -0.00219   0.00000  -0.00946  -0.00943   2.07772
   A43        2.10044   0.00309   0.00000   0.00667   0.00660   2.10703
   A44        2.09754  -0.00118   0.00000   0.00171   0.00175   2.09928
   A45        2.08519  -0.00191   0.00000  -0.00836  -0.00833   2.07686
   A46        2.11370   0.00159   0.00000   0.01981   0.01992   2.13362
   A47        2.10500  -0.00499   0.00000  -0.02670  -0.02682   2.07818
   A48        2.06424   0.00341   0.00000   0.00724   0.00713   2.07136
    D1       -0.60315   0.00125   0.00000   0.09377   0.09469  -0.50847
    D2        2.71852  -0.00122   0.00000   0.00748   0.00682   2.72533
    D3       -2.87205   0.00222   0.00000   0.07499   0.07565  -2.79640
    D4        0.44962  -0.00024   0.00000  -0.01130  -0.01222   0.43739
    D5       -3.04182  -0.00115   0.00000  -0.03433  -0.03450  -3.07632
    D6        0.09910  -0.00120   0.00000  -0.03563  -0.03571   0.06339
    D7       -0.07321   0.00167   0.00000   0.05233   0.05175  -0.02146
    D8        3.06772   0.00162   0.00000   0.05104   0.05054   3.11825
    D9        3.03718   0.00179   0.00000   0.03735   0.03642   3.07359
   D10       -0.12904   0.00229   0.00000   0.05460   0.05373  -0.07531
   D11        0.07396  -0.00188   0.00000  -0.05423  -0.05367   0.02029
   D12       -3.09226  -0.00138   0.00000  -0.03698  -0.03636  -3.12861
   D13        0.03210  -0.00048   0.00000  -0.02040  -0.02077   0.01133
   D14       -3.11732  -0.00043   0.00000  -0.01389  -0.01401  -3.13133
   D15       -3.10883  -0.00042   0.00000  -0.01911  -0.01952  -3.12835
   D16        0.02494  -0.00038   0.00000  -0.01259  -0.01276   0.01218
   D17       -3.13732   0.00002   0.00000   0.00130   0.00138  -3.13594
   D18        0.01045  -0.00035   0.00000  -0.00930  -0.00925   0.00120
   D19        0.01220  -0.00004   0.00000  -0.00536  -0.00548   0.00672
   D20       -3.12321  -0.00041   0.00000  -0.01595  -0.01611  -3.13932
   D21        1.23823  -0.00164   0.00000  -0.02801  -0.02810   1.21013
   D22       -0.91331   0.00078   0.00000  -0.00167  -0.00179  -0.91511
   D23       -2.91312   0.00006   0.00000  -0.01979  -0.01986  -2.93298
   D24       -1.90966  -0.00128   0.00000  -0.01730  -0.01720  -1.92686
   D25        2.22198   0.00114   0.00000   0.00904   0.00911   2.23109
   D26        0.22217   0.00041   0.00000  -0.00908  -0.00896   0.21321
   D27       -0.00982   0.00017   0.00000   0.00714   0.00731  -0.00250
   D28        3.12507   0.00032   0.00000   0.01036   0.01047   3.13554
   D29        3.13795  -0.00020   0.00000  -0.00346  -0.00330   3.13465
   D30       -0.01035  -0.00004   0.00000  -0.00024  -0.00014  -0.01049
   D31       -1.88898  -0.00125   0.00000  -0.02059  -0.02069  -1.90967
   D32        1.23253  -0.00095   0.00000  -0.01067  -0.01057   1.22196
   D33        0.24503  -0.00014   0.00000  -0.02168  -0.02171   0.22332
   D34       -2.91665   0.00016   0.00000  -0.01176  -0.01159  -2.92824
   D35        2.24384   0.00059   0.00000  -0.00342  -0.00358   2.24025
   D36       -0.91784   0.00090   0.00000   0.00651   0.00654  -0.91130
   D37        3.13417  -0.00012   0.00000  -0.00108  -0.00096   3.13321
   D38        0.00880  -0.00045   0.00000  -0.01657  -0.01668  -0.00788
   D39        0.01230  -0.00045   0.00000  -0.01105  -0.01101   0.00129
   D40       -3.11308  -0.00078   0.00000  -0.02654  -0.02673  -3.13980
   D41       -3.13240  -0.00014   0.00000  -0.00228  -0.00208  -3.13449
   D42       -0.00522   0.00025   0.00000   0.00849   0.00861   0.00339
   D43       -0.01051   0.00024   0.00000   0.00783   0.00803  -0.00247
   D44        3.11668   0.00064   0.00000   0.01861   0.01872   3.13540
   D45        0.03039  -0.00039   0.00000  -0.01924  -0.01966   0.01073
   D46       -3.10534  -0.00058   0.00000  -0.02543  -0.02604  -3.13139
   D47       -3.12718  -0.00010   0.00000  -0.00414  -0.00419  -3.13136
   D48        0.02028  -0.00029   0.00000  -0.01032  -0.01057   0.00971
   D49       -3.04098  -0.00124   0.00000  -0.03706  -0.03739  -3.07837
   D50       -0.07286   0.00170   0.00000   0.05303   0.05240  -0.02046
   D51        0.09469  -0.00103   0.00000  -0.03066  -0.03095   0.06374
   D52        3.06281   0.00191   0.00000   0.05942   0.05884   3.12166
   D53       -0.60233   0.00125   0.00000   0.09630   0.09722  -0.50511
   D54       -2.87960   0.00241   0.00000   0.08287   0.08361  -2.79599
   D55        2.71983  -0.00136   0.00000   0.00620   0.00546   2.72529
   D56        0.44256  -0.00020   0.00000  -0.00723  -0.00815   0.43441
   D57       -3.09187  -0.00158   0.00000  -0.04214  -0.04145  -3.13333
   D58        0.07472  -0.00189   0.00000  -0.05583  -0.05531   0.01941
   D59       -0.12917   0.00230   0.00000   0.05363   0.05258  -0.07659
   D60        3.03742   0.00199   0.00000   0.03994   0.03873   3.07615
   D61       -0.03383   0.00076   0.00000   0.02530   0.02548  -0.00835
   D62        3.12211   0.00036   0.00000   0.01447   0.01481   3.13691
   D63        3.13221   0.00058   0.00000   0.01242   0.01216  -3.13882
   D64        0.00496   0.00017   0.00000   0.00159   0.00149   0.00645
   D65       -0.03320   0.00075   0.00000   0.02421   0.02444  -0.00876
   D66        3.13245   0.00038   0.00000   0.00783   0.00767   3.14011
   D67        3.11505   0.00060   0.00000   0.02098   0.02129   3.13634
   D68       -0.00248   0.00022   0.00000   0.00460   0.00451   0.00203
         Item               Value     Threshold  Converged?
 Maximum Force            0.016269     0.000450     NO 
 RMS     Force            0.003267     0.000300     NO 
 Maximum Displacement     0.103258     0.001800     NO 
 RMS     Displacement     0.033027     0.001200     NO 
 Predicted change in Energy=-4.805699D-03
 GradGradGradGradGradGradGradGradGradGradGradGradGradGradGradGradGradGrad

                          Input orientation:                          
 ---------------------------------------------------------------------
 Center     Atomic      Atomic             Coordinates (Angstroms)
 Number     Number       Type             X           Y           Z
 ---------------------------------------------------------------------
      1          7           0       -4.728111    1.132504   -1.372580
      2          6           0       -3.594466    0.561895   -0.808425
      3          6           0       -2.679386   -0.162848   -1.598304
      4          6           0       -1.583063   -0.803094   -1.036708
      5          6           0       -1.343839   -0.768662    0.345747
      6          6           0       -0.138031   -1.465185    0.954975
      7          6           0        1.192056   -0.815201    0.609217
      8          6           0        2.106771   -1.429644   -0.254896
      9          6           0        3.319545   -0.827890   -0.577564
     10          6           0        3.686882    0.418874   -0.040258
     11          7           0        4.864529    1.046644   -0.424822
     12          6           0        2.750953    1.030478    0.817256
     13         17           0        3.136452    2.604491    1.520931
     14          6           0        1.537832    0.432681    1.140574
     15          6           0       -2.250313   -0.066647    1.143416
     16          6           0       -3.349417    0.576464    0.575684
     17         17           0       -4.462946    1.446898    1.635397
     18          1           0       -4.624445    1.396994   -2.343633
     19          1           0       -5.147483    1.873659   -0.825836
     20          1           0       -2.847890   -0.215714   -2.670521
     21          1           0       -0.898620   -1.342244   -1.686136
     22          1           0       -0.113816   -2.508928    0.621265
     23          1           0       -0.259447   -1.495195    2.043764
     24          1           0        1.869129   -2.398192   -0.686544
     25          1           0        4.006089   -1.323526   -1.258481
     26          1           0        5.603769    0.415414   -0.705230
     27          1           0        5.198973    1.753807    0.217081
     28          1           0        0.857602    0.949445    1.810416
     29          1           0       -2.109309   -0.017275    2.218570
 ---------------------------------------------------------------------
                    Distance matrix (angstroms):
                    1          2          3          4          5
     1  N    0.000000
     2  C    1.388890   0.000000
     3  C    2.434371   1.409444   0.000000
     4  C    3.708190   2.441526   1.388247   0.000000
     5  C    4.245041   2.857939   2.435166   1.403423   0.000000
     6  C    5.764923   4.377851   3.830640   2.548192   1.519959
     7  C    6.539836   5.178503   4.504085   3.226531   2.549970
     8  C    7.384405   6.064382   5.129992   3.823437   3.564320
     9  C    8.321055   7.056085   6.121385   4.924123   4.754278
    10  C    8.549646   7.323152   6.579914   5.500767   5.183377
    11  N    9.639728   8.481552   7.729850   6.735532   6.514058
    12  C    7.793728   6.567096   6.061975   5.057951   4.497394
    13  Cl   8.508260   7.409679   7.156239   6.358221   5.729941
    14  C    6.787322   5.491427   5.063698   4.000960   3.221646
    15  C    3.729300   2.451835   2.776759   2.395938   1.396709
    16  C    2.450655   1.405710   2.392018   2.760977   2.425815
    17  Cl   3.035964   2.740393   4.028547   4.527287   4.037416
    18  H    1.011753   2.028573   2.602283   3.974726   4.762899
    19  H    1.011984   2.032951   3.291743   4.462573   4.777256
    20  H    2.652843   2.151616   1.086663   2.148056   3.415522
    21  H    4.570306   3.415217   2.137713   1.086694   2.157723
    22  H    6.207026   4.856840   4.124649   2.795967   2.148812
    23  H    6.208475   4.846540   4.571204   3.423487   2.141732
    24  H    7.513989   6.215130   5.149472   3.818977   3.747553
    25  H    9.073662   7.843838   6.793984   5.617709   5.612767
    26  H   10.378213   9.199979   8.351204   7.296930   7.125717
    27  H   10.072737   8.932910   8.308894   7.355660   7.013401
    28  H    6.431575   5.179714   5.036552   4.139367   3.153330
    29  H    4.590912   3.421086   3.861956   3.389879   2.158238
                    6          7          8          9         10
     6  C    0.000000
     7  C    1.520250   0.000000
     8  C    2.550331   1.400334   0.000000
     9  C    3.835316   2.436148   1.391777   0.000000
    10  C    4.378370   2.858131   2.441278   1.406434   0.000000
    11  N    5.765305   4.245322   3.710271   2.433965   1.388826
    12  C    3.820148   2.424865   2.759834   2.392144   1.409025
    13  Cl   5.254027   4.038092   4.526373   4.027213   2.741752
    14  C    2.538673   1.399682   2.395680   2.777686   2.452136
    15  C    2.540306   3.563090   4.774644   5.879165   6.073475
    16  C    3.824290   4.750035   5.872335   6.912108   7.064964
    17  Cl   5.258145   6.176503   7.416797   8.404702   8.383576
    18  H    6.261054   6.888019   7.593548   8.436591   8.679885
    19  H    6.278039   7.034138   7.991369   8.891038   8.987743
    20  H    4.695608   5.238056   5.644248   6.541596   7.072780
    21  H    2.751196   3.149182   3.329934   4.391629   5.180471
    22  H    1.096060   2.138729   2.619832   4.006376   4.843031
[...]
    44    C    3  dx2y2  Ryd( 3d)     0.00044
    45    C    3  dz2    Ryd( 3d)     0.00056

    46    C    4  S      Cor( 1S)     1.99904
    47    C    4  S      Val( 2S)     0.94950
    48    C    4  S      Ryd( 3S)     0.00068
    49    C    4  S      Ryd( 4S)     0.00005
    50    C    4  px     Val( 2p)     1.12194
    51    C    4  px     Ryd( 3p)     0.00360
    52    C    4  py     Val( 2p)     1.09924
    53    C    4  py     Ryd( 3p)     0.00381
    54    C    4  pz     Val( 2p)     1.06745
    55    C    4  pz     Ryd( 3p)     0.00433
    56    C    4  dxy    Ryd( 3d)     0.00059
    57    C    4  dxz    Ryd( 3d)     0.00052
    58    C    4  dyz    Ryd( 3d)     0.00059
    59    C    4  dx2y2  Ryd( 3d)     0.00042
    60    C    4  dz2    Ryd( 3d)     0.00060

    61    C    5  S      Cor( 1S)     1.99900
    62    C    5  S      Val( 2S)     0.88332
    63    C    5  S      Ryd( 3S)     0.00098
    64    C    5  S      Ryd( 4S)     0.00005
    65    C    5  px     Val( 2p)     1.01491
    66    C    5  px     Ryd( 3p)     0.00498
    67    C    5  py     Val( 2p)     1.01910
    68    C    5  py     Ryd( 3p)     0.00325
    69    C    5  pz     Val( 2p)     1.06442
    70    C    5  pz     Ryd( 3p)     0.00439
    71    C    5  dxy    Ryd( 3d)     0.00052
    72    C    5  dxz    Ryd( 3d)     0.00072
    73    C    5  dyz    Ryd( 3d)     0.00051
    74    C    5  dx2y2  Ryd( 3d)     0.00079
    75    C    5  dz2    Ryd( 3d)     0.00072

    76    C    6  S      Cor( 1S)     1.99921
    77    C    6  S      Val( 2S)     1.02341
    78    C    6  S      Ryd( 3S)     0.00067
    79    C    6  S      Ryd( 4S)     0.00002
    80    C    6  px     Val( 2p)     1.03286
    81    C    6  px     Ryd( 3p)     0.00187
    82    C    6  py     Val( 2p)     1.24758
    83    C    6  py     Ryd( 3p)     0.00576
    84    C    6  pz     Val( 2p)     1.17573
    85    C    6  pz     Ryd( 3p)     0.00304
    86    C    6  dxy    Ryd( 3d)     0.00038
    87    C    6  dxz    Ryd( 3d)     0.00069
    88    C    6  dyz    Ryd( 3d)     0.00057
    89    C    6  dx2y2  Ryd( 3d)     0.00099
    90    C    6  dz2    Ryd( 3d)     0.00069

    91    C    7  S      Cor( 1S)     1.99900
    92    C    7  S      Val( 2S)     0.88366
    93    C    7  S      Ryd( 3S)     0.00091
    94    C    7  S      Ryd( 4S)     0.00005
    95    C    7  px     Val( 2p)     1.02882
    96    C    7  px     Ryd( 3p)     0.00504
    97    C    7  py     Val( 2p)     1.07357
    98    C    7  py     Ryd( 3p)     0.00476
    99    C    7  pz     Val( 2p)     0.98485
   100    C    7  pz     Ryd( 3p)     0.00253
   101    C    7  dxy    Ryd( 3d)     0.00077
   102    C    7  dxz    Ryd( 3d)     0.00055
   103    C    7  dyz    Ryd( 3d)     0.00086
   104    C    7  dx2y2  Ryd( 3d)     0.00073
   105    C    7  dz2    Ryd( 3d)     0.00043

   106    C    8  S      Cor( 1S)     1.99904
   107    C    8  S      Val( 2S)     0.94601
   108    C    8  S      Ryd( 3S)     0.00060
   109    C    8  S      Ryd( 4S)     0.00004
   110    C    8  px     Val( 2p)     1.06458
   111    C    8  px     Ryd( 3p)     0.00434
   112    C    8  py     Val( 2p)     1.18826
   113    C    8  py     Ryd( 3p)     0.00486
   114    C    8  pz     Val( 2p)     1.08045
   115    C    8  pz     Ryd( 3p)     0.00400
   116    C    8  dxy    Ryd( 3d)     0.00060
   117    C    8  dxz    Ryd( 3d)     0.00051
   118    C    8  dyz    Ryd( 3d)     0.00039
   119    C    8  dx2y2  Ryd( 3d)     0.00067
   120    C    8  dz2    Ryd( 3d)     0.00046

   121    C    9  S      Cor( 1S)     1.99905
   122    C    9  S      Val( 2S)     0.94938
   123    C    9  S      Ryd( 3S)     0.00063
   124    C    9  S      Ryd( 4S)     0.00004
   125    C    9  px     Val( 2p)     1.14042
   126    C    9  px     Ryd( 3p)     0.00441
   127    C    9  py     Val( 2p)     1.10264
   128    C    9  py     Ryd( 3p)     0.00445
   129    C    9  pz     Val( 2p)     1.09516
   130    C    9  pz     Ryd( 3p)     0.00407
   131    C    9  dxy    Ryd( 3d)     0.00063
   132    C    9  dxz    Ryd( 3d)     0.00044
   133    C    9  dyz    Ryd( 3d)     0.00044
   134    C    9  dx2y2  Ryd( 3d)     0.00058
   135    C    9  dz2    Ryd( 3d)     0.00047

   136    C   10  S      Cor( 1S)     1.99883
   137    C   10  S      Val( 2S)     0.84306
   138    C   10  S      Ryd( 3S)     0.00126
   139    C   10  S      Ryd( 4S)     0.00010
   140    C   10  px     Val( 2p)     0.94006
   141    C   10  px     Ryd( 3p)     0.00463
   142    C   10  py     Val( 2p)     1.08952
   143    C   10  py     Ryd( 3p)     0.00498
   144    C   10  pz     Val( 2p)     0.94685
   145    C   10  pz     Ryd( 3p)     0.00250
   146    C   10  dxy    Ryd( 3d)     0.00100
   147    C   10  dxz    Ryd( 3d)     0.00117
   148    C   10  dyz    Ryd( 3d)     0.00102
   149    C   10  dx2y2  Ryd( 3d)     0.00092
   150    C   10  dz2    Ryd( 3d)     0.00084

   151    N   11  S      Cor( 1S)     1.99948
   152    N   11  S      Val( 2S)     1.36191
   153    N   11  S      Ryd( 3S)     0.00016
   154    N   11  S      Ryd( 4S)     0.00001
   155    N   11  px     Val( 2p)     1.33349
   156    N   11  px     Ryd( 3p)     0.00223
   157    N   11  py     Val( 2p)     1.42659
   158    N   11  py     Ryd( 3p)     0.00185
   159    N   11  pz     Val( 2p)     1.62911
   160    N   11  pz     Ryd( 3p)     0.00360
   161    N   11  dxy    Ryd( 3d)     0.00055
   162    N   11  dxz    Ryd( 3d)     0.00071
   163    N   11  dyz    Ryd( 3d)     0.00054
   164    N   11  dx2y2  Ryd( 3d)     0.00031
   165    N   11  dz2    Ryd( 3d)     0.00110

   166    C   12  S      Cor( 1S)     1.99851
   167    C   12  S      Val( 2S)     0.91415
   168    C   12  S      Ryd( 3S)     0.00063
   169    C   12  S      Ryd( 4S)     0.00009
   170    C   12  px     Val( 2p)     1.10870
   171    C   12  px     Ryd( 3p)     0.00637
   172    C   12  py     Val( 2p)     0.90108
   173    C   12  py     Ryd( 3p)     0.00640
   174    C   12  pz     Val( 2p)     1.16969
   175    C   12  pz     Ryd( 3p)     0.00332
   176    C   12  dxy    Ryd( 3d)     0.00103
   177    C   12  dxz    Ryd( 3d)     0.00059
   178    C   12  dyz    Ryd( 3d)     0.00095
   179    C   12  dx2y2  Ryd( 3d)     0.00130
   180    C   12  dz2    Ryd( 3d)     0.00077

   181   Cl   13  S      Cor( 1S)     2.00000
   182   Cl   13  S      Cor( 2S)     1.99981
   183   Cl   13  S      Val( 3S)     1.83944
   184   Cl   13  S      Ryd( 4S)     0.00300
   185   Cl   13  S      Ryd( 5S)     0.00000
   186   Cl   13  px     Cor( 2p)     1.99998
   187   Cl   13  px     Val( 3p)     1.93746
   188   Cl   13  px     Ryd( 4p)     0.00170
   189   Cl   13  py     Cor( 2p)     1.99992
   190   Cl   13  py     Val( 3p)     1.33023
   191   Cl   13  py     Ryd( 4p)     0.00368
   192   Cl   13  pz     Cor( 2p)     1.99999
   193   Cl   13  pz     Val( 3p)     1.91750
   194   Cl   13  pz     Ryd( 4p)     0.00248
   195   Cl   13  dxy    Ryd( 3d)     0.00171
   196   Cl   13  dxz    Ryd( 3d)     0.00014
   197   Cl   13  dyz    Ryd( 3d)     0.00308
   198   Cl   13  dx2y2  Ryd( 3d)     0.00305
   199   Cl   13  dz2    Ryd( 3d)     0.00127

   200    C   14  S      Cor( 1S)     1.99889
   201    C   14  S      Val( 2S)     0.94453
   202    C   14  S      Ryd( 3S)     0.00116
   203    C   14  S      Ryd( 4S)     0.00006
   204    C   14  px     Val( 2p)     1.12620
   205    C   14  px     Ryd( 3p)     0.00378
   206    C   14  py     Val( 2p)     1.14483
   207    C   14  py     Ryd( 3p)     0.00545
   208    C   14  pz     Val( 2p)     1.06580
   209    C   14  pz     Ryd( 3p)     0.00533
   210    C   14  dxy    Ryd( 3d)     0.00059
   211    C   14  dxz    Ryd( 3d)     0.00049
   212    C   14  dyz    Ryd( 3d)     0.00043
   213    C   14  dx2y2  Ryd( 3d)     0.00062
   214    C   14  dz2    Ryd( 3d)     0.00048

   215    C   15  S      Cor( 1S)     1.99890
   216    C   15  S      Val( 2S)     0.94380
   217    C   15  S      Ryd( 3S)     0.00107
   218    C   15  S      Ryd( 4S)     0.00006
   219    C   15  px     Val( 2p)     1.06621
   220    C   15  px     Ryd( 3p)     0.00482
   221    C   15  py     Val( 2p)     1.09946
   222    C   15  py     Ryd( 3p)     0.00536
   223    C   15  pz     Val( 2p)     1.18582
   224    C   15  pz     Ryd( 3p)     0.00440
   225    C   15  dxy    Ryd( 3d)     0.00042
   226    C   15  dxz    Ryd( 3d)     0.00054
   227    C   15  dyz    Ryd( 3d)     0.00056
   228    C   15  dx2y2  Ryd( 3d)     0.00052
   229    C   15  dz2    Ryd( 3d)     0.00049

   230    C   16  S      Cor( 1S)     1.99851
   231    C   16  S      Val( 2S)     0.91855
   232    C   16  S      Ryd( 3S)     0.00061
   233    C   16  S      Ryd( 4S)     0.00009
   234    C   16  px     Val( 2p)     1.02795
   235    C   16  px     Ryd( 3p)     0.00560
   236    C   16  py     Val( 2p)     1.04428
   237    C   16  py     Ryd( 3p)     0.00416
   238    C   16  pz     Val( 2p)     1.07415
   239    C   16  pz     Ryd( 3p)     0.00598
   240    C   16  dxy    Ryd( 3d)     0.00124
   241    C   16  dxz    Ryd( 3d)     0.00086
   242    C   16  dyz    Ryd( 3d)     0.00085
   243    C   16  dx2y2  Ryd( 3d)     0.00091
   244    C   16  dz2    Ryd( 3d)     0.00090

   245   Cl   17  S      Cor( 1S)     2.00000
   246   Cl   17  S      Cor( 2S)     1.99981
   247   Cl   17  S      Val( 3S)     1.83989
   248   Cl   17  S      Ryd( 4S)     0.00302
   249   Cl   17  S      Ryd( 5S)     0.00000
   250   Cl   17  px     Cor( 2p)     1.99995
   251   Cl   17  px     Val( 3p)     1.65060
   252   Cl   17  px     Ryd( 4p)     0.00296
   253   Cl   17  py     Cor( 2p)     1.99996
   254   Cl   17  py     Val( 3p)     1.64564
   255   Cl   17  py     Ryd( 4p)     0.00299
   256   Cl   17  pz     Cor( 2p)     1.99998
   257   Cl   17  pz     Val( 3p)     1.87688
   258   Cl   17  pz     Ryd( 4p)     0.00186
   259   Cl   17  dxy    Ryd( 3d)     0.00295
   260   Cl   17  dxz    Ryd( 3d)     0.00165
   261   Cl   17  dyz    Ryd( 3d)     0.00115
   262   Cl   17  dx2y2  Ryd( 3d)     0.00227
   263   Cl   17  dz2    Ryd( 3d)     0.00102

   264    H   18  S      Val( 1S)     0.56759
   265    H   18  S      Ryd( 2S)     0.00127
   266    H   18  px     Ryd( 2p)     0.00030
   267    H   18  py     Ryd( 2p)     0.00031
   268    H   18  pz     Ryd( 2p)     0.00061

   269    H   19  S      Val( 1S)     0.56813
   270    H   19  S      Ryd( 2S)     0.00158
   271    H   19  px     Ryd( 2p)     0.00039
   272    H   19  py     Ryd( 2p)     0.00063
   273    H   19  pz     Ryd( 2p)     0.00024

   274    H   20  S      Val( 1S)     0.75134
   275    H   20  S      Ryd( 2S)     0.00094
   276    H   20  px     Ryd( 2p)     0.00009
   277    H   20  py     Ryd( 2p)     0.00019
   278    H   20  pz     Ryd( 2p)     0.00035

   279    H   21  S      Val( 1S)     0.75193
   280    H   21  S      Ryd( 2S)     0.00160
   281    H   21  px     Ryd( 2p)     0.00025
   282    H   21  py     Ryd( 2p)     0.00025
   283    H   21  pz     Ryd( 2p)     0.00011

   284    H   22  S      Val( 1S)     0.73196
   285    H   22  S      Ryd( 2S)     0.00149
   286    H   22  px     Ryd( 2p)     0.00010
   287    H   22  py     Ryd( 2p)     0.00034
   288    H   22  pz     Ryd( 2p)     0.00011

   289    H   23  S      Val( 1S)     0.73310
   290    H   23  S      Ryd( 2S)     0.00171
   291    H   23  px     Ryd( 2p)     0.00010
   292    H   23  py     Ryd( 2p)     0.00014
   293    H   23  pz     Ryd( 2p)     0.00032

   294    H   24  S      Val( 1S)     0.75656
   295    H   24  S      Ryd( 2S)     0.00095
   296    H   24  px     Ryd( 2p)     0.00008
   297    H   24  py     Ryd( 2p)     0.00038
   298    H   24  pz     Ryd( 2p)     0.00016

   299    H   25  S      Val( 1S)     0.75317
   300    H   25  S      Ryd( 2S)     0.00099
   301    H   25  px     Ryd( 2p)     0.00022
   302    H   25  py     Ryd( 2p)     0.00024
   303    H   25  pz     Ryd( 2p)     0.00016

   304    H   26  S      Val( 1S)     0.56730
   305    H   26  S      Ryd( 2S)     0.00116
   306    H   26  px     Ryd( 2p)     0.00043
   307    H   26  py     Ryd( 2p)     0.00036
   308    H   26  pz     Ryd( 2p)     0.00043

   309    H   27  S      Val( 1S)     0.56805
   310    H   27  S      Ryd( 2S)     0.00171
   311    H   27  px     Ryd( 2p)     0.00025
   312    H   27  py     Ryd( 2p)     0.00057
   313    H   27  pz     Ryd( 2p)     0.00044

   314    H   28  S      Val( 1S)     0.74432
   315    H   28  S      Ryd( 2S)     0.00166
   316    H   28  px     Ryd( 2p)     0.00023
   317    H   28  py     Ryd( 2p)     0.00024
   318    H   28  pz     Ryd( 2p)     0.00016

   319    H   29  S      Val( 1S)     0.74422
   320    H   29  S      Ryd( 2S)     0.00118
   321    H   29  px     Ryd( 2p)     0.00009
   322    H   29  py     Ryd( 2p)     0.00018
   323    H   29  pz     Ryd( 2p)     0.00035

 WARNING:  1 low occupancy (<1.9990e) core orbital  found on  C    2
           1 low occupancy (<1.9990e) core orbital  found on  C   10
           1 low occupancy (<1.9990e) core orbital  found on  C   12
           1 low occupancy (<1.9990e) core orbital  found on  C   14
           1 low occupancy (<1.9990e) core orbital  found on  C   15
           1 low occupancy (<1.9990e) core orbital  found on  C   16


 Summary of Natural Population Analysis:                  
                                                          
                                       Natural Population 
                Natural  -----------------------------------------------
    Atom  No    Charge         Core      Valence    Rydberg      Total
 -----------------------------------------------------------------------
      N    1   -0.77145      1.99948     5.76084    0.01113     7.77145
      C    2    0.16369      1.99882     3.81927    0.01821     5.83631
      C    3   -0.31622      1.99905     4.30128    0.01589     6.31622
      C    4   -0.25236      1.99904     4.23813    0.01520     6.25236
      C    5    0.00233      1.99900     3.98176    0.01691     5.99767
      C    6   -0.49347      1.99921     4.47958    0.01468     6.49347
      C    7    0.01347      1.99900     3.97090    0.01663     5.98653
      C    8   -0.29481      1.99904     4.27930    0.01647     6.29481
      C    9   -0.30281      1.99905     4.28761    0.01615     6.30281
      C   10    0.16326      1.99883     3.81948    0.01843     5.83674
      N   11   -0.76162      1.99948     5.75110    0.01105     7.76162
      C   12   -0.11358      1.99851     4.09362    0.02145     6.11358
     Cl   13   -0.04444      9.99970     7.02464    0.02010    17.04444
      C   14   -0.29863      1.99889     4.28135    0.01839     6.29863
      C   15   -0.31240      1.99890     4.29528    0.01822     6.31240
      C   16   -0.08463      1.99851     4.06492    0.02120     6.08463
     Cl   17   -0.03258      9.99970     7.01301    0.01987    17.03258
      H   18    0.42991      0.00000     0.56759    0.00250     0.57009
      H   19    0.42903      0.00000     0.56813    0.00283     0.57097
      H   20    0.24708      0.00000     0.75134    0.00157     0.75292
      H   21    0.24585      0.00000     0.75193    0.00222     0.75415
      H   22    0.26600      0.00000     0.73196    0.00205     0.73400
      H   23    0.26465      0.00000     0.73310    0.00226     0.73535
      H   24    0.24186      0.00000     0.75656    0.00158     0.75814
      H   25    0.24521      0.00000     0.75317    0.00162     0.75479
      H   26    0.43031      0.00000     0.56730    0.00239     0.56969
      H   27    0.42899      0.00000     0.56805    0.00296     0.57101
      H   28    0.25339      0.00000     0.74432    0.00229     0.74661
      H   29    0.25397      0.00000     0.74422    0.00180     0.74603
 =======================================================================
   * Total *   -0.00000     49.98422    87.69973    0.31605   138.00000

                                 Natural Population      
 --------------------------------------------------------
   Core                      49.98422 ( 99.9684% of  50)
   Valence                   87.69973 ( 99.6588% of  88)
   Natural Minimal Basis    137.68395 ( 99.7710% of 138)
   Natural Rydberg Basis      0.31605 (  0.2290% of 138)
 --------------------------------------------------------

    Atom  No          Natural Electron Configuration
 ----------------------------------------------------------------------------
      N    1      [core]2S( 1.36)2p( 4.40)3p( 0.01)
      C    2      [core]2S( 0.84)2p( 2.98)3p( 0.01)
      C    3      [core]2S( 0.95)2p( 3.35)3p( 0.01)
      C    4      [core]2S( 0.95)2p( 3.29)3p( 0.01)
      C    5      [core]2S( 0.88)2p( 3.10)3p( 0.01)
      C    6      [core]2S( 1.02)2p( 3.46)3p( 0.01)
      C    7      [core]2S( 0.88)2p( 3.09)3p( 0.01)
      C    8      [core]2S( 0.95)2p( 3.33)3p( 0.01)
      C    9      [core]2S( 0.95)2p( 3.34)3p( 0.01)
      C   10      [core]2S( 0.84)2p( 2.98)3p( 0.01)
      N   11      [core]2S( 1.36)2p( 4.39)3p( 0.01)
      C   12      [core]2S( 0.91)2p( 3.18)3p( 0.02)
     Cl   13      [core]3S( 1.84)3p( 5.19)3d( 0.01)4p( 0.01)
      C   14      [core]2S( 0.94)2p( 3.34)3p( 0.01)
      C   15      [core]2S( 0.94)2p( 3.35)3p( 0.01)
      C   16      [core]2S( 0.92)2p( 3.15)3p( 0.02)
     Cl   17      [core]3S( 1.84)3p( 5.17)3d( 0.01)4p( 0.01)
      H   18            1S( 0.57)
      H   19            1S( 0.57)
      H   20            1S( 0.75)
      H   21            1S( 0.75)
      H   22            1S( 0.73)
      H   23            1S( 0.73)
      H   24            1S( 0.76)
      H   25            1S( 0.75)
      H   26            1S( 0.57)
      H   27            1S( 0.57)
      H   28            1S( 0.74)
      H   29            1S( 0.74)


 NBO analysis skipped by request.
 1\1\GINC-DRG2-W004\SP\RB3LYP TD-FC\6-31G(d,p)\C13H12Cl2N2\QDUEZ\17-Jul
 -2024\0\\# TD(NStates=10, Root=1) B3LYP/6-31G** SCRF=(Solvent=water) v
 olume pop=NPA density=current Geom=AllCheck Guess=Read\\IBOFVQJTBBUKMU
 -UHFFFAOYSA-N_conf_4\\0,1\N,0,-4.7618008453,1.1596266885,-1.317375439\
 C,0,-3.6269852596,0.5784919335,-0.7686091296\C,0,-2.6314742551,0.00635
 93246,-1.5879697038\C,0,-1.5249573518,-0.6341553979,-1.0474245821\C,0,
 -1.3459245984,-0.7424081271,0.3407831228\C,0,-0.1375137961,-1.45240737
 72,0.9286129381\C,0,1.1972686487,-0.8160383724,0.5749239406\C,0,2.1788
 541609,-1.5160333341,-0.1368880282\C,0,3.4053311541,-0.9363166153,-0.4
 489975289\C,0,3.7138749558,0.3819314797,-0.0663684547\N,0,4.9102461713
 ,0.9809719067,-0.4366906583\C,0,2.7154129781,1.0724607767,0.6495070447
 \Cl,0,3.0352526779,2.7355525606,1.1723548651\C,0,1.4902814037,0.496834
 0814,0.9641452871\C,0,-2.3220364704,-0.1784518013,1.1654756283\C,0,-3.
 4317753993,0.4636946749,0.6185194061\Cl,0,-4.6358750704,1.1631821384,1
 .714485074\H,0,-4.6509353661,1.4843378052,-2.2689309206\H,0,-5.2211233
 233,1.8474047984,-0.734623767\H,0,-2.7470707807,0.0736067451,-2.666375
 5873\H,0,-0.7804479206,-1.0551331289,-1.7176515831\H,0,-0.1236523284,-
 2.4943175622,0.5873884075\H,0,-0.2498719525,-1.4903678654,2.0186502591
 \H,0,1.9860854746,-2.5387305842,-0.4496727225\H,0,4.1481677638,-1.5042
 916973,-1.0023956509\H,0,5.6595870002,0.3331281624,-0.6417328813\H,0,5
 .2182100654,1.7378259819,0.1599340836\H,0,0.759659034,1.0796878699,1.5
 160942371\H,0,-2.2267867703,-0.2364450646,2.2451859042\\Version=ES64L-
 G16RevA.03\State=1-A\HF=-1532.5530962\RMSD=6.039e-09\Dipole=0.7975958,
 -0.1001946,-1.1739466\Quadrupole=14.4649764,-8.5202093,-5.9447671,-9.7
 215166,5.920068,-2.5949438\PG=C01 [X(C13H12Cl2N2)]\\@


 MOST BUREAUCRACIES FUNCTION LIKE A SEPTIC TANK.
 THE LARGE CHUNKS RISE TO THE TOP.
 Job cpu time:       0 days  0 hours 52 minutes 23.8 seconds.
 Elapsed time:       0 days  0 hours 17 minutes 44.2 seconds.
 File lengths (MBytes):  RWF=    866 Int=      0 D2E=      0 Chk=     54 Scr=      1
 Normal termination of Gaussian 16 at Wed Jul 17 23:58:51 2024.
