 Entering Gaussian System, Link 0=g16
 Initial command:
 /opt/sw/arch/manual/gaussian/G16_A03/g16/l1.exe "/scratch/1380847/Gau-54487.inp" -scrdir="/scratch/1380847/"
 Entering Link 1 = /opt/sw/arch/manual/gaussian/G16_A03/g16/l1.exe PID=     54488.
  
 Copyright (c) 1988,1990,1992,1993,1995,1998,2003,2009,2016,
            Gaussian, Inc.  All Rights Reserved.
  
 This is part of the Gaussian(R) 16 program.  It is based on
 the Gaussian(R) 09 system (copyright 2009, Gaussian, Inc.),
 the Gaussian(R) 03 system (copyright 2003, Gaussian, Inc.),
 the Gaussian(R) 98 system (copyright 1998, Gaussian, Inc.),
 the Gaussian(R) 94 system (copyright 1995, Gaussian, Inc.),
 the Gaussian 92(TM) system (copyright 1992, Gaussian, Inc.),
 the Gaussian 90(TM) system (copyright 1990, Gaussian, Inc.),
 the Gaussian 88(TM) system (copyright 1988, Gaussian, Inc.),
 the Gaussian 86(TM) system (copyright 1986, Carnegie Mellon
 University), and the Gaussian 82(TM) system (copyright 1983,
 Carnegie Mellon University). Gaussian is a federally registered
 trademark of Gaussian, Inc.
  
 This software contains proprietary and confidential information,
 including trade secrets, belonging to Gaussian, Inc.
  
 This software is provided under written license and may be
 used, copied, transmitted, or stored only in accord with that
 written license.
  
 The following legend is applicable only to US Government
 contracts under FAR:
  
                    RESTRICTED RIGHTS LEGEND
  
 Use, reproduction and disclosure by the US Government is
 subject to restrictions as set forth in subparagraphs (a)
 and (c) of the Commercial Computer Software - Restricted
 Rights clause in FAR 52.227-19.
  
 Gaussian, Inc.
 340 Quinnipiac St., Bldg. 40, Wallingford CT 06492
  
  
 ---------------------------------------------------------------
 Warning -- This program may not be used in any manner that
 competes with the business of Gaussian, Inc. or will provide
 assistance to any competitor of Gaussian, Inc.  The licensee
 of this program is prohibited from giving any competitor of
 Gaussian, Inc. access to this program.  By using this program,
 the user acknowledges that Gaussian, Inc. is engaged in the
 business of creating and licensing software in the field of
 computational chemistry and represents and warrants to the
 licensee that it is not a competitor of Gaussian, Inc. and that
 it will not use this program in any manner prohibited above.
 ---------------------------------------------------------------
  

 Cite this work as:
 Gaussian 16, Revision A.03,
 M. J. Frisch, G. W. Trucks, H. B. Schlegel, G. E. Scuseria, 
 M. A. Robb, J. R. Cheeseman, G. Scalmani, V. Barone, 
 G. A. Petersson, H. Nakatsuji, X. Li, M. Caricato, A. V. Marenich, 
 J. Bloino, B. G. Janesko, R. Gomperts, B. Mennucci, H. P. Hratchian, 
 J. V. Ortiz, A. F. Izmaylov, J. L. Sonnenberg, D. Williams-Young, 
 F. Ding, F. Lipparini, F. Egidi, J. Goings, B. Peng, A. Petrone, 
 T. Henderson, D. Ranasinghe, V. G. Zakrzewski, J. Gao, N. Rega, 
 G. Zheng, W. Liang, M. Hada, M. Ehara, K. Toyota, R. Fukuda, 
 J. Hasegawa, M. Ishida, T. Nakajima, Y. Honda, O. Kitao, H. Nakai, 
 T. Vreven, K. Throssell, J. A. Montgomery, Jr., J. E. Peralta, 
 F. Ogliaro, M. J. Bearpark, J. J. Heyd, E. N. Brothers, K. N. Kudin, 
 V. N. Staroverov, T. A. Keith, R. Kobayashi, J. Normand, 
 K. Raghavachari, A. P. Rendell, J. C. Burant, S. S. Iyengar, 
 J. Tomasi, M. Cossi, J. M. Millam, M. Klene, C. Adamo, R. Cammi, 
 J. W. Ochterski, R. L. Martin, K. Morokuma, O. Farkas, 
 J. B. Foresman, and D. J. Fox, Gaussian, Inc., Wallingford CT, 2016.
 
 ******************************************
 Gaussian 16:  ES64L-G16RevA.03 25-Dec-2016
                17-Jul-2024 
 ******************************************
 %nprocshared=4
 Will use up to    4 processors via shared memory.
 %mem=8GB
 %Chk=IBOFVQJTBBUKMU-UHFFFAOYSA-N_conf_0_0.chk
 -------------------------------------------------------
 # opt=CalcFc B3LYP/6-31G** SCRF=(Solvent=water) scf=xqc
 -------------------------------------------------------
 1/10=4,18=20,19=15,26=3,38=1/1,3;
 2/9=110,12=2,17=6,18=5,40=1/2;
 3/5=1,6=6,7=101,11=2,25=1,30=1,70=2201,71=2,72=1,74=-5,140=1/1,2,3;
 4//1;
 5/5=2,8=3,13=1,38=5,53=1/2,8;
 8/6=4,10=90,11=11/1;
 11/6=1,8=1,9=11,15=111,16=1/1,2,10;
 10/6=1,13=1/2;
 6/7=2,8=2,9=2,10=2,28=1/1;
 7/10=1,18=20,25=1/1,2,3,16;
 1/10=4,18=20,19=15,26=3/3(2);
 2/9=110/2;
 99//99;
 2/9=110/2;
 3/5=1,6=6,7=101,11=2,25=1,30=1,70=2205,71=1,72=1,74=-5/1,2,3;
 4/5=5,16=3,69=1/1;
 5/5=2,8=3,13=1,38=5,53=1/2,8;
 7//1,2,3,16;
 1/18=20,19=15,26=3/3(-5);
 2/9=110/2;
 6/7=2,8=2,9=2,10=2,19=2,28=1/1;
 99/9=1/99;
 ----------------------------------
 IBOFVQJTBBUKMU-UHFFFAOYSA-N_conf_0
 ----------------------------------
 Symbolic Z-matrix:
 Charge =  0 Multiplicity = 1
 N                     4.64266   1.69284   0.38571 
 C                     3.5594    0.7959    0.416 
 C                     2.49766   1.04104   1.29202 
 C                     1.34887   0.24263   1.27091 
 C                     1.21895  -0.79955   0.34344 
 C                    -0.02521  -1.65734   0.31589 
 C                    -1.25691  -0.9333   -0.17733 
 C                    -2.29863  -0.61429   0.70312 
 C                    -3.43671   0.0603    0.24747 
 C                    -3.57937   0.39983  -1.10148 
 N                    -4.67938   1.18291  -1.49686 
 C                    -2.50919   0.12472  -1.97033 
 Cl                   -2.58823   0.58241  -3.63745 
 C                    -1.37034  -0.55088  -1.52106 
 C                     2.25629  -1.01762  -0.57263 
 C                     3.40242  -0.21627  -0.54663 
 Cl                    4.64536  -0.52567  -1.7107 
 H                     5.45652   1.30676  -0.08865 
 H                     4.86629   2.10893   1.28328 
 H                     2.55222   1.86566   1.99841 
 H                     0.54567   0.45567   1.97364 
 H                    -0.1945   -2.05544   1.32515 
 H                     0.13385  -2.54151  -0.31551 
 H                    -2.22866  -0.87457   1.75734 
 H                    -4.21332   0.32475   0.96086 
 H                    -4.82359   1.17017  -2.50482 
 H                    -5.52923   1.0046   -0.97278 
 H                    -0.56444  -0.76674  -2.21862 
 H                     2.17153  -1.80593  -1.31677 
 

 GradGradGradGradGradGradGradGradGradGradGradGradGradGradGradGradGradGrad
 Berny optimization.
 Initialization pass.
                           ----------------------------
                           !    Initial Parameters    !
                           ! (Angstroms and Degrees)  !
 --------------------------                            --------------------------
 ! Name  Definition              Value          Derivative Info.                !
 --------------------------------------------------------------------------------
 ! R1    R(1,2)                  1.4067         calculate D2E/DX2 analytically  !
 ! R2    R(1,18)                 1.0181         calculate D2E/DX2 analytically  !
 ! R3    R(1,19)                 1.0143         calculate D2E/DX2 analytically  !
 ! R4    R(2,3)                  1.3981         calculate D2E/DX2 analytically  !
 ! R5    R(2,16)                 1.4056         calculate D2E/DX2 analytically  !
 ! R6    R(3,4)                  1.3991         calculate D2E/DX2 analytically  !
 ! R7    R(3,20)                 1.0872         calculate D2E/DX2 analytically  !
 ! R8    R(4,5)                  1.4012         calculate D2E/DX2 analytically  !
 ! R9    R(4,21)                 1.0883         calculate D2E/DX2 analytically  !
 ! R10   R(5,6)                  1.5115         calculate D2E/DX2 analytically  !
 ! R11   R(5,15)                 1.401          calculate D2E/DX2 analytically  !
 ! R12   R(6,7)                  1.5115         calculate D2E/DX2 analytically  !
 ! R13   R(6,22)                 1.0981         calculate D2E/DX2 analytically  !
 ! R14   R(6,23)                 1.0981         calculate D2E/DX2 analytically  !
 ! R15   R(7,8)                  1.4008         calculate D2E/DX2 analytically  !
 ! R16   R(7,14)                 1.4017         calculate D2E/DX2 analytically  !
 ! R17   R(8,9)                  1.3992         calculate D2E/DX2 analytically  !
 ! R18   R(8,24)                 1.0881         calculate D2E/DX2 analytically  !
 ! R19   R(9,10)                 1.3983         calculate D2E/DX2 analytically  !
 ! R20   R(9,25)                 1.0872         calculate D2E/DX2 analytically  !
 ! R21   R(10,11)                1.407          calculate D2E/DX2 analytically  !
 ! R22   R(10,12)                1.4057         calculate D2E/DX2 analytically  !
 ! R23   R(11,26)                1.0183         calculate D2E/DX2 analytically  !
 ! R24   R(11,27)                1.0142         calculate D2E/DX2 analytically  !
 ! R25   R(12,13)                1.7306         calculate D2E/DX2 analytically  !
 ! R26   R(12,14)                1.3983         calculate D2E/DX2 analytically  !
 ! R27   R(14,28)                1.0875         calculate D2E/DX2 analytically  !
 ! R28   R(15,16)                1.3987         calculate D2E/DX2 analytically  !
 ! R29   R(15,29)                1.0874         calculate D2E/DX2 analytically  !
 ! R30   R(16,17)                1.7308         calculate D2E/DX2 analytically  !
 ! A1    A(2,1,18)             112.571          calculate D2E/DX2 analytically  !
 ! A2    A(2,1,19)             114.3494         calculate D2E/DX2 analytically  !
 ! A3    A(18,1,19)            113.0571         calculate D2E/DX2 analytically  !
 ! A4    A(1,2,3)              119.1086         calculate D2E/DX2 analytically  !
 ! A5    A(1,2,16)             122.0316         calculate D2E/DX2 analytically  !
 ! A6    A(3,2,16)             118.0699         calculate D2E/DX2 analytically  !
 ! A7    A(2,3,4)              120.9304         calculate D2E/DX2 analytically  !
 ! A8    A(2,3,20)             120.1315         calculate D2E/DX2 analytically  !
 ! A9    A(4,3,20)             118.9365         calculate D2E/DX2 analytically  !
 ! A10   A(3,4,5)              120.7017         calculate D2E/DX2 analytically  !
 ! A11   A(3,4,21)             118.982          calculate D2E/DX2 analytically  !
 ! A12   A(5,4,21)             120.3043         calculate D2E/DX2 analytically  !
 ! A13   A(4,5,6)              120.6985         calculate D2E/DX2 analytically  !
 ! A14   A(4,5,15)             118.6811         calculate D2E/DX2 analytically  !
 ! A15   A(6,5,15)             120.6127         calculate D2E/DX2 analytically  !
 ! A16   A(5,6,7)              113.8833         calculate D2E/DX2 analytically  !
 ! A17   A(5,6,22)             108.4158         calculate D2E/DX2 analytically  !
 ! A18   A(5,6,23)             110.3786         calculate D2E/DX2 analytically  !
 ! A19   A(7,6,22)             110.3626         calculate D2E/DX2 analytically  !
 ! A20   A(7,6,23)             108.4284         calculate D2E/DX2 analytically  !
 ! A21   A(22,6,23)            105.0058         calculate D2E/DX2 analytically  !
 ! A22   A(6,7,8)              120.6642         calculate D2E/DX2 analytically  !
 ! A23   A(6,7,14)             120.6281         calculate D2E/DX2 analytically  !
 ! A24   A(8,7,14)             118.7014         calculate D2E/DX2 analytically  !
 ! A25   A(7,8,9)              120.663          calculate D2E/DX2 analytically  !
 ! A26   A(7,8,24)             120.4419         calculate D2E/DX2 analytically  !
 ! A27   A(9,8,24)             118.8888         calculate D2E/DX2 analytically  !
 ! A28   A(8,9,10)             120.9428         calculate D2E/DX2 analytically  !
 ! A29   A(8,9,25)             118.9858         calculate D2E/DX2 analytically  !
 ! A30   A(10,9,25)            120.0706         calculate D2E/DX2 analytically  !
 ! A31   A(9,10,11)            119.0782         calculate D2E/DX2 analytically  !
 ! A32   A(9,10,12)            118.1052         calculate D2E/DX2 analytically  !
 ! A33   A(11,10,12)           122.0369         calculate D2E/DX2 analytically  !
 ! A34   A(10,11,26)           112.4521         calculate D2E/DX2 analytically  !
 ! A35   A(10,11,27)           114.3337         calculate D2E/DX2 analytically  !
 ! A36   A(26,11,27)           112.9925         calculate D2E/DX2 analytically  !
 ! A37   A(10,12,13)           120.5908         calculate D2E/DX2 analytically  !
 ! A38   A(10,12,14)           121.0664         calculate D2E/DX2 analytically  !
 ! A39   A(13,12,14)           118.326          calculate D2E/DX2 analytically  !
 ! A40   A(7,14,12)            120.3807         calculate D2E/DX2 analytically  !
 ! A41   A(7,14,28)            120.0524         calculate D2E/DX2 analytically  !
 ! A42   A(12,14,28)           119.5616         calculate D2E/DX2 analytically  !
 ! A43   A(5,15,16)            120.3565         calculate D2E/DX2 analytically  !
 ! A44   A(5,15,29)            120.1723         calculate D2E/DX2 analytically  !
 ! A45   A(16,15,29)           119.4682         calculate D2E/DX2 analytically  !
 ! A46   A(2,16,15)            121.1169         calculate D2E/DX2 analytically  !
 ! A47   A(2,16,17)            120.6055         calculate D2E/DX2 analytically  !
 ! A48   A(15,16,17)           118.2629         calculate D2E/DX2 analytically  !
 ! D1    D(18,1,2,3)           164.8652         calculate D2E/DX2 analytically  !
 ! D2    D(18,1,2,16)          -25.5135         calculate D2E/DX2 analytically  !
 ! D3    D(19,1,2,3)            34.0473         calculate D2E/DX2 analytically  !
 ! D4    D(19,1,2,16)         -156.3314         calculate D2E/DX2 analytically  !
 ! D5    D(1,2,3,4)            174.2981         calculate D2E/DX2 analytically  !
 ! D6    D(1,2,3,20)            -5.2391         calculate D2E/DX2 analytically  !
 ! D7    D(16,2,3,4)             4.2654         calculate D2E/DX2 analytically  !
 ! D8    D(16,2,3,20)         -175.2718         calculate D2E/DX2 analytically  !
 ! D9    D(1,2,16,15)         -173.9913         calculate D2E/DX2 analytically  !
 ! D10   D(1,2,16,17)            7.4303         calculate D2E/DX2 analytically  !
 ! D11   D(3,2,16,15)           -4.2669         calculate D2E/DX2 analytically  !
 ! D12   D(3,2,16,17)          177.1547         calculate D2E/DX2 analytically  !
 ! D13   D(2,3,4,5)             -1.8547         calculate D2E/DX2 analytically  !
 ! D14   D(2,3,4,21)           179.3968         calculate D2E/DX2 analytically  !
 ! D15   D(20,3,4,5)           177.6879         calculate D2E/DX2 analytically  !
 ! D16   D(20,3,4,21)           -1.0606         calculate D2E/DX2 analytically  !
 ! D17   D(3,4,5,6)           -179.674          calculate D2E/DX2 analytically  !
 ! D18   D(3,4,5,15)            -0.6817         calculate D2E/DX2 analytically  !
 ! D19   D(21,4,5,6)            -0.9421         calculate D2E/DX2 analytically  !
 ! D20   D(21,4,5,15)          178.0502         calculate D2E/DX2 analytically  !
 ! D21   D(4,5,6,7)             69.8042         calculate D2E/DX2 analytically  !
 ! D22   D(4,5,6,22)           -53.4613         calculate D2E/DX2 analytically  !
 ! D23   D(4,5,6,23)          -167.9678         calculate D2E/DX2 analytically  !
 ! D24   D(15,5,6,7)          -109.1687         calculate D2E/DX2 analytically  !
 ! D25   D(15,5,6,22)          127.5659         calculate D2E/DX2 analytically  !
 ! D26   D(15,5,6,23)           13.0593         calculate D2E/DX2 analytically  !
 ! D27   D(4,5,15,16)            0.686          calculate D2E/DX2 analytically  !
 ! D28   D(4,5,15,29)         -178.6866         calculate D2E/DX2 analytically  !
 ! D29   D(6,5,15,16)          179.6792         calculate D2E/DX2 analytically  !
 ! D30   D(6,5,15,29)            0.3066         calculate D2E/DX2 analytically  !
 ! D31   D(5,6,7,8)           -109.6876         calculate D2E/DX2 analytically  !
 ! D32   D(5,6,7,14)            69.385          calculate D2E/DX2 analytically  !
 ! D33   D(22,6,7,8)            12.5118         calculate D2E/DX2 analytically  !
 ! D34   D(22,6,7,14)         -168.4156         calculate D2E/DX2 analytically  !
 ! D35   D(23,6,7,8)           127.0169         calculate D2E/DX2 analytically  !
 ! D36   D(23,6,7,14)          -53.9105         calculate D2E/DX2 analytically  !
 ! D37   D(6,7,8,9)            179.7657         calculate D2E/DX2 analytically  !
 ! D38   D(6,7,8,24)             0.6887         calculate D2E/DX2 analytically  !
 ! D39   D(14,7,8,9)             0.6755         calculate D2E/DX2 analytically  !
 ! D40   D(14,7,8,24)         -178.4015         calculate D2E/DX2 analytically  !
 ! D41   D(6,7,14,12)         -179.6756         calculate D2E/DX2 analytically  !
 ! D42   D(6,7,14,28)           -0.5199         calculate D2E/DX2 analytically  !
 ! D43   D(8,7,14,12)           -0.585          calculate D2E/DX2 analytically  !
 ! D44   D(8,7,14,28)          178.5707         calculate D2E/DX2 analytically  !
 ! D45   D(7,8,9,10)             1.7654         calculate D2E/DX2 analytically  !
 ! D46   D(7,8,9,25)          -177.9023         calculate D2E/DX2 analytically  !
 ! D47   D(24,8,9,10)         -179.1434         calculate D2E/DX2 analytically  !
 ! D48   D(24,8,9,25)            1.1888         calculate D2E/DX2 analytically  !
 ! D49   D(8,9,10,11)         -174.2778         calculate D2E/DX2 analytically  !
 ! D50   D(8,9,10,12)           -4.181          calculate D2E/DX2 analytically  !
 ! D51   D(25,9,10,11)           5.3864         calculate D2E/DX2 analytically  !
 ! D52   D(25,9,10,12)         175.4832         calculate D2E/DX2 analytically  !
 ! D53   D(9,10,11,26)        -165.1393         calculate D2E/DX2 analytically  !
 ! D54   D(9,10,11,27)         -34.5424         calculate D2E/DX2 analytically  !
 ! D55   D(12,10,11,26)         25.1698         calculate D2E/DX2 analytically  !
 ! D56   D(12,10,11,27)        155.7667         calculate D2E/DX2 analytically  !
 ! D57   D(9,10,12,13)        -177.2378         calculate D2E/DX2 analytically  !
 ! D58   D(9,10,12,14)           4.2758         calculate D2E/DX2 analytically  !
 ! D59   D(11,10,12,13)         -7.4509         calculate D2E/DX2 analytically  !
 ! D60   D(11,10,12,14)        174.0627         calculate D2E/DX2 analytically  !
 ! D61   D(10,12,14,7)          -1.9379         calculate D2E/DX2 analytically  !
 ! D62   D(10,12,14,28)        178.9023         calculate D2E/DX2 analytically  !
 ! D63   D(13,12,14,7)         179.5423         calculate D2E/DX2 analytically  !
 ! D64   D(13,12,14,28)          0.3824         calculate D2E/DX2 analytically  !
 ! D65   D(5,15,16,2)            1.8349         calculate D2E/DX2 analytically  !
 ! D66   D(5,15,16,17)        -179.5543         calculate D2E/DX2 analytically  !
 ! D67   D(29,15,16,2)        -178.7881         calculate D2E/DX2 analytically  !
 ! D68   D(29,15,16,17)         -0.1773         calculate D2E/DX2 analytically  !
 --------------------------------------------------------------------------------
 Trust Radius=3.00D-01 FncErr=1.00D-07 GrdErr=1.00D-06 EigMax=2.50D+02 EigMin=1.00D-04
 Number of steps in this run=    156 maximum allowed number of steps=    174.
 GradGradGradGradGradGradGradGradGradGradGradGradGradGradGradGradGradGrad

                          Input orientation:                          
 ---------------------------------------------------------------------
 Center     Atomic      Atomic             Coordinates (Angstroms)
 Number     Number       Type             X           Y           Z
 ---------------------------------------------------------------------
      1          7           0        4.642661    1.692841    0.385711
      2          6           0        3.559396    0.795895    0.415996
      3          6           0        2.497658    1.041042    1.292023
      4          6           0        1.348874    0.242633    1.270908
      5          6           0        1.218950   -0.799550    0.343440
      6          6           0       -0.025211   -1.657336    0.315891
      7          6           0       -1.256909   -0.933302   -0.177335
      8          6           0       -2.298632   -0.614291    0.703117
      9          6           0       -3.436707    0.060295    0.247471
     10          6           0       -3.579369    0.399827   -1.101476
     11          7           0       -4.679385    1.182907   -1.496856
     12          6           0       -2.509188    0.124720   -1.970332
     13         17           0       -2.588230    0.582409   -3.637453
     14          6           0       -1.370336   -0.550876   -1.521055
     15          6           0        2.256294   -1.017624   -0.572626
     16          6           0        3.402423   -0.216268   -0.546626
     17         17           0        4.645358   -0.525666   -1.710703
     18          1           0        5.456518    1.306758   -0.088655
     19          1           0        4.866292    2.108928    1.283275
     20          1           0        2.552218    1.865664    1.998406
     21          1           0        0.545673    0.455665    1.973636
     22          1           0       -0.194504   -2.055436    1.325150
     23          1           0        0.133849   -2.541514   -0.315514
     24          1           0       -2.228657   -0.874569    1.757340
     25          1           0       -4.213318    0.324751    0.960860
     26          1           0       -4.823587    1.170165   -2.504817
     27          1           0       -5.529227    1.004595   -0.972783
     28          1           0       -0.564436   -0.766738   -2.218622
     29          1           0        2.171532   -1.805926   -1.316768
 ---------------------------------------------------------------------
                    Distance matrix (angstroms):
                    1          2          3          4          5
     1  N    0.000000
     2  C    1.406730   0.000000
     3  C    2.418114   1.398144   0.000000
     4  C    3.706172   2.433800   1.399146   0.000000
     5  C    4.235044   2.833443   2.433657   1.401151   0.000000
     6  C    5.746093   4.344856   3.820856   2.531807   1.511453
     7  C    6.482173   5.151598   4.489301   3.204737   2.533570
     8  C    7.321553   6.032210   5.107968   3.789592   3.540773
     9  C    8.243815   7.036687   6.104887   4.897188   4.735365
    10  C    8.454903   7.309006   6.562793   5.471791   5.152684
    11  N    9.523897   8.466776   7.701163   6.699592   6.489004
    12  C    7.691481   6.555361   6.045752   5.040257   4.484064
    13  Cl   8.348934   7.366773   7.097629   6.301448   5.679079
    14  C    6.695233   5.465182   5.040733   3.977288   3.200403
    15  C    3.736278   2.442192   2.788060   2.410452   1.401005
    16  C    2.460109   1.405615   2.404175   2.780483   2.428990
    17  Cl   3.052332   2.729227   4.010430   4.510775   4.004346
    18  H    1.018061   2.028478   3.275932   4.455729   4.751865
    19  H    1.014278   2.045533   2.598246   3.981889   4.758743
    20  H    2.645865   2.159360   1.087178   2.147445   3.408795
    21  H    4.564802   3.409476   2.148839   1.088275   2.164811
    22  H    6.191145   4.800877   4.103292   2.768768   2.130459
    23  H    6.225019   4.838159   4.583282   3.427024   2.155482
    24  H    7.462436   6.171808   5.120951   3.779349   3.727027
    25  H    8.979466   7.806019   6.757214   5.571431   5.581648
    26  H    9.911517   8.885135   8.248229   7.294908   6.964524
    27  H   10.285256   9.196485   8.340358   7.274821   7.108114
    28  H    6.320279   5.137025   4.996910   4.105655   3.121810
    29  H    4.609369   3.420250   3.875225   3.401386   2.162520
                    6          7          8          9         10
     6  C    0.000000
     7  C    1.511482   0.000000
     8  C    2.531073   1.400767   0.000000
     9  C    3.820111   2.432943   1.399247   0.000000
    10  C    4.344294   2.832859   2.434189   1.398318   0.000000
    11  N    5.745813   4.234715   3.706452   2.418095   1.406974
    12  C    3.817419   2.429496   2.781690   2.404806   1.405661
    13  Cl   5.216748   4.005273   4.511818   4.010630   2.728896
    14  C    2.531400   1.401677   2.410953   2.787670   2.441252
    15  C    2.530604   3.536378   4.747373   5.851900   6.028584
    16  C    3.816974   4.728625   5.849984   6.890630   7.030850
    17  Cl   5.215550   6.111803   7.352100   8.336520   8.299026
    18  H    6.244907   7.077842   8.028679   8.986440   9.137593
    19  H    6.248790   6.991576   7.686913   8.614498   8.940764
    20  H    4.678197   5.203605   5.599883   6.495564   7.025262
    21  H    2.745688   3.131327   3.293796   4.358361   5.145425
    22  H    1.098066   2.155308   2.625106   4.018656   4.834681
    23  H    1.098063   2.130645   3.266307   4.453676   4.801792
    24  H    2.746939   2.165805   1.088130   2.147803   3.409008
    25  H    4.678129   3.408597   2.148081   1.087191   2.158879
    26  H    6.243041   4.750046   4.455392   3.275720   2.027527
    27  H    6.248260   4.758244   3.983237   2.599878   2.045545
    28  H    2.740015   2.161970   3.401064   3.874989   3.420338
    29  H    2.741046   3.716718   5.047999   6.114080   6.163161
                   11         12         13         14         15
    11  N    0.000000
    12  C    2.460425   0.000000
    13  Cl   3.052160   1.730613   0.000000
    14  C    3.735826   1.398308   2.691977   0.000000
    15  C    7.334861   5.095916   5.951697   3.777541   0.000000
    16  C    8.256891   6.090186   6.788153   4.882694   1.398735
    17  Cl   9.482393   7.188737   7.567363   6.018735   2.691629
    18  H   10.234007   8.269849   8.822507   7.218623   3.984773
    19  H    9.985318   8.301852   9.061662   7.337189   4.475688
    20  H    8.060961   6.663302   7.735235   5.797646   3.874419
    21  H    6.314620   4.999658   6.428198   4.110606   3.402978
    22  H    6.210052   4.579416   6.108649   3.427414   3.268794
    23  H    6.199524   4.102789   5.310733   2.771018   2.625475
    24  H    4.563887   3.869472   5.599631   3.404316   5.056084
    25  H    2.644621   3.396462   4.883829   3.874167   6.783025
    26  H    1.018303   2.595201   2.573935   3.981797   7.657970
    27  H    1.014239   3.299988   3.991011   4.473977   8.053809
    28  H    4.610300   2.153697   2.815852   1.087507   3.275479
    29  H    7.476671   5.105260   5.809049   3.763205   1.087360
                   16         17         18         19         20
    16  C    0.000000
    17  Cl   1.730806   0.000000
    18  H    2.597817   2.578138   0.000000
    19  H    3.301209   3.994221   1.695298   0.000000
    20  H    3.396244   4.884381   3.619829   2.434241   0.000000
    21  H    3.868364   5.598641   5.393868   4.677352   2.452536
    22  H    4.452412   5.914462   6.725864   6.554032   4.834540
    23  H    4.017930   5.134580   6.572022   6.824863   5.534072
    24  H    6.119696   7.707213   8.199256   7.711309   5.515773
    25  H    7.782334   9.291748   9.776070   9.258863   7.015938
    26  H    8.568777   9.652324  10.561111  10.446275   8.669788
    27  H    9.024771  10.315445  11.025407  10.694679   8.653274
    28  H    4.339880   5.240042   6.714762   7.072873   5.867401
    29  H    2.152957   2.813195   4.689157   5.417382   4.961438
                   21         22         23         24         25
    21  H    0.000000
    22  H    2.697040   0.000000
    23  H    3.793796   1.742373   0.000000
    24  H    3.084349   2.391446   3.557648   0.000000
    25  H    4.867324   4.684961   5.361199   2.451862   0.000000
    26  H    7.028229   6.819205   6.568544   5.392641   3.619126
    27  H    6.774003   6.565331   6.713965   4.677456   2.435731
    28  H    4.505734   3.788920   2.694300   4.311558   4.961330
    29  H    4.311029   3.555293   2.386578   5.447864   7.105890
                   26         27         28         29
    26  H    0.000000
    27  H    1.694836   0.000000
    28  H    4.687629   5.416539   0.000000
    29  H    7.694170   8.204818   3.062478   0.000000
 Stoichiometry    C13H12Cl2N2
 Framework group  C1[X(C13H12Cl2N2)]
 Deg. of freedom    81
 Full point group                 C1      NOp   1
 Largest Abelian subgroup         C1      NOp   1
 Largest concise Abelian subgroup C1      NOp   1
                         Standard orientation:                         
 ---------------------------------------------------------------------
 Center     Atomic      Atomic             Coordinates (Angstroms)
 Number     Number       Type             X           Y           Z
 ---------------------------------------------------------------------
      1          7           0        4.513185   -0.249419    1.775744
      2          6           0        3.471017   -0.515068    0.868988
      3          6           0        2.580582   -1.557676    1.142668
      4          6           0        1.462765   -1.780409    0.331198
      5          6           0        1.187709   -0.938463   -0.754478
      6          6           0       -0.023895   -1.174786   -1.626635
      7          6           0       -1.338404   -0.882106   -0.940353
      8          6           0       -2.209803   -1.922195   -0.592460
      9          6           0       -3.424487   -1.651606    0.047241
     10          6           0       -3.815319   -0.337413    0.321902
     11          7           0       -4.983806   -0.114370    1.073212
     12          6           0       -2.914699    0.698372    0.018727
     13         17           0       -3.302814    2.341865    0.397301
     14          6           0       -1.700382    0.434136   -0.622272
     15          6           0        2.046388    0.140238   -1.003259
     16          6           0        3.162420    0.357818   -0.188648
     17         17           0        4.180205    1.713488   -0.537880
     18          1           0        5.235257    0.347428    1.377204
     19          1           0        4.887232   -1.072389    2.235711
     20          1           0        2.745813   -2.205631    1.999878
     21          1           0        0.795849   -2.607244    0.567649
     22          1           0       -0.000089   -2.214454   -1.979157
     23          1           0        0.035652   -0.564324   -2.537422
     24          1           0       -1.945286   -2.956571   -0.802517
     25          1           0       -4.064335   -2.481837    0.335853
     26          1           0       -5.307603    0.849131    1.011880
     27          1           0       -5.721228   -0.791292    0.909916
     28          1           0       -1.029825    1.256267   -0.861278
     29          1           0        1.843919    0.821395   -1.826292
 ---------------------------------------------------------------------
 Rotational constants (GHZ):           0.6933806           0.1716907           0.1546415
 Standard basis: 6-31G(d,p) (6D, 7F)
 There are   323 symmetry adapted cartesian basis functions of A   symmetry.
 There are   323 symmetry adapted basis functions of A   symmetry.
   323 basis functions,   608 primitive gaussians,   323 cartesian basis functions
    69 alpha electrons       69 beta electrons
       nuclear repulsion energy      1307.8012041140 Hartrees.
 NAtoms=   29 NActive=   29 NUniq=   29 SFac= 1.00D+00 NAtFMM=   60 NAOKFM=F Big=F
 Integral buffers will be    131072 words long.
 Raffenetti 2 integral format.
 Two-electron integral symmetry is turned on.
 Force inversion solution in PCM.
 ------------------------------------------------------------------------------
 Polarizable Continuum Model (PCM)
 =================================
 Model                : PCM.
 Atomic radii         : UFF (Universal Force Field).
 Polarization charges : Total charges.
 Charge compensation  : None.
 Solution method      : Matrix inversion.
 Cavity type          : Scaled VdW (van der Waals Surface) (Alpha=1.100).
 Cavity algorithm     : GePol (No added spheres)
                        Default sphere list used, NSphG=   29.
                        Lebedev-Laikov grids with approx.  5.0 points / Ang**2.
                        Smoothing algorithm: York/Karplus (Gamma=1.0000).
                        Polarization charges: spherical gaussians, with
                                              point-specific exponents (IZeta= 3).
                        Self-potential: point-specific (ISelfS= 7).
                        Self-field    : sphere-specific E.n sum rule (ISelfD= 2).
 1st derivatives      : Analytical E(r).r(x)/FMM algorithm (CHGder, D1EAlg=3).
                        Cavity 1st derivative terms included.
 2nd derivatives      : Analytical E(r).r(xy)/FMM algorithm (CHGder, D2EAlg=3).
                        Cavity 2nd derivative terms included.
 Solvent              : Water, Eps=  78.355300 Eps(inf)=   1.777849
 ------------------------------------------------------------------------------
 One-electron integrals computed using PRISM.
 NBasis=   323 RedAO= T EigKep=  4.21D-04  NBF=   323
 NBsUse=   323 1.00D-06 EigRej= -1.00D+00 NBFU=   323
 ExpMin= 1.43D-01 ExpMax= 2.52D+04 ExpMxC= 3.78D+03 IAcc=3 IRadAn=         5 AccDes= 0.00D+00
 Harris functional with IExCor=  402 and IRadAn=       5 diagonalized for initial guess.
 HarFok:  IExCor=  402 AccDes= 0.00D+00 IRadAn=         5 IDoV= 1 UseB2=F ITyADJ=14
 ICtDFT=  3500011 ScaDFX=  1.000000  1.000000  1.000000  1.000000
 FoFCou: FMM=F IPFlag=           0 FMFlag=      100000 FMFlg1=           0
         NFxFlg=           0 DoJE=T BraDBF=F KetDBF=T FulRan=T
         wScrn=  0.000000 ICntrl=       500 IOpCl=  0 I1Cent=   200000004 NGrid=           0
         NMat0=    1 NMatS0=      1 NMatT0=    0 NMatD0=    1 NMtDS0=    0 NMtDT0=    0
 Petite list used in FoFCou.
 Requested convergence on RMS density matrix=1.00D-08 within  32 cycles.
 Requested convergence on MAX density matrix=1.00D-06.
 Requested convergence on             energy=1.00D-06.
 No special actions if energy rises.
 Inv3:  Mode=1 IEnd=    15787308.
 Iteration    1 A*A^-1 deviation from unit magnitude is 3.11D-15 for    256.
 Iteration    1 A*A^-1 deviation from orthogonality  is 2.05D-15 for   1764    831.
 Iteration    1 A^-1*A deviation from unit magnitude is 3.11D-15 for    256.
 Iteration    1 A^-1*A deviation from orthogonality  is 1.33D-13 for    935    839.
 Error on total polarization charges =  0.01167
 SCF Done:  E(RB3LYP) =  -1532.54785301     A.U. after   13 cycles
            NFock= 13  Conv=0.53D-08     -V/T= 2.0057
 QCSCF skips out because SCF is already converged.
 DoSCS=F DFT=T ScalE2(SS,OS)=  1.000000  1.000000
 Range of M.O.s used for correlation:     1   323
 NBasis=   323 NAE=    69 NBE=    69 NFC=     0 NFV=     0
 NROrb=    323 NOA=    69 NOB=    69 NVA=   254 NVB=   254
 Symmetrizing basis deriv contribution to polar:
 IMax=3 JMax=2 DiffMx= 0.00D+00
 G2DrvN: will do    30 centers at a time, making    1 passes.
 Calling FoFCou, ICntrl=  3107 FMM=F I1Cent=   0 AccDes= 0.00D+00.
 NEqPCM:  Using equilibrium solvation (IEInf=0, Eps=  78.3553, EpsInf=   1.7778)
 G2PCM: DoFxE=T DoFxN=T DoGrad=T DoDP/DQ/DG/TGxP=FFFF NFrqRd=   0 IEInf=0 SqF1=F DoCFld=F IF1Alg=4.
 End of G2Drv F.D. properties file   721 does not exist.
 End of G2Drv F.D. properties file   722 does not exist.
 End of G2Drv F.D. properties file   788 does not exist.
          IDoAtm=11111111111111111111111111111
 NEqPCM:  Using equilibrium solvation (IEInf=0, Eps=  78.3553, EpsInf=   1.7778)
          Differentiating once with respect to nuclear coordinates.
 CalDSu exits because no D1Ps are significant.
          There are    90 degrees of freedom in the 1st order CPHF.  IDoFFX=6 NUNeed=     0.
     84 vectors produced by pass  0 Test12= 1.95D-14 1.11D-09 XBig12= 1.56D-01 1.19D-01.
 AX will form    84 AO Fock derivatives at one time.
     84 vectors produced by pass  1 Test12= 1.95D-14 1.11D-09 XBig12= 2.69D-02 2.68D-02.
     84 vectors produced by pass  2 Test12= 1.95D-14 1.11D-09 XBig12= 2.31D-04 1.49D-03.
     84 vectors produced by pass  3 Test12= 1.95D-14 1.11D-09 XBig12= 6.45D-07 7.36D-05.
     84 vectors produced by pass  4 Test12= 1.95D-14 1.11D-09 XBig12= 8.56D-10 2.73D-06.
     67 vectors produced by pass  5 Test12= 1.95D-14 1.11D-09 XBig12= 8.68D-13 1.03D-07.
     18 vectors produced by pass  6 Test12= 1.95D-14 1.11D-09 XBig12= 9.38D-16 2.86D-09.
 InvSVY:  IOpt=1 It=  1 EMax= 4.44D-16
 Solved reduced A of dimension   505 with    90 vectors.
 End of Minotr F.D. properties file   721 does not exist.
 End of Minotr F.D. properties file   722 does not exist.
 End of Minotr F.D. properties file   788 does not exist.

 **********************************************************************

            Population analysis using the SCF density.

 **********************************************************************

 Orbital symmetries:
       Occupied  (A) (A) (A) (A) (A) (A) (A) (A) (A) (A) (A) (A)
                 (A) (A) (A) (A) (A) (A) (A) (A) (A) (A) (A) (A)
                 (A) (A) (A) (A) (A) (A) (A) (A) (A) (A) (A) (A)
                 (A) (A) (A) (A) (A) (A) (A) (A) (A) (A) (A) (A)
                 (A) (A) (A) (A) (A) (A) (A) (A) (A) (A) (A) (A)
                 (A) (A) (A) (A) (A) (A) (A) (A) (A)
       Virtual   (A) (A) (A) (A) (A) (A) (A) (A) (A) (A) (A) (A)
                 (A) (A) (A) (A) (A) (A) (A) (A) (A) (A) (A) (A)
                 (A) (A) (A) (A) (A) (A) (A) (A) (A) (A) (A) (A)
                 (A) (A) (A) (A) (A) (A) (A) (A) (A) (A) (A) (A)
                 (A) (A) (A) (A) (A) (A) (A) (A) (A) (A) (A) (A)
                 (A) (A) (A) (A) (A) (A) (A) (A) (A) (A) (A) (A)
                 (A) (A) (A) (A) (A) (A) (A) (A) (A) (A) (A) (A)
                 (A) (A) (A) (A) (A) (A) (A) (A) (A) (A) (A) (A)
                 (A) (A) (A) (A) (A) (A) (A) (A) (A) (A) (A) (A)
                 (A) (A) (A) (A) (A) (A) (A) (A) (A) (A) (A) (A)
                 (A) (A) (A) (A) (A) (A) (A) (A) (A) (A) (A) (A)
                 (A) (A) (A) (A) (A) (A) (A) (A) (A) (A) (A) (A)
                 (A) (A) (A) (A) (A) (A) (A) (A) (A) (A) (A) (A)
                 (A) (A) (A) (A) (A) (A) (A) (A) (A) (A) (A) (A)
                 (A) (A) (A) (A) (A) (A) (A) (A) (A) (A) (A) (A)
                 (A) (A) (A) (A) (A) (A) (A) (A) (A) (A) (A) (A)
                 (A) (A) (A) (A) (A) (A) (A) (A) (A) (A) (A) (A)
                 (A) (A) (A) (A) (A) (A) (A) (A) (A) (A) (A) (A)
                 (A) (A) (A) (A) (A) (A) (A) (A) (A) (A) (A) (A)
                 (A) (A) (A) (A) (A) (A) (A) (A) (A) (A) (A) (A)
                 (A) (A) (A) (A) (A) (A) (A) (A) (A) (A) (A) (A)
                 (A) (A)
 The electronic state is 1-A.
 Alpha  occ. eigenvalues -- -101.55719-101.55689 -14.34210 -14.34195 -10.24609
 Alpha  occ. eigenvalues --  -10.24494 -10.23920 -10.23916 -10.19858 -10.19840
 Alpha  occ. eigenvalues --  -10.19572 -10.19569 -10.19230 -10.19205 -10.19183
 Alpha  occ. eigenvalues --  -10.19161 -10.19067  -9.47375  -9.47343  -7.23740
 Alpha  occ. eigenvalues --   -7.23707  -7.22808  -7.22792  -7.22777  -7.22761
 Alpha  occ. eigenvalues --   -0.92809  -0.92777  -0.87551  -0.87429  -0.84730
 Alpha  occ. eigenvalues --   -0.83020  -0.77323  -0.73860  -0.73434  -0.72109
 Alpha  occ. eigenvalues --   -0.67263  -0.61958  -0.61696  -0.59287  -0.57096
 Alpha  occ. eigenvalues --   -0.52034  -0.51890  -0.51624  -0.51176  -0.47200
 Alpha  occ. eigenvalues --   -0.46608  -0.45289  -0.44245  -0.43678  -0.43122
 Alpha  occ. eigenvalues --   -0.42872  -0.42470  -0.41132  -0.40331  -0.38684
 Alpha  occ. eigenvalues --   -0.37501  -0.36363  -0.35554  -0.34457  -0.34064
 Alpha  occ. eigenvalues --   -0.34039  -0.32208  -0.31995  -0.30998  -0.30218
 Alpha  occ. eigenvalues --   -0.24786  -0.24660  -0.21256  -0.20316
 Alpha virt. eigenvalues --   -0.01527  -0.01084  -0.00026   0.01558   0.03743
 Alpha virt. eigenvalues --    0.03976   0.09492   0.09646   0.10464   0.12209
 Alpha virt. eigenvalues --    0.12923   0.14296   0.14999   0.15522   0.16034
 Alpha virt. eigenvalues --    0.16582   0.17357   0.18235   0.18452   0.20634
 Alpha virt. eigenvalues --    0.23549   0.24834   0.27406   0.27635   0.28688
 Alpha virt. eigenvalues --    0.29444   0.30738   0.31138   0.31741   0.33893
 Alpha virt. eigenvalues --    0.34473   0.35707   0.39659   0.39820   0.41225
 Alpha virt. eigenvalues --    0.41338   0.42948   0.43511   0.43621   0.45067
 Alpha virt. eigenvalues --    0.49007   0.49404   0.51338   0.51804   0.52260
 Alpha virt. eigenvalues --    0.53249   0.53426   0.54733   0.54960   0.55891
 Alpha virt. eigenvalues --    0.58541   0.58628   0.58760   0.58872   0.59978
 Alpha virt. eigenvalues --    0.60189   0.60500   0.61782   0.62031   0.62870
 Alpha virt. eigenvalues --    0.63996   0.64408   0.65516   0.66521   0.68867
 Alpha virt. eigenvalues --    0.69339   0.70193   0.72048   0.72956   0.74518
 Alpha virt. eigenvalues --    0.75382   0.75776   0.76559   0.78410   0.79929
 Alpha virt. eigenvalues --    0.80514   0.81177   0.81875   0.82764   0.83075
 Alpha virt. eigenvalues --    0.84410   0.84732   0.85186   0.85409   0.86864
 Alpha virt. eigenvalues --    0.87281   0.87483   0.87751   0.90649   0.91210
 Alpha virt. eigenvalues --    0.91903   0.92201   0.92969   0.92997   0.94737
 Alpha virt. eigenvalues --    0.95530   0.96059   0.96243   0.98927   0.99229
 Alpha virt. eigenvalues --    1.00544   1.01933   1.05323   1.06079   1.09812
 Alpha virt. eigenvalues --    1.10480   1.11022   1.12538   1.13187   1.15012
 Alpha virt. eigenvalues --    1.16074   1.18794   1.19630   1.19769   1.25160
 Alpha virt. eigenvalues --    1.25782   1.28430   1.29715   1.31023   1.32680
 Alpha virt. eigenvalues --    1.34841   1.35870   1.38227   1.39200   1.40215
 Alpha virt. eigenvalues --    1.41094   1.41177   1.42308   1.46007   1.49557
 Alpha virt. eigenvalues --    1.51230   1.51907   1.53668   1.54931   1.57746
 Alpha virt. eigenvalues --    1.61591   1.74583   1.75624   1.75928   1.77389
 Alpha virt. eigenvalues --    1.77841   1.79462   1.81042   1.82240   1.83148
 Alpha virt. eigenvalues --    1.83773   1.86076   1.86717   1.87192   1.87477
 Alpha virt. eigenvalues --    1.88853   1.90812   1.94069   1.94629   1.97864
 Alpha virt. eigenvalues --    1.98070   1.98220   1.99045   2.00581   2.02140
 Alpha virt. eigenvalues --    2.03947   2.04549   2.06592   2.07789   2.08748
 Alpha virt. eigenvalues --    2.13372   2.14269   2.15842   2.16397   2.17222
 Alpha virt. eigenvalues --    2.21186   2.23304   2.24555   2.26865   2.27032
 Alpha virt. eigenvalues --    2.28773   2.29846   2.31540   2.32902   2.33277
 Alpha virt. eigenvalues --    2.33964   2.34807   2.35230   2.35991   2.41458
 Alpha virt. eigenvalues --    2.43719   2.44510   2.46006   2.46363   2.46635
 Alpha virt. eigenvalues --    2.48631   2.48941   2.50810   2.53317   2.53646
 Alpha virt. eigenvalues --    2.55406   2.56354   2.58343   2.58909   2.62483
 Alpha virt. eigenvalues --    2.62759   2.64161   2.65297   2.65823   2.69031
 Alpha virt. eigenvalues --    2.69857   2.71323   2.76426   2.77167   2.79110
 Alpha virt. eigenvalues --    2.80544   2.85018   2.85986   2.88394   2.90084
 Alpha virt. eigenvalues --    2.96221   2.96756   2.99362   3.01117   3.02914
 Alpha virt. eigenvalues --    3.08928   3.17334   3.18622   3.24910   3.26392
 Alpha virt. eigenvalues --    3.27478   3.28330   3.31501   3.34136   3.34428
 Alpha virt. eigenvalues --    3.42451   3.42687   3.47676   3.49315   3.50694
 Alpha virt. eigenvalues --    3.74047   3.75054   4.03863   4.03904   4.07906
 Alpha virt. eigenvalues --    4.08033   4.13805   4.14486   4.16960   4.21932
 Alpha virt. eigenvalues --    4.28277   4.28461   4.39765   4.41795   4.42427
 Alpha virt. eigenvalues --    4.47147   4.58150   4.78901   4.82488
          Condensed to atoms (all electrons):
               1          2          3          4          5          6
     1  N    6.817471   0.318334  -0.067579   0.004504   0.000512   0.000001
     2  C    0.318334   4.628003   0.521824  -0.025248  -0.026546   0.000500
     3  C   -0.067579   0.521824   4.940904   0.514006  -0.030033   0.005652
     4  C    0.004504  -0.025248   0.514006   4.914541   0.531990  -0.060366
     5  C    0.000512  -0.026546  -0.030033   0.531990   4.732092   0.352334
     6  C    0.000001   0.000500   0.005652  -0.060366   0.352334   5.116293
     7  C    0.000000   0.000056   0.000130  -0.000705  -0.057142   0.353064
     8  C   -0.000000   0.000001   0.000016   0.001739  -0.003929  -0.045943
     9  C    0.000000   0.000000   0.000000  -0.000104  -0.000065   0.006311
    10  C    0.000000  -0.000000   0.000000  -0.000001   0.000056   0.000511
    11  N   -0.000000   0.000000   0.000000   0.000000   0.000000   0.000001
    12  C    0.000000   0.000000  -0.000002  -0.000046   0.000111   0.005912
    13  Cl   0.000000  -0.000000   0.000000   0.000002  -0.000001  -0.000176
    14  C    0.000000  -0.000003  -0.000047  -0.000643  -0.001059  -0.060504
    15  C    0.003845  -0.029655  -0.046610  -0.041513   0.541170  -0.045712
    16  C   -0.075686   0.498854  -0.048149  -0.041910  -0.035479   0.006678
    17  Cl  -0.007395  -0.071906   0.004383   0.000515   0.004034  -0.000180
    18  H    0.338611  -0.024991   0.005712  -0.000201  -0.000007   0.000000
    19  H    0.344597  -0.024242  -0.009863  -0.000058  -0.000002  -0.000000
    20  H   -0.007422  -0.041194   0.366337  -0.031563   0.003298  -0.000191
    21  H   -0.000112   0.004165  -0.037144   0.366149  -0.042806  -0.007960
    22  H   -0.000000  -0.000004   0.000122  -0.007305  -0.028984   0.364139
    23  H   -0.000000  -0.000005  -0.000184   0.005480  -0.033319   0.362759
    24  H   -0.000000  -0.000000   0.000003  -0.000014   0.000161  -0.009371
    25  H    0.000000  -0.000000   0.000000   0.000002  -0.000001  -0.000187
    26  H    0.000000  -0.000000   0.000000   0.000000   0.000000   0.000000
    27  H    0.000000  -0.000000  -0.000000   0.000000   0.000000  -0.000000
    28  H    0.000000  -0.000009  -0.000012   0.000185   0.002100  -0.008655
    29  H   -0.000098   0.003322   0.000471   0.005680  -0.033018  -0.009873
               7          8          9         10         11         12
     1  N    0.000000  -0.000000   0.000000   0.000000  -0.000000   0.000000
     2  C    0.000056   0.000001   0.000000  -0.000000   0.000000   0.000000
     3  C    0.000130   0.000016   0.000000   0.000000   0.000000  -0.000002
     4  C   -0.000705   0.001739  -0.000104  -0.000001   0.000000  -0.000046
     5  C   -0.057142  -0.003929  -0.000065   0.000056   0.000000   0.000111
     6  C    0.353064  -0.045943   0.006311   0.000511   0.000001   0.005912
     7  C    4.733911   0.546262  -0.033155  -0.026566   0.000509  -0.032335
     8  C    0.546262   4.911087   0.502385  -0.024734   0.004480  -0.042026
     9  C   -0.033155   0.502385   4.954854   0.525582  -0.068140  -0.048050
    10  C   -0.026566  -0.024734   0.525582   4.628910   0.318167   0.494165
    11  N    0.000509   0.004480  -0.068140   0.318167   6.818166  -0.075262
    12  C   -0.032335  -0.042026  -0.048050   0.494165  -0.075262   5.181955
    13  Cl   0.003882   0.000549   0.004380  -0.071187  -0.007597   0.212722
    14  C    0.525362  -0.041621  -0.046387  -0.029554   0.003863   0.496042
    15  C   -0.004474  -0.000159   0.000005   0.000001  -0.000000   0.000017
    16  C   -0.000069   0.000006  -0.000000   0.000000   0.000000  -0.000000
    17  Cl   0.000000  -0.000000   0.000000  -0.000000   0.000000  -0.000000
    18  H    0.000000   0.000000  -0.000000  -0.000000   0.000000  -0.000000
    19  H    0.000000   0.000000  -0.000000  -0.000000   0.000000   0.000000
    20  H   -0.000001  -0.000000  -0.000000  -0.000000   0.000000   0.000000
    21  H    0.001839   0.001749   0.000067  -0.000007   0.000000  -0.000009
    22  H   -0.033185  -0.007970   0.000342  -0.000002  -0.000000  -0.000182
    23  H   -0.029286   0.002762  -0.000251  -0.000001  -0.000000   0.000136
    24  H   -0.040346   0.367456  -0.038971   0.004191  -0.000111   0.000620
    25  H    0.003472  -0.030780   0.365717  -0.041688  -0.007459   0.005157
    26  H   -0.000004  -0.000201   0.005744  -0.025168   0.338461  -0.013598
    27  H   -0.000003  -0.000055  -0.009882  -0.024133   0.344609   0.006143
    28  H   -0.035638   0.005535   0.000464   0.003350  -0.000099  -0.043172
    29  H    0.000125  -0.000007   0.000000   0.000000  -0.000000   0.000005
              13         14         15         16         17         18
     1  N    0.000000   0.000000   0.003845  -0.075686  -0.007395   0.338611
     2  C   -0.000000  -0.000003  -0.029655   0.498854  -0.071906  -0.024991
     3  C    0.000000  -0.000047  -0.046610  -0.048149   0.004383   0.005712
     4  C    0.000002  -0.000643  -0.041513  -0.041910   0.000515  -0.000201
     5  C   -0.000001  -0.001059   0.541170  -0.035479   0.004034  -0.000007
     6  C   -0.000176  -0.060504  -0.045712   0.006678  -0.000180   0.000000
     7  C    0.003882   0.525362  -0.004474  -0.000069   0.000000   0.000000
     8  C    0.000549  -0.041621  -0.000159   0.000006  -0.000000   0.000000
     9  C    0.004380  -0.046387   0.000005  -0.000000   0.000000  -0.000000
    10  C   -0.071187  -0.029554   0.000001   0.000000  -0.000000  -0.000000
    11  N   -0.007597   0.003863  -0.000000   0.000000   0.000000   0.000000
    12  C    0.212722   0.496042   0.000017  -0.000000  -0.000000  -0.000000
    13  Cl  16.946594  -0.070357  -0.000000  -0.000000   0.000000  -0.000000
    14  C   -0.070357   4.968514   0.001796  -0.000120   0.000002  -0.000000
    15  C   -0.000000   0.001796   4.967122   0.480345  -0.069075   0.000106
    16  C   -0.000000  -0.000120   0.480345   5.201026   0.211317  -0.013547
    17  Cl   0.000000   0.000002  -0.069075   0.211317  16.948929   0.014132
    18  H   -0.000000  -0.000000   0.000106  -0.013547   0.014132   0.425852
    19  H   -0.000000   0.000000  -0.000081   0.006170   0.000115  -0.025931
    20  H   -0.000000   0.000001   0.000868   0.005132  -0.000162   0.000006
    21  H    0.000000   0.000171   0.005692   0.000622   0.000013   0.000003
    22  H    0.000003   0.005498   0.002767  -0.000252   0.000004  -0.000000
    23  H   -0.000004  -0.007313  -0.007765   0.000347  -0.000016   0.000000
    24  H    0.000013   0.005807  -0.000005   0.000000  -0.000000  -0.000000
    25  H   -0.000161   0.000818  -0.000000   0.000000  -0.000000  -0.000000
    26  H    0.014258   0.000108   0.000000   0.000000  -0.000000  -0.000000
    27  H    0.000119  -0.000085   0.000000  -0.000000  -0.000000  -0.000000
    28  H   -0.000529   0.368195   0.001873   0.000067  -0.000006  -0.000000
    29  H   -0.000001   0.000006   0.369906  -0.045173  -0.000638  -0.000002
              19         20         21         22         23         24
     1  N    0.344597  -0.007422  -0.000112  -0.000000  -0.000000  -0.000000
     2  C   -0.024242  -0.041194   0.004165  -0.000004  -0.000005  -0.000000
     3  C   -0.009863   0.366337  -0.037144   0.000122  -0.000184   0.000003
     4  C   -0.000058  -0.031563   0.366149  -0.007305   0.005480  -0.000014
     5  C   -0.000002   0.003298  -0.042806  -0.028984  -0.033319   0.000161
     6  C   -0.000000  -0.000191  -0.007960   0.364139   0.362759  -0.009371
     7  C    0.000000  -0.000001   0.001839  -0.033185  -0.029286  -0.040346
     8  C    0.000000  -0.000000   0.001749  -0.007970   0.002762   0.367456
     9  C   -0.000000  -0.000000   0.000067   0.000342  -0.000251  -0.038971
    10  C   -0.000000  -0.000000  -0.000007  -0.000002  -0.000001   0.004191
    11  N    0.000000   0.000000   0.000000  -0.000000  -0.000000  -0.000111
    12  C    0.000000   0.000000  -0.000009  -0.000182   0.000136   0.000620
    13  Cl  -0.000000  -0.000000   0.000000   0.000003  -0.000004   0.000013
    14  C    0.000000   0.000001   0.000171   0.005498  -0.007313   0.005807
    15  C   -0.000081   0.000868   0.005692   0.002767  -0.007765  -0.000005
    16  C    0.006170   0.005132   0.000622  -0.000252   0.000347   0.000000
    17  Cl   0.000115  -0.000162   0.000013   0.000004  -0.000016  -0.000000
    18  H   -0.025931   0.000006   0.000003  -0.000000   0.000000  -0.000000
    19  H    0.420346   0.003875  -0.000006  -0.000000   0.000000  -0.000000
    20  H    0.003875   0.598399  -0.005467   0.000001   0.000002  -0.000000
    21  H   -0.000006  -0.005467   0.608808   0.002285   0.000104   0.000524
    22  H   -0.000000   0.000001   0.002285   0.611008  -0.034459   0.005703
    23  H    0.000000   0.000002   0.000104  -0.034459   0.613318   0.000098
    24  H   -0.000000  -0.000000   0.000524   0.005703   0.000098   0.608025
    25  H   -0.000000  -0.000000  -0.000002  -0.000006   0.000004  -0.005631
    26  H   -0.000000  -0.000000  -0.000000  -0.000000  -0.000000   0.000003
    27  H   -0.000000  -0.000000  -0.000000   0.000000  -0.000000  -0.000006
    28  H   -0.000000   0.000000  -0.000013   0.000117   0.002330  -0.000158
    29  H    0.000003   0.000015  -0.000158   0.000107   0.005759  -0.000000
              25         26         27         28         29
     1  N    0.000000   0.000000   0.000000   0.000000  -0.000098
     2  C   -0.000000  -0.000000  -0.000000  -0.000009   0.003322
     3  C    0.000000   0.000000  -0.000000  -0.000012   0.000471
     4  C    0.000002   0.000000   0.000000   0.000185   0.005680
     5  C   -0.000001   0.000000   0.000000   0.002100  -0.033018
     6  C   -0.000187   0.000000  -0.000000  -0.008655  -0.009873
     7  C    0.003472  -0.000004  -0.000003  -0.035638   0.000125
     8  C   -0.030780  -0.000201  -0.000055   0.005535  -0.000007
     9  C    0.365717   0.005744  -0.009882   0.000464   0.000000
    10  C   -0.041688  -0.025168  -0.024133   0.003350   0.000000
    11  N   -0.007459   0.338461   0.344609  -0.000099  -0.000000
    12  C    0.005157  -0.013598   0.006143  -0.043172   0.000005
    13  Cl  -0.000161   0.014258   0.000119  -0.000529  -0.000001
    14  C    0.000818   0.000108  -0.000085   0.368195   0.000006
    15  C   -0.000000   0.000000   0.000000   0.001873   0.369906
    16  C    0.000000   0.000000  -0.000000   0.000067  -0.045173
    17  Cl  -0.000000  -0.000000  -0.000000  -0.000006  -0.000638
    18  H   -0.000000  -0.000000  -0.000000  -0.000000  -0.000002
    19  H   -0.000000  -0.000000  -0.000000  -0.000000   0.000003
    20  H   -0.000000  -0.000000  -0.000000   0.000000   0.000015
    21  H   -0.000002  -0.000000  -0.000000  -0.000013  -0.000158
    22  H   -0.000006  -0.000000   0.000000   0.000117   0.000107
    23  H    0.000004  -0.000000  -0.000000   0.002330   0.005759
    24  H   -0.005631   0.000003  -0.000006  -0.000158  -0.000000
    25  H    0.599972   0.000006   0.003848   0.000015  -0.000000
    26  H    0.000006   0.426417  -0.025950  -0.000001  -0.000000
    27  H    0.003848  -0.025950   0.420317   0.000003  -0.000000
    28  H    0.000015  -0.000001   0.000003   0.590731   0.000512
    29  H   -0.000000  -0.000000  -0.000000   0.000512   0.589381
 Mulliken charges:
               1
     1  N   -0.669586
     2  C    0.268743
     3  C   -0.119938
     4  C   -0.135115
     5  C    0.124530
     6  C   -0.325037
     7  C    0.124299
     8  C   -0.146603
     9  C   -0.120848
    10  C    0.268108
    11  N   -0.669588
    12  C   -0.148304
    13  Cl  -0.032508
    14  C   -0.118491
    15  C   -0.130466
    16  C   -0.150181
    17  Cl  -0.034068
    18  H    0.280256
    19  H    0.285076
    20  H    0.108065
    21  H    0.101493
    22  H    0.120252
    23  H    0.119503
    24  H    0.102009
    25  H    0.106904
    26  H    0.279925
    27  H    0.285076
    28  H    0.112814
    29  H    0.113676
 Sum of Mulliken charges =  -0.00000
 Mulliken charges with hydrogens summed into heavy atoms:
               1
     1  N   -0.104254
     2  C    0.268743
     3  C   -0.011872
     4  C   -0.033622
     5  C    0.124530
     6  C   -0.085281
     7  C    0.124299
     8  C   -0.044594
     9  C   -0.013943
    10  C    0.268108
    11  N   -0.104587
    12  C   -0.148304
    13  Cl  -0.032508
    14  C   -0.005677
    15  C   -0.016790
    16  C   -0.150181
    17  Cl  -0.034068
 APT charges:
               1
     1  N   -1.584111
     2  C    0.220380
     3  C   -0.369432
     4  C   -0.560578
     5  C   -0.352511
     6  C   -0.955990
     7  C   -0.401119
     8  C   -0.531146
     9  C   -0.371862
    10  C    0.202283
    11  N   -1.536546
    12  C   -0.120875
    13  Cl  -0.023091
    14  C   -0.518427
    15  C   -0.460883
    16  C   -0.056472
    17  Cl   0.000881
    18  H    0.859487
    19  H    0.958386
    20  H    0.623068
    21  H    0.375817
    22  H    0.525790
    23  H    0.403433
    24  H    0.517934
    25  H    0.793472
    26  H    0.691508
    27  H    1.117487
    28  H    0.192816
    29  H    0.360298
 Sum of APT charges =  -0.00000
 APT charges with hydrogens summed into heavy atoms:
               1
     1  N    0.233763
     2  C    0.220380
     3  C    0.253636
     4  C   -0.184760
     5  C   -0.352511
     6  C   -0.026767
     7  C   -0.401119
     8  C   -0.013212
     9  C    0.421609
    10  C    0.202283
    11  N    0.272450
    12  C   -0.120875
    13  Cl  -0.023091
    14  C   -0.325611
    15  C   -0.100585
    16  C   -0.056472
    17  Cl   0.000881
 Electronic spatial extent (au):  <R**2>=           6731.1537
 Charge=             -0.0000 electrons
 Dipole moment (field-independent basis, Debye):
    X=             -0.7701    Y=             -3.9092    Z=             -0.4051  Tot=              4.0049
 Quadrupole moment (field-independent basis, Debye-Ang):
   XX=            -83.9471   YY=           -106.7999   ZZ=           -113.0286
   XY=             -0.9327   XZ=              6.7825   YZ=             -4.2383
 Traceless Quadrupole moment (field-independent basis, Debye-Ang):
   XX=             17.3114   YY=             -5.5414   ZZ=            -11.7701
   XY=             -0.9327   XZ=              6.7825   YZ=             -4.2383
 Octapole moment (field-independent basis, Debye-Ang**2):
  XXX=            -55.7059  YYY=             -7.1749  ZZZ=             -2.2268  XYY=             -7.3421
  XXY=            -46.3051  XXZ=             55.3486  XZZ=             23.3811  YZZ=             -2.2830
  YYZ=              8.3809  XYZ=            -16.4341
 Hexadecapole moment (field-independent basis, Debye-Ang**3):
 XXXX=          -5257.9256 YYYY=          -1343.3782 ZZZZ=           -666.8247 XXXY=            -14.1712
 XXXZ=            150.9492 YYYX=             27.4936 YYYZ=            -10.5398 ZZZX=             24.9258
 ZZZY=            -28.1455 XXYY=          -1287.8252 XXZZ=          -1251.1410 YYZZ=           -326.2238
 XXYZ=            -72.1325 YYXZ=             12.8185 ZZXY=            -47.5429
 N-N= 1.307801204114D+03 E-N=-6.222921782899D+03  KE= 1.523800698432D+03
  Exact polarizability:   0.000   0.000   0.000   0.000   0.000   0.000
 Approx polarizability: 300.631  38.855 296.529  -8.071 -20.067 200.347
 D2PCM: PCM CHGder 2nd derivatives, FixD1E=F FixD2E=F DoIter=F DoCFld=F I1PDM=0
 Calling FoFJK, ICntrl=    100147 FMM=F ISym2X=0 I1Cent= 0 IOpClX= 0 NMat=1 NMatS=1 NMatT=0.
 ***** Axes restored to original set *****
 -------------------------------------------------------------------
 Center     Atomic                   Forces (Hartrees/Bohr)
 Number     Number              X              Y              Z
 -------------------------------------------------------------------
      1        7          -0.000979897   -0.011991836   -0.004472722
      2        6           0.009664696    0.020210664   -0.007962855
      3        6          -0.015648796   -0.009516930    0.006218859
      4        6           0.008183941    0.005489405   -0.000774812
      5        6           0.002831734   -0.002006176   -0.003949506
      6        6           0.000838678   -0.008606748    0.000798917
      7        6          -0.002347497    0.000697345    0.003210486
      8        6          -0.006412079    0.004627261   -0.004923092
      9        6           0.009157743   -0.010439177    0.008295040
     10        6          -0.011314230    0.021173317    0.000373645
     11        7           0.008133714   -0.007164392   -0.007645488
     12        6           0.008143509   -0.013155141    0.015501366
     13       17          -0.003017832    0.005318645   -0.015278472
     14        6          -0.003822210    0.001660668    0.003496838
     15        6          -0.000631330    0.004394083    0.004081370
     16        6          -0.015098336   -0.005161476    0.012296800
     17       17           0.013079562   -0.000935886   -0.009966272
     18        1          -0.000688218    0.004515798    0.005357311
     19        1           0.000972677   -0.002035279   -0.002124590
     20        1           0.002963111   -0.000663962   -0.000657590
     21        1           0.000654432   -0.001103573   -0.001090640
     22        1          -0.003338038    0.001930527   -0.001053700
     23        1           0.003238415    0.001662776   -0.000072731
     24        1           0.000869215   -0.000560667   -0.001671196
     25        1          -0.001326885    0.000096922   -0.002652779
     26        1          -0.004546442    0.000571227    0.005598354
     27        1           0.001335209   -0.000310571   -0.002677586
     28        1          -0.001584832    0.000428454    0.000448599
     29        1           0.000689986    0.000874719    0.001296445
 -------------------------------------------------------------------
 Cartesian Forces:  Max     0.021173317 RMS     0.006861842
 FormGI is forming the generalized inverse of G from B-inverse, IUseBI=4.

 GradGradGradGradGradGradGradGradGradGradGradGradGradGradGradGradGradGrad
 Berny optimization.
 Internal  Forces:  Max     0.016262791 RMS     0.003273786
 Search for a local minimum.
 Step number   1 out of a maximum of  156
 All quantities printed in internal units (Hartrees-Bohrs-Radians)
 Mixed Optimization -- RFO/linear search
 Second derivative matrix not updated -- analytic derivatives used.
 ITU=  0
     Eigenvalues ---    0.00056   0.00107   0.00494   0.00501   0.01538
     Eigenvalues ---    0.01603   0.01674   0.01688   0.01759   0.01776
     Eigenvalues ---    0.01823   0.01862   0.01960   0.01993   0.02219
     Eigenvalues ---    0.02239   0.02420   0.02435   0.02618   0.02636
     Eigenvalues ---    0.02744   0.02758   0.02877   0.02911   0.05135
     Eigenvalues ---    0.05200   0.08734   0.11371   0.11469   0.11702
     Eigenvalues ---    0.11771   0.12309   0.12370   0.12414   0.13307
     Eigenvalues ---    0.13336   0.16016   0.16108   0.16594   0.16614
     Eigenvalues ---    0.18157   0.18477   0.18568   0.18868   0.19074
     Eigenvalues ---    0.19385   0.19448   0.21348   0.21362   0.22347
     Eigenvalues ---    0.22611   0.28014   0.28031   0.29829   0.31820
     Eigenvalues ---    0.32515   0.32960   0.33081   0.33811   0.35541
     Eigenvalues ---    0.35565   0.35779   0.35822   0.35902   0.35945
     Eigenvalues ---    0.37976   0.38277   0.41706   0.41756   0.44135
     Eigenvalues ---    0.44309   0.44792   0.44886   0.46091   0.46092
     Eigenvalues ---    0.46568   0.46693   0.47561   0.47611   0.50712
     Eigenvalues ---    0.50791
 RFO step:  Lambda=-8.78601039D-03 EMin= 5.63687195D-04
 Linear search not attempted -- first point.
 Iteration  1 RMS(Cart)=  0.03454878 RMS(Int)=  0.00083830
 Iteration  2 RMS(Cart)=  0.00136372 RMS(Int)=  0.00041189
 Iteration  3 RMS(Cart)=  0.00000120 RMS(Int)=  0.00041189
 Iteration  4 RMS(Cart)=  0.00000000 RMS(Int)=  0.00041189
 Variable       Old X    -DE/DX   Delta X   Delta X   Delta X     New X
                                 (Linear)    (Quad)   (Total)
    R1        2.65833  -0.00657   0.00000  -0.03418  -0.03418   2.62415
    R2        1.92386  -0.00476   0.00000  -0.01155  -0.01155   1.91230
    R3        1.91671  -0.00250   0.00000  -0.00488  -0.00488   1.91183
    R4        2.64211   0.00722   0.00000   0.02129   0.02138   2.66349
    R5        2.65623   0.00005   0.00000  -0.00001   0.00012   2.65635
    R6        2.64400  -0.00652   0.00000  -0.02067  -0.02070   2.62330
    R7        2.05447  -0.00078   0.00000  -0.00100  -0.00100   2.05347
    R8        2.64779   0.00029   0.00000   0.00450   0.00437   2.65216
    R9        2.05654  -0.00140   0.00000  -0.00296  -0.00296   2.05358
   R10        2.85623   0.00608   0.00000   0.01584   0.01584   2.87207
   R11        2.64752  -0.00274   0.00000  -0.00806  -0.00816   2.63936
   R12        2.85629   0.00621   0.00000   0.01658   0.01658   2.87287
   R13        2.07504  -0.00115   0.00000  -0.00381  -0.00381   2.07124
   R14        2.07504  -0.00083   0.00000  -0.00382  -0.00382   2.07122
   R15        2.64707  -0.00037   0.00000  -0.00084  -0.00095   2.64611
   R16        2.64879  -0.00248   0.00000  -0.00358  -0.00370   2.64509
   R17        2.64419  -0.00453   0.00000  -0.01401  -0.01401   2.63019
   R18        2.05627  -0.00143   0.00000  -0.00274  -0.00274   2.05353
   R19        2.64244   0.00539   0.00000   0.01518   0.01529   2.65773
   R20        2.05449  -0.00077   0.00000  -0.00117  -0.00117   2.05333
   R21        2.65879  -0.00637   0.00000  -0.03431  -0.03431   2.62448
   R22        2.65631   0.00175   0.00000   0.00636   0.00648   2.66279
   R23        1.92431  -0.00490   0.00000  -0.01209  -0.01209   1.91223
   R24        1.91663  -0.00245   0.00000  -0.00481  -0.00481   1.91183
   R25        3.27038   0.01626   0.00000   0.06824   0.06824   3.33862
   R26        2.64242  -0.00320   0.00000  -0.01486  -0.01486   2.62756
   R27        2.05509  -0.00155   0.00000  -0.00369  -0.00369   2.05140
   R28        2.64323  -0.00140   0.00000  -0.00843  -0.00840   2.63482
   R29        2.05481  -0.00158   0.00000  -0.00355  -0.00355   2.05126
   R30        3.27075   0.01626   0.00000   0.06749   0.06749   3.33824
    A1        1.96473   0.00590   0.00000   0.04074   0.04061   2.00535
    A2        1.99577  -0.00141   0.00000   0.00229   0.00216   1.99793
    A3        1.97322  -0.00387   0.00000  -0.02223  -0.02243   1.95079
    A4        2.07884   0.00675   0.00000   0.03239   0.03110   2.10993
    A5        2.12985  -0.00067   0.00000   0.01076   0.00935   2.13920
    A6        2.06071  -0.00558   0.00000  -0.02876  -0.02984   2.03087
    A7        2.11063   0.00213   0.00000   0.01067   0.01075   2.12139
    A8        2.09669  -0.00390   0.00000  -0.02851  -0.02856   2.06813
    A9        2.07583   0.00177   0.00000   0.01789   0.01783   2.09367
   A10        2.10664   0.00242   0.00000   0.01321   0.01304   2.11968
   A11        2.07663  -0.00029   0.00000   0.00004   0.00007   2.07670
   A12        2.09971  -0.00212   0.00000  -0.01295  -0.01292   2.08679
   A13        2.10659   0.00141   0.00000   0.00943   0.00953   2.11612
   A14        2.07138  -0.00344   0.00000  -0.01749  -0.01772   2.05366
   A15        2.10509   0.00203   0.00000   0.00821   0.00830   2.11339
   A16        1.98764   0.00182   0.00000   0.00307   0.00306   1.99070
   A17        1.89221   0.00243   0.00000   0.01674   0.01675   1.90896
   A18        1.92647  -0.00395   0.00000  -0.02694  -0.02690   1.89957
   A19        1.92619  -0.00429   0.00000  -0.03149  -0.03142   1.89477
   A20        1.89243   0.00257   0.00000   0.01942   0.01948   1.91192
   A21        1.83270   0.00130   0.00000   0.02002   0.02025   1.85295
   A22        2.10599   0.00409   0.00000   0.01662   0.01672   2.12271
   A23        2.10536  -0.00050   0.00000   0.00158   0.00168   2.10704
   A24        2.07173  -0.00358   0.00000  -0.01808  -0.01831   2.05342
   A25        2.10597   0.00277   0.00000   0.01481   0.01467   2.12064
   A26        2.10211  -0.00269   0.00000  -0.01543  -0.01541   2.08670
   A27        2.07500  -0.00007   0.00000   0.00083   0.00085   2.07585
   A28        2.11085   0.00163   0.00000   0.00934   0.00946   2.12031
   A29        2.07669   0.00196   0.00000   0.01612   0.01605   2.09275
   A30        2.09563  -0.00358   0.00000  -0.02543  -0.02550   2.07012
   A31        2.07831   0.00731   0.00000   0.03644   0.03520   2.11351
   A32        2.06132  -0.00580   0.00000  -0.02967  -0.03071   2.03061
   A33        2.12995  -0.00103   0.00000   0.00731   0.00592   2.13587
   A34        1.96266   0.00609   0.00000   0.04230   0.04213   2.00479
   A35        1.99550  -0.00141   0.00000   0.00293   0.00276   1.99826
   A36        1.97209  -0.00394   0.00000  -0.02150  -0.02175   1.95035
   A37        2.10471  -0.00521   0.00000  -0.02837  -0.02848   2.07623
   A38        2.11301   0.00220   0.00000   0.02147   0.02159   2.13460
   A39        2.06518   0.00301   0.00000   0.00722   0.00712   2.07230
   A40        2.10104   0.00289   0.00000   0.00568   0.00556   2.10660
   A41        2.09531  -0.00074   0.00000   0.00340   0.00343   2.09874
   A42        2.08674  -0.00215   0.00000  -0.00894  -0.00891   2.07784
   A43        2.10062   0.00305   0.00000   0.00651   0.00643   2.10705
   A44        2.09740  -0.00114   0.00000   0.00177   0.00177   2.09918
   A45        2.08511  -0.00190   0.00000  -0.00816  -0.00815   2.07696
   A46        2.11389   0.00153   0.00000   0.01948   0.01965   2.13354
   A47        2.10496  -0.00502   0.00000  -0.02671  -0.02683   2.07813
   A48        2.06408   0.00350   0.00000   0.00749   0.00738   2.07146
    D1        2.87744  -0.00244   0.00000  -0.08023  -0.08099   2.79645
    D2       -0.44529   0.00023   0.00000   0.01053   0.01141  -0.43388
    D3        0.59424  -0.00116   0.00000  -0.08924  -0.09013   0.50411
    D4       -2.72850   0.00151   0.00000   0.00152   0.00227  -2.72622
    D5        3.04207   0.00127   0.00000   0.03585   0.03597   3.07804
    D6       -0.09144   0.00103   0.00000   0.02903   0.02917  -0.06227
    D7        0.07444  -0.00174   0.00000  -0.05512  -0.05454   0.01990
    D8       -3.05907  -0.00197   0.00000  -0.06194  -0.06134  -3.12041
    D9       -3.03672  -0.00200   0.00000  -0.04213  -0.04114  -3.07786
   D10        0.12968  -0.00229   0.00000  -0.05477  -0.05390   0.07578
   D11       -0.07447   0.00186   0.00000   0.05376   0.05322  -0.02125
   D12        3.09193   0.00158   0.00000   0.04112   0.04046   3.13239
   D13       -0.03237   0.00055   0.00000   0.02391   0.02427  -0.00810
   D14        3.13106   0.00022   0.00000   0.00856   0.00862   3.13969
   D15        3.10124   0.00076   0.00000   0.03044   0.03096   3.13220
   D16       -0.01851   0.00043   0.00000   0.01509   0.01531  -0.00320
   D17       -3.13590   0.00002   0.00000  -0.00149  -0.00156  -3.13747
   D18       -0.01190   0.00037   0.00000   0.00845   0.00842  -0.00347
   D19       -0.01644   0.00038   0.00000   0.01423   0.01434  -0.00210
   D20        3.10756   0.00072   0.00000   0.02417   0.02433   3.13189
   D21        1.21831  -0.00135   0.00000  -0.01633  -0.01625   1.20206
   D22       -0.93308   0.00112   0.00000   0.00972   0.00979  -0.92328
   D23       -2.93159   0.00032   0.00000  -0.00912  -0.00899  -2.94058
   D24       -1.90535  -0.00165   0.00000  -0.02621  -0.02632  -1.93167
   D25        2.22644   0.00082   0.00000  -0.00015  -0.00027   2.22617
   D26        0.22793   0.00002   0.00000  -0.01900  -0.01905   0.20887
   D27        0.01197  -0.00028   0.00000  -0.00952  -0.00970   0.00227
   D28       -3.11867  -0.00076   0.00000  -0.02296  -0.02311   3.14141
   D29        3.13599   0.00006   0.00000   0.00043   0.00028   3.13628
   D30        0.00535  -0.00041   0.00000  -0.01301  -0.01312  -0.00777
   D31       -1.91441  -0.00129   0.00000  -0.01820  -0.01831  -1.93272
   D32        1.21100  -0.00101   0.00000  -0.00946  -0.00939   1.20161
   D33        0.21837  -0.00006   0.00000  -0.01793  -0.01794   0.20043
   D34       -2.93941   0.00023   0.00000  -0.00919  -0.00902  -2.94843
   D35        2.21686   0.00063   0.00000  -0.00003  -0.00018   2.21668
   D36       -0.94092   0.00092   0.00000   0.00871   0.00874  -0.93218
   D37        3.13750  -0.00012   0.00000  -0.00152  -0.00139   3.13611
   D38        0.01202  -0.00044   0.00000  -0.01662  -0.01673  -0.00471
   D39        0.01179  -0.00043   0.00000  -0.01026  -0.01022   0.00157
   D40       -3.11369  -0.00074   0.00000  -0.02537  -0.02556  -3.13925
   D41       -3.13593  -0.00014   0.00000  -0.00182  -0.00162  -3.13755
   D42       -0.00907   0.00026   0.00000   0.00913   0.00924   0.00017
   D43       -0.01021   0.00021   0.00000   0.00706   0.00726  -0.00295
   D44        3.11665   0.00061   0.00000   0.01801   0.01813   3.13478
   D45        0.03081  -0.00040   0.00000  -0.01944  -0.01985   0.01096
   D46       -3.10498  -0.00058   0.00000  -0.02536  -0.02597  -3.13095
   D47       -3.12664  -0.00012   0.00000  -0.00471  -0.00476  -3.13140
   D48        0.02075  -0.00029   0.00000  -0.01063  -0.01088   0.00987
   D49       -3.04172  -0.00122   0.00000  -0.03661  -0.03696  -3.07868
   D50       -0.07297   0.00169   0.00000   0.05261   0.05199  -0.02098
   D51        0.09401  -0.00103   0.00000  -0.03049  -0.03078   0.06323
   D52        3.06276   0.00189   0.00000   0.05874   0.05816   3.12092
   D53       -2.88222   0.00243   0.00000   0.08359   0.08433  -2.79789
   D54       -0.60288   0.00123   0.00000   0.09553   0.09643  -0.50644
   D55        0.43930  -0.00016   0.00000  -0.00565  -0.00656   0.43274
   D56        2.71864  -0.00137   0.00000   0.00629   0.00554   2.72419
   D57       -3.09338  -0.00154   0.00000  -0.04064  -0.03997  -3.13335
   D58        0.07463  -0.00189   0.00000  -0.05540  -0.05487   0.01976
   D59       -0.13004   0.00232   0.00000   0.05426   0.05322  -0.07683
   D60        3.03797   0.00197   0.00000   0.03950   0.03831   3.07628
   D61       -0.03382   0.00078   0.00000   0.02545   0.02564  -0.00819
   D62        3.12243   0.00037   0.00000   0.01445   0.01480   3.13723
   D63        3.13360   0.00056   0.00000   0.01156   0.01129  -3.13829
   D64        0.00667   0.00014   0.00000   0.00056   0.00045   0.00712
   D65        0.03202  -0.00065   0.00000  -0.02118  -0.02140   0.01063
   D66       -3.13381  -0.00049   0.00000  -0.00931  -0.00916   3.14021
   D67       -3.12044  -0.00017   0.00000  -0.00778  -0.00810  -3.12854
   D68       -0.00309  -0.00001   0.00000   0.00409   0.00414   0.00105
         Item               Value     Threshold  Converged?
 Maximum Force            0.016263     0.000450     NO 
 RMS     Force            0.003274     0.000300     NO 
 Maximum Displacement     0.125321     0.001800     NO 
 RMS     Displacement     0.034318     0.001200     NO 
 Predicted change in Energy=-4.872960D-03
 GradGradGradGradGradGradGradGradGradGradGradGradGradGradGradGradGradGrad

                          Input orientation:                          
 ---------------------------------------------------------------------
 Center     Atomic      Atomic             Coordinates (Angstroms)
 Number     Number       Type             X           Y           Z
 ---------------------------------------------------------------------
      1          7           0        4.679124    1.675128    0.374355
      2          6           0        3.578524    0.828519    0.390350
      3          6           0        2.506681    1.051799    1.277974
      4          6           0        1.367303    0.259111    1.254806
      5          6           0        1.227328   -0.795262    0.339154
      6          6           0       -0.024431   -1.656879    0.314356
      7          6           0       -1.268144   -0.929291   -0.170387
      8          6           0       -2.325654   -0.625831    0.695825
      9          6           0       -3.460402    0.046107    0.250796
     10          6           0       -3.601891    0.439236   -1.092117
     11          7           0       -4.703070    1.173907   -1.512208
     12          6           0       -2.524083    0.138649   -1.948565
     13         17           0       -2.623515    0.612885   -3.647542
     14          6           0       -1.388398   -0.531013   -1.506848
     15          6           0        2.275488   -1.020132   -0.556128
     16          6           0        3.417771   -0.221013   -0.530831
     17         17           0        4.711674   -0.554510   -1.686337
     18          1           0        5.512261    1.282909   -0.045267
     19          1           0        4.879064    2.119398    1.261021
     20          1           0        2.585835    1.867463    1.991578
     21          1           0        0.566579    0.467217    1.959410
     22          1           0       -0.217858   -2.046228    1.320498
     23          1           0        0.160046   -2.530857   -0.320813
     24          1           0       -2.263846   -0.918691    1.740470
     25          1           0       -4.261391    0.277130    0.947709
     26          1           0       -4.880582    1.142847   -2.507939
     27          1           0       -5.545367    1.010856   -0.976040
     28          1           0       -0.590895   -0.739050   -2.213343
     29          1           0        2.211851   -1.824404   -1.282330
 ---------------------------------------------------------------------
                    Distance matrix (angstroms):
                    1          2          3          4          5
     1  N    0.000000
     2  C    1.388640   0.000000
     3  C    2.434045   1.409461   0.000000
     4  C    3.707892   2.441518   1.388192   0.000000
     5  C    4.244875   2.857868   2.435111   1.403465   0.000000
     6  C    5.764486   4.377701   3.830409   2.548016   1.519835
     7  C    6.515346   5.185992   4.502419   3.223205   2.550485
     8  C    7.380018   6.088331   5.148282   3.838425   3.574857
     9  C    8.301859   7.083652   6.137801   4.935599   4.763457
    10  C    8.500187   7.342181   6.580823   5.498489   5.185931
    11  N    9.583106   8.504342   7.731788   6.733695   6.517269
    12  C    7.722882   6.571777   6.045907   5.041724   4.492096
    13  Cl   8.404317   7.403807   7.125466   6.331255   5.718881
    14  C    6.724642   5.487988   5.043033   3.980567   3.212409
    15  C    3.729302   2.451782   2.776739   2.395985   1.396687
    16  C    2.450658   1.405679   2.392052   2.761057   2.425835
    17  Cl   3.036247   2.740334   4.028569   4.527375   4.037480
    18  H    1.011947   2.033610   3.292095   4.463075   4.777785
    19  H    1.011696   2.028753   2.601587   3.974063   4.762379
    20  H    2.652219   2.151457   1.086647   2.148127   3.415575
    21  H    4.569953   3.415304   2.137776   1.086707   2.157701
    22  H    6.222870   4.851996   4.125857   2.798506   2.148608
    23  H    6.212538   4.845323   4.571460   3.424027   2.141713
    24  H    7.536511   6.245707   5.182149   3.848159   3.763937
    25  H    9.067301   7.879020   6.820263   5.637094   5.625514
    26  H    9.998946   8.947366   8.301391   7.346789   7.012045
    27  H   10.334652   9.227441   8.361683   7.302520   7.131704
    28  H    6.348033   5.159510   4.999141   4.105961   3.134379
    29  H    4.591162   3.421060   3.861946   3.389890   2.158153
                    6          7          8          9         10
     6  C    0.000000
     7  C    1.520257   0.000000
     8  C    2.550334   1.400264   0.000000
     9  C    3.835375   2.436143   1.391835   0.000000
    10  C    4.378366   2.858117   2.441288   1.406410   0.000000
    11  N    5.765358   4.245309   3.710334   2.433998   1.388817
    12  C    3.820077   2.424829   2.759819   2.392164   1.409088
    13  Cl   5.253922   4.038061   4.526364   4.027239   2.741818
    14  C    2.538654   1.399719   2.395664   2.777693   2.452129
    15  C    2.540239   3.565722   4.784701   5.889688   6.079525
    16  C    3.824239   4.752828   5.886891   6.927594   7.072950
    17  Cl   5.258202   6.180355   7.429924   8.419980   8.393808
    18  H    6.279064   7.133259   8.100952   9.062341   9.212788
    19  H    6.261047   7.009394   7.730698   8.652502   8.960291
    20  H    4.695482   5.229635   5.658464   6.550163   7.059530
    21  H    2.750869   3.138866   3.340122   4.394687   5.166115
    22  H    1.096051   2.138548   2.617355   4.004525   4.842513
[...]
    47    C    4  S      Val( 2S)     0.94937
    48    C    4  S      Ryd( 3S)     0.00068
    49    C    4  S      Ryd( 4S)     0.00005
    50    C    4  px     Val( 2p)     1.12029
    51    C    4  px     Ryd( 3p)     0.00361
    52    C    4  py     Val( 2p)     1.10006
    53    C    4  py     Ryd( 3p)     0.00387
    54    C    4  pz     Val( 2p)     1.06939
    55    C    4  pz     Ryd( 3p)     0.00432
    56    C    4  dxy    Ryd( 3d)     0.00058
    57    C    4  dxz    Ryd( 3d)     0.00052
    58    C    4  dyz    Ryd( 3d)     0.00059
    59    C    4  dx2y2  Ryd( 3d)     0.00042
    60    C    4  dz2    Ryd( 3d)     0.00061

    61    C    5  S      Cor( 1S)     1.99900
    62    C    5  S      Val( 2S)     0.88330
    63    C    5  S      Ryd( 3S)     0.00098
    64    C    5  S      Ryd( 4S)     0.00005
    65    C    5  px     Val( 2p)     1.01541
    66    C    5  px     Ryd( 3p)     0.00496
    67    C    5  py     Val( 2p)     1.01753
    68    C    5  py     Ryd( 3p)     0.00322
    69    C    5  pz     Val( 2p)     1.06514
    70    C    5  pz     Ryd( 3p)     0.00444
    71    C    5  dxy    Ryd( 3d)     0.00052
    72    C    5  dxz    Ryd( 3d)     0.00072
    73    C    5  dyz    Ryd( 3d)     0.00052
    74    C    5  dx2y2  Ryd( 3d)     0.00079
    75    C    5  dz2    Ryd( 3d)     0.00072

    76    C    6  S      Cor( 1S)     1.99921
    77    C    6  S      Val( 2S)     1.02339
    78    C    6  S      Ryd( 3S)     0.00067
    79    C    6  S      Ryd( 4S)     0.00002
    80    C    6  px     Val( 2p)     1.03304
    81    C    6  px     Ryd( 3p)     0.00187
    82    C    6  py     Val( 2p)     1.24651
    83    C    6  py     Ryd( 3p)     0.00573
    84    C    6  pz     Val( 2p)     1.17659
    85    C    6  pz     Ryd( 3p)     0.00304
    86    C    6  dxy    Ryd( 3d)     0.00039
    87    C    6  dxz    Ryd( 3d)     0.00069
    88    C    6  dyz    Ryd( 3d)     0.00056
    89    C    6  dx2y2  Ryd( 3d)     0.00099
    90    C    6  dz2    Ryd( 3d)     0.00070

    91    C    7  S      Cor( 1S)     1.99900
    92    C    7  S      Val( 2S)     0.88369
    93    C    7  S      Ryd( 3S)     0.00091
    94    C    7  S      Ryd( 4S)     0.00005
    95    C    7  px     Val( 2p)     1.02960
    96    C    7  px     Ryd( 3p)     0.00505
    97    C    7  py     Val( 2p)     1.07337
    98    C    7  py     Ryd( 3p)     0.00476
    99    C    7  pz     Val( 2p)     0.98439
   100    C    7  pz     Ryd( 3p)     0.00252
   101    C    7  dxy    Ryd( 3d)     0.00077
   102    C    7  dxz    Ryd( 3d)     0.00055
   103    C    7  dyz    Ryd( 3d)     0.00086
   104    C    7  dx2y2  Ryd( 3d)     0.00073
   105    C    7  dz2    Ryd( 3d)     0.00043

   106    C    8  S      Cor( 1S)     1.99904
   107    C    8  S      Val( 2S)     0.94602
   108    C    8  S      Ryd( 3S)     0.00060
   109    C    8  S      Ryd( 4S)     0.00004
   110    C    8  px     Val( 2p)     1.06426
   111    C    8  px     Ryd( 3p)     0.00432
   112    C    8  py     Val( 2p)     1.18841
   113    C    8  py     Ryd( 3p)     0.00486
   114    C    8  pz     Val( 2p)     1.08027
   115    C    8  pz     Ryd( 3p)     0.00398
   116    C    8  dxy    Ryd( 3d)     0.00060
   117    C    8  dxz    Ryd( 3d)     0.00051
   118    C    8  dyz    Ryd( 3d)     0.00039
   119    C    8  dx2y2  Ryd( 3d)     0.00067
   120    C    8  dz2    Ryd( 3d)     0.00045

   121    C    9  S      Cor( 1S)     1.99905
   122    C    9  S      Val( 2S)     0.94946
   123    C    9  S      Ryd( 3S)     0.00063
   124    C    9  S      Ryd( 4S)     0.00004
   125    C    9  px     Val( 2p)     1.14085
   126    C    9  px     Ryd( 3p)     0.00440
   127    C    9  py     Val( 2p)     1.10233
   128    C    9  py     Ryd( 3p)     0.00445
   129    C    9  pz     Val( 2p)     1.09439
   130    C    9  pz     Ryd( 3p)     0.00404
   131    C    9  dxy    Ryd( 3d)     0.00063
   132    C    9  dxz    Ryd( 3d)     0.00044
   133    C    9  dyz    Ryd( 3d)     0.00044
   134    C    9  dx2y2  Ryd( 3d)     0.00058
   135    C    9  dz2    Ryd( 3d)     0.00047

   136    C   10  S      Cor( 1S)     1.99883
   137    C   10  S      Val( 2S)     0.84305
   138    C   10  S      Ryd( 3S)     0.00126
   139    C   10  S      Ryd( 4S)     0.00010
   140    C   10  px     Val( 2p)     0.94011
   141    C   10  px     Ryd( 3p)     0.00465
   142    C   10  py     Val( 2p)     1.08922
   143    C   10  py     Ryd( 3p)     0.00498
   144    C   10  pz     Val( 2p)     0.94703
   145    C   10  pz     Ryd( 3p)     0.00248
   146    C   10  dxy    Ryd( 3d)     0.00100
   147    C   10  dxz    Ryd( 3d)     0.00118
   148    C   10  dyz    Ryd( 3d)     0.00102
   149    C   10  dx2y2  Ryd( 3d)     0.00092
   150    C   10  dz2    Ryd( 3d)     0.00083

   151    N   11  S      Cor( 1S)     1.99948
   152    N   11  S      Val( 2S)     1.36188
   153    N   11  S      Ryd( 3S)     0.00016
   154    N   11  S      Ryd( 4S)     0.00001
   155    N   11  px     Val( 2p)     1.33275
   156    N   11  px     Ryd( 3p)     0.00223
   157    N   11  py     Val( 2p)     1.42649
   158    N   11  py     Ryd( 3p)     0.00185
   159    N   11  pz     Val( 2p)     1.63034
   160    N   11  pz     Ryd( 3p)     0.00360
   161    N   11  dxy    Ryd( 3d)     0.00054
   162    N   11  dxz    Ryd( 3d)     0.00071
   163    N   11  dyz    Ryd( 3d)     0.00054
   164    N   11  dx2y2  Ryd( 3d)     0.00031
   165    N   11  dz2    Ryd( 3d)     0.00109

   166    C   12  S      Cor( 1S)     1.99851
   167    C   12  S      Val( 2S)     0.91418
   168    C   12  S      Ryd( 3S)     0.00063
   169    C   12  S      Ryd( 4S)     0.00009
   170    C   12  px     Val( 2p)     1.10827
   171    C   12  px     Ryd( 3p)     0.00639
   172    C   12  py     Val( 2p)     0.90126
   173    C   12  py     Ryd( 3p)     0.00640
   174    C   12  pz     Val( 2p)     1.16974
   175    C   12  pz     Ryd( 3p)     0.00330
   176    C   12  dxy    Ryd( 3d)     0.00103
   177    C   12  dxz    Ryd( 3d)     0.00059
   178    C   12  dyz    Ryd( 3d)     0.00095
   179    C   12  dx2y2  Ryd( 3d)     0.00130
   180    C   12  dz2    Ryd( 3d)     0.00077

   181   Cl   13  S      Cor( 1S)     2.00000
   182   Cl   13  S      Cor( 2S)     1.99981
   183   Cl   13  S      Val( 3S)     1.83945
   184   Cl   13  S      Ryd( 4S)     0.00300
   185   Cl   13  S      Ryd( 5S)     0.00000
   186   Cl   13  px     Cor( 2p)     1.99998
   187   Cl   13  px     Val( 3p)     1.93812
   188   Cl   13  px     Ryd( 4p)     0.00169
   189   Cl   13  py     Cor( 2p)     1.99992
   190   Cl   13  py     Val( 3p)     1.32962
   191   Cl   13  py     Ryd( 4p)     0.00368
   192   Cl   13  pz     Cor( 2p)     1.99999
   193   Cl   13  pz     Val( 3p)     1.91728
   194   Cl   13  pz     Ryd( 4p)     0.00249
   195   Cl   13  dxy    Ryd( 3d)     0.00169
   196   Cl   13  dxz    Ryd( 3d)     0.00014
   197   Cl   13  dyz    Ryd( 3d)     0.00308
   198   Cl   13  dx2y2  Ryd( 3d)     0.00306
   199   Cl   13  dz2    Ryd( 3d)     0.00127

   200    C   14  S      Cor( 1S)     1.99889
   201    C   14  S      Val( 2S)     0.94464
   202    C   14  S      Ryd( 3S)     0.00116
   203    C   14  S      Ryd( 4S)     0.00006
   204    C   14  px     Val( 2p)     1.12677
   205    C   14  px     Ryd( 3p)     0.00376
   206    C   14  py     Val( 2p)     1.14450
   207    C   14  py     Ryd( 3p)     0.00545
   208    C   14  pz     Val( 2p)     1.06459
   209    C   14  pz     Ryd( 3p)     0.00532
   210    C   14  dxy    Ryd( 3d)     0.00059
   211    C   14  dxz    Ryd( 3d)     0.00050
   212    C   14  dyz    Ryd( 3d)     0.00043
   213    C   14  dx2y2  Ryd( 3d)     0.00062
   214    C   14  dz2    Ryd( 3d)     0.00048

   215    C   15  S      Cor( 1S)     1.99890
   216    C   15  S      Val( 2S)     0.94372
   217    C   15  S      Ryd( 3S)     0.00107
   218    C   15  S      Ryd( 4S)     0.00006
   219    C   15  px     Val( 2p)     1.06545
   220    C   15  px     Ryd( 3p)     0.00490
   221    C   15  py     Val( 2p)     1.09873
   222    C   15  py     Ryd( 3p)     0.00533
   223    C   15  pz     Val( 2p)     1.18802
   224    C   15  pz     Ryd( 3p)     0.00441
   225    C   15  dxy    Ryd( 3d)     0.00042
   226    C   15  dxz    Ryd( 3d)     0.00055
   227    C   15  dyz    Ryd( 3d)     0.00055
   228    C   15  dx2y2  Ryd( 3d)     0.00052
   229    C   15  dz2    Ryd( 3d)     0.00049

   230    C   16  S      Cor( 1S)     1.99851
   231    C   16  S      Val( 2S)     0.91834
   232    C   16  S      Ryd( 3S)     0.00061
   233    C   16  S      Ryd( 4S)     0.00009
   234    C   16  px     Val( 2p)     1.02742
   235    C   16  px     Ryd( 3p)     0.00570
   236    C   16  py     Val( 2p)     1.04770
   237    C   16  py     Ryd( 3p)     0.00403
   238    C   16  pz     Val( 2p)     1.07207
   239    C   16  pz     Ryd( 3p)     0.00603
   240    C   16  dxy    Ryd( 3d)     0.00123
   241    C   16  dxz    Ryd( 3d)     0.00089
   242    C   16  dyz    Ryd( 3d)     0.00085
   243    C   16  dx2y2  Ryd( 3d)     0.00091
   244    C   16  dz2    Ryd( 3d)     0.00088

   245   Cl   17  S      Cor( 1S)     2.00000
   246   Cl   17  S      Cor( 2S)     1.99981
   247   Cl   17  S      Val( 3S)     1.83986
   248   Cl   17  S      Ryd( 4S)     0.00302
   249   Cl   17  S      Ryd( 5S)     0.00000
   250   Cl   17  px     Cor( 2p)     1.99995
   251   Cl   17  px     Val( 3p)     1.64323
   252   Cl   17  px     Ryd( 4p)     0.00297
   253   Cl   17  py     Cor( 2p)     1.99996
   254   Cl   17  py     Val( 3p)     1.65525
   255   Cl   17  py     Ryd( 4p)     0.00289
   256   Cl   17  pz     Cor( 2p)     1.99998
   257   Cl   17  pz     Val( 3p)     1.87479
   258   Cl   17  pz     Ryd( 4p)     0.00195
   259   Cl   17  dxy    Ryd( 3d)     0.00293
   260   Cl   17  dxz    Ryd( 3d)     0.00165
   261   Cl   17  dyz    Ryd( 3d)     0.00117
   262   Cl   17  dx2y2  Ryd( 3d)     0.00229
   263   Cl   17  dz2    Ryd( 3d)     0.00100

   264    H   18  S      Val( 1S)     0.56819
   265    H   18  S      Ryd( 2S)     0.00157
   266    H   18  px     Ryd( 2p)     0.00050
   267    H   18  py     Ryd( 2p)     0.00040
   268    H   18  pz     Ryd( 2p)     0.00035

   269    H   19  S      Val( 1S)     0.56750
   270    H   19  S      Ryd( 2S)     0.00124
   271    H   19  px     Ryd( 2p)     0.00024
   272    H   19  py     Ryd( 2p)     0.00053
   273    H   19  pz     Ryd( 2p)     0.00046

   274    H   20  S      Val( 1S)     0.75157
   275    H   20  S      Ryd( 2S)     0.00092
   276    H   20  px     Ryd( 2p)     0.00009
   277    H   20  py     Ryd( 2p)     0.00018
   278    H   20  pz     Ryd( 2p)     0.00036

   279    H   21  S      Val( 1S)     0.75202
   280    H   21  S      Ryd( 2S)     0.00154
   281    H   21  px     Ryd( 2p)     0.00025
   282    H   21  py     Ryd( 2p)     0.00025
   283    H   21  pz     Ryd( 2p)     0.00012

   284    H   22  S      Val( 1S)     0.73180
   285    H   22  S      Ryd( 2S)     0.00151
   286    H   22  px     Ryd( 2p)     0.00010
   287    H   22  py     Ryd( 2p)     0.00034
   288    H   22  pz     Ryd( 2p)     0.00011

   289    H   23  S      Val( 1S)     0.73304
   290    H   23  S      Ryd( 2S)     0.00170
   291    H   23  px     Ryd( 2p)     0.00010
   292    H   23  py     Ryd( 2p)     0.00013
   293    H   23  pz     Ryd( 2p)     0.00032

   294    H   24  S      Val( 1S)     0.75650
   295    H   24  S      Ryd( 2S)     0.00095
   296    H   24  px     Ryd( 2p)     0.00008
   297    H   24  py     Ryd( 2p)     0.00038
   298    H   24  pz     Ryd( 2p)     0.00016

   299    H   25  S      Val( 1S)     0.75306
   300    H   25  S      Ryd( 2S)     0.00099
   301    H   25  px     Ryd( 2p)     0.00023
   302    H   25  py     Ryd( 2p)     0.00024
   303    H   25  pz     Ryd( 2p)     0.00016

   304    H   26  S      Val( 1S)     0.56805
   305    H   26  S      Ryd( 2S)     0.00170
   306    H   26  px     Ryd( 2p)     0.00025
   307    H   26  py     Ryd( 2p)     0.00057
   308    H   26  pz     Ryd( 2p)     0.00044

   309    H   27  S      Val( 1S)     0.56729
   310    H   27  S      Ryd( 2S)     0.00116
   311    H   27  px     Ryd( 2p)     0.00043
   312    H   27  py     Ryd( 2p)     0.00036
   313    H   27  pz     Ryd( 2p)     0.00043

   314    H   28  S      Val( 1S)     0.74407
   315    H   28  S      Ryd( 2S)     0.00166
   316    H   28  px     Ryd( 2p)     0.00023
   317    H   28  py     Ryd( 2p)     0.00024
   318    H   28  pz     Ryd( 2p)     0.00016

   319    H   29  S      Val( 1S)     0.74439
   320    H   29  S      Ryd( 2S)     0.00119
   321    H   29  px     Ryd( 2p)     0.00009
   322    H   29  py     Ryd( 2p)     0.00018
   323    H   29  pz     Ryd( 2p)     0.00035

 WARNING:  1 low occupancy (<1.9990e) core orbital  found on  C    2
           1 low occupancy (<1.9990e) core orbital  found on  C   10
           1 low occupancy (<1.9990e) core orbital  found on  C   12
           1 low occupancy (<1.9990e) core orbital  found on  C   14
           1 low occupancy (<1.9990e) core orbital  found on  C   15
           1 low occupancy (<1.9990e) core orbital  found on  C   16


 Summary of Natural Population Analysis:                  
                                                          
                                       Natural Population 
                Natural  -----------------------------------------------
    Atom  No    Charge         Core      Valence    Rydberg      Total
 -----------------------------------------------------------------------
      N    1   -0.77093      1.99948     5.76032    0.01113     7.77093
      C    2    0.16392      1.99882     3.81905    0.01820     5.83608
      C    3   -0.31703      1.99905     4.30205    0.01593     6.31703
      C    4   -0.25340      1.99904     4.23911    0.01525     6.25340
      C    5    0.00270      1.99900     3.98138    0.01692     5.99730
      C    6   -0.49339      1.99921     4.47953    0.01466     6.49339
      C    7    0.01332      1.99900     3.97105    0.01663     5.98668
      C    8   -0.29443      1.99904     4.27896    0.01642     6.29443
      C    9   -0.30219      1.99905     4.28703    0.01611     6.30219
      C   10    0.16333      1.99883     3.81941    0.01843     5.83667
      N   11   -0.76198      1.99948     5.75146    0.01105     7.76198
      C   12   -0.11340      1.99851     4.09344    0.02145     6.11340
     Cl   13   -0.04427      9.99970     7.02447    0.02009    17.04427
      C   14   -0.29776      1.99889     4.28050    0.01837     6.29776
      C   15   -0.31311      1.99890     4.29592    0.01829     6.31311
      C   16   -0.08524      1.99851     4.06553    0.02121     6.08524
     Cl   17   -0.03268      9.99970     7.01312    0.01986    17.03268
      H   18    0.42898      0.00000     0.56819    0.00283     0.57102
      H   19    0.43003      0.00000     0.56750    0.00247     0.56997
      H   20    0.24687      0.00000     0.75157    0.00155     0.75313
      H   21    0.24583      0.00000     0.75202    0.00215     0.75417
      H   22    0.26614      0.00000     0.73180    0.00206     0.73386
      H   23    0.26470      0.00000     0.73304    0.00226     0.73530
      H   24    0.24192      0.00000     0.75650    0.00158     0.75808
      H   25    0.24532      0.00000     0.75306    0.00162     0.75468
      H   26    0.42899      0.00000     0.56805    0.00296     0.57101
      H   27    0.43032      0.00000     0.56729    0.00239     0.56968
      H   28    0.25363      0.00000     0.74407    0.00229     0.74637
      H   29    0.25379      0.00000     0.74439    0.00181     0.74621
 =======================================================================
   * Total *    0.00000     49.98422    87.69983    0.31595   138.00000

                                 Natural Population      
 --------------------------------------------------------
   Core                      49.98422 ( 99.9684% of  50)
   Valence                   87.69983 ( 99.6589% of  88)
   Natural Minimal Basis    137.68405 ( 99.7711% of 138)
   Natural Rydberg Basis      0.31595 (  0.2289% of 138)
 --------------------------------------------------------

    Atom  No          Natural Electron Configuration
 ----------------------------------------------------------------------------
      N    1      [core]2S( 1.36)2p( 4.40)3p( 0.01)
      C    2      [core]2S( 0.84)2p( 2.98)3p( 0.01)
      C    3      [core]2S( 0.95)2p( 3.35)3p( 0.01)
      C    4      [core]2S( 0.95)2p( 3.29)3p( 0.01)
      C    5      [core]2S( 0.88)2p( 3.10)3p( 0.01)
      C    6      [core]2S( 1.02)2p( 3.46)3p( 0.01)
      C    7      [core]2S( 0.88)2p( 3.09)3p( 0.01)
      C    8      [core]2S( 0.95)2p( 3.33)3p( 0.01)
      C    9      [core]2S( 0.95)2p( 3.34)3p( 0.01)
      C   10      [core]2S( 0.84)2p( 2.98)3p( 0.01)
      N   11      [core]2S( 1.36)2p( 4.39)3p( 0.01)
      C   12      [core]2S( 0.91)2p( 3.18)3p( 0.02)
     Cl   13      [core]3S( 1.84)3p( 5.19)3d( 0.01)4p( 0.01)
      C   14      [core]2S( 0.94)2p( 3.34)3p( 0.01)
      C   15      [core]2S( 0.94)2p( 3.35)3p( 0.01)
      C   16      [core]2S( 0.92)2p( 3.15)3p( 0.02)
     Cl   17      [core]3S( 1.84)3p( 5.17)3d( 0.01)4p( 0.01)
      H   18            1S( 0.57)
      H   19            1S( 0.57)
      H   20            1S( 0.75)
      H   21            1S( 0.75)
      H   22            1S( 0.73)
      H   23            1S( 0.73)
      H   24            1S( 0.76)
      H   25            1S( 0.75)
      H   26            1S( 0.57)
      H   27            1S( 0.57)
      H   28            1S( 0.74)
      H   29            1S( 0.74)


 NBO analysis skipped by request.
 1\1\GINC-DRG2-W002\SP\RB3LYP TD-FC\6-31G(d,p)\C13H12Cl2N2\QDUEZ\17-Jul
 -2024\0\\# TD(NStates=10, Root=1) B3LYP/6-31G** SCRF=(Solvent=water) v
 olume pop=NPA density=current Geom=AllCheck Guess=Read\\IBOFVQJTBBUKMU
 -UHFFFAOYSA-N_conf_0\\0,1\N,0,4.7287614299,1.6330895303,0.3027818245\C
 ,0,3.6068985709,0.8162986269,0.3343549517\C,0,2.4904883339,1.140864224
 8,1.1330891427\C,0,1.3383517968,0.3667527909,1.1205496712\C,0,1.233502
 5945,-0.7789865281,0.3160281541\C,0,-0.0246214427,-1.6314821845,0.3153
 413021\C,0,-1.2752200304,-0.9047896687,-0.1533331639\C,0,-2.3940268721
 ,-0.7597624342,0.6757831328\C,0,-3.5436618201,-0.1064562755,0.24079010
 92\C,0,-3.6329660423,0.4419004188,-1.051775107\N,0,-4.7540079418,1.151
 7121022,-1.4600588029\C,0,-2.4985680258,0.2871552421,-1.8736136017\Cl,
 0,-2.5398473082,0.9455785388,-3.5186961595\C,0,-1.3495043579,-0.365541
 3985,-1.4435587392\C,0,2.3319901781,-1.1150496121,-0.4785500816\C,0,3.
 4856623734,-0.3328243088,-0.4657308784\Cl,0,4.8485893891,-0.8096714879
 ,-1.4929918288\H,0,5.5889025216,1.1765790588,0.028172364\H,0,4.8529567
 051,2.209954707,1.1243833526\H,0,2.5466533812,2.0211056629,1.767844980
 6\H,0,0.5018060314,0.6569836033,1.7503624755\H,0,-0.207483331,-2.01453
 87612,1.3263352817\H,0,0.1487937198,-2.5107231334,-0.3164941674\H,0,-2
 .3717378773,-1.1708603333,1.6814730893\H,0,-4.3967347079,-0.0093074027
 ,0.90673309\H,0,-4.9079826239,1.1801699674,-2.4596114147\H,0,-5.600907
 5788,0.9286897776,-0.9538272746\H,0,-0.5062672219,-0.4513316218,-2.121
 6031842\H,0,2.3001801563,-1.9955091012,-1.1125749395\\Version=ES64L-G1
 6RevA.03\State=1-A\HF=-1532.5530894\RMSD=3.817e-09\Dipole=-0.5496692,0
 .3578014,1.3644444\Quadrupole=20.5345955,-10.8340042,-9.7005913,6.1186
 921,7.3057902,3.6780893\PG=C01 [X(C13H12Cl2N2)]\\@


 READER, WHETHER YOU BE DILETTANTE OR PROFESSOR ... SHOW YOURSELF TO BE
 MORE HUMAN THAN CRITICAL, AND THEN YOUR PLEASURE WILL INCREASE.
                                           -- DOMENICO SCARLATTI (1738)
 Job cpu time:       0 days  0 hours 54 minutes  5.6 seconds.
 Elapsed time:       0 days  0 hours 18 minutes  4.9 seconds.
 File lengths (MBytes):  RWF=    866 Int=      0 D2E=      0 Chk=     54 Scr=      1
 Normal termination of Gaussian 16 at Wed Jul 17 22:46:16 2024.
